                               Psi4 1.4a2.dev612

  ==> Input File <==

--------------------------------------------------------------------------
#psi4
#
memory 32 gb

molecule  {
0 1
  S        1.7618360    -1.1877300    -0.0001100
  N       -1.1892720    -1.1162850     0.0000840
  N        1.4363420     1.3812950    -0.0000570
  C       -0.6888070     0.1366280     0.0000400
  C        0.7702180     0.2369850    -0.0000350
  C       -1.4867981     1.2893507     0.1000580
  C       -2.8690220     1.1312400     0.0001290
  C       -3.4040470    -0.1590480     0.0001760
  C       -2.5262420    -1.2439110     0.0001500
  C        3.1506810    -0.1849920    -0.0001670
  C        2.7828300     1.1426020    -0.0001250
  H       -1.0124600     2.2659460     0.0000190
  H       -3.5213850     2.0011240     0.0001460
  H       -4.4778440    -0.3237170     0.0002310
  H       -2.9027010    -2.2653680     0.0001840
  H        4.1496320    -0.6018500    -0.0002240
  H        3.4730500     1.9793660    -0.0001460
units angstrom
no_reorient  #important for SAPT in psi4, default
symmetry c1  #important for SAPT in psi4, default
}

set PROPERTIES_ORIGIN ["COM"]
properties('MP2/aug-cc-pvtz', properties = ['dipole'])
--------------------------------------------------------------------------

    Molecular point group: c1
  Charge       = 0
  Multiplicity = 1
  Basis Set: AUG-CC-PVTZ
    Blend: AUG-CC-PVTZ
  Basis Set: (AUG-CC-PVTZ AUX)
    Blend: AUG-CC-PVTZ-JKFIT

    Orbital Energies [Eh]
    ---------------------

    Doubly Occupied:

       1A    -91.995807     2A    -15.578761     3A    -15.574484
       4A    -11.313807     5A    -11.298224     6A    -11.285907
       7A    -11.270209     8A    -11.268315     9A    -11.265226
      10A    -11.251176    11A    -11.250674    12A     -8.995834
      13A     -6.676600    14A     -6.676051    15A     -6.675386
      16A     -1.287536    17A     -1.260280    18A     -1.096052
      19A     -1.068292    20A     -1.062297    21A     -0.986378
      22A     -0.876621    23A     -0.868985    24A     -0.790874
      25A     -0.766406    26A     -0.706934    27A     -0.679619
      28A     -0.668189    29A     -0.638852    30A     -0.593556
      31A     -0.587754    32A     -0.581104    33A     -0.558335
      34A     -0.536107    35A     -0.528398    36A     -0.502922
      37A     -0.444251    38A     -0.424697    39A     -0.398358
      40A     -0.392472    41A     -0.371401    42A     -0.307176

  @DF-RHF Final Energy:  -813.00641991943610

   => Energetics <=

    Nuclear Repulsion Energy =            626.8345599313311141
    One-Electron Energy =               -2356.9613386277474092
    Two-Electron Energy =                 917.1203587769801970
    Total Energy =                       -813.0064199194360981
  Basis Set: (AUG-CC-PVTZ AUX)
    Blend: AUG-CC-PVTZ-RI
    Molecular point group: c1

    Geometry (in Angstrom), charge = 0, multiplicity = 1:

       Center              X                  Y                   Z               Mass
    ------------   -----------------  -----------------  -----------------  -----------------
         S            1.735853928531    -1.169229376475    -0.007514928525    31.972071174400
         N           -1.215254071469    -1.097784376475    -0.007320928525    14.003074004430
         N            1.410359928531     1.399795623525    -0.007461928525    14.003074004430
         C           -0.714789071469     0.155128623525    -0.007364928525    12.000000000000
         C            0.744235928531     0.255485623525    -0.007439928525    12.000000000000
         C           -1.512780171469     1.307851323525     0.092653071475    12.000000000000
         C           -2.895004071469     1.149740623525    -0.007275928525    12.000000000000
         C           -3.430029071469    -0.140547376475    -0.007228928525    12.000000000000
         C           -2.552224071469    -1.225410376475    -0.007254928525    12.000000000000
         C            3.124698928531    -0.166491376475    -0.007571928525    12.000000000000
         C            2.756847928531     1.161102623525    -0.007529928525    12.000000000000
         H           -1.038442071469     2.284446623525    -0.007385928525     1.007825032230
         H           -3.547367071469     2.019624623525    -0.007258928525     1.007825032230
         H           -4.503826071469    -0.305216376475    -0.007173928525     1.007825032230
         H           -2.928683071469    -2.246867376475    -0.007220928525     1.007825032230
         H            4.123649928531    -0.583349376475    -0.007628928525     1.007825032230
         H            3.447067928531     1.997866623525    -0.007550928525     1.007825032230

  Basis Set: AUG-CC-PVTZ
    Blend: AUG-CC-PVTZ
  Basis Set: (AUG-CC-PVTZ AUX)
    Blend: AUG-CC-PVTZ-JKFIT
	 Reference Energy          =    -813.0064199194360981 [Eh]
	 Singles Energy            =      -0.0000000000000000 [Eh]
	 Same-Spin Energy          =      -0.5254667619284490 [Eh]
	 Opposite-Spin Energy      =      -1.5537714034378103 [Eh]
	 Correlation Energy        =      -2.0792381653662595 [Eh]
	 Total Energy              =    -815.0856580848023896 [Eh]

	 ================> DF-SCS-MP2 Energies <==================
	-----------------------------------------------------------
	 SCS Same-Spin Scale       =       0.3333333333333333 [-]
	 SCS Opposite-Spin Scale   =       1.2000000000000000 [-]
	 SCS Same-Spin Energy      =      -0.1751555873094830 [Eh]
	 SCS Opposite-Spin Energy  =      -1.8645256841253723 [Eh]
	 SCS Correlation Energy    =      -2.0396812714348553 [Eh]
	 SCS Total Energy          =    -815.0461011908708997 [Eh]
	-----------------------------------------------------------

  Dipole Moment: [D]
     X:    -0.7976      Y:     0.1787      Z:    -0.0263     Total:     0.8178

*** Psi4 exiting successfully. Buy a developer a beer!
