                               Psi4 1.4a2.dev612

  ==> Input File <==

--------------------------------------------------------------------------
#psi4
#
memory 32 gb

molecule  {
0 1
  S        1.7618360    -1.1877300    -0.0001100
  N       -1.1892720    -1.1162850     0.0000840
  N        1.4363420     1.3812950    -0.0000570
  C       -0.6887963     0.1366252     0.2000400
  C        0.7702180     0.2369850    -0.0000350
  C       -1.4868030     1.2893490     0.0000580
  C       -2.8690220     1.1312400     0.0001290
  C       -3.4040470    -0.1590480     0.0001760
  C       -2.5262420    -1.2439110     0.0001500
  C        3.1506810    -0.1849920    -0.0001670
  C        2.7828300     1.1426020    -0.0001250
  H       -1.0124600     2.2659460     0.0000190
  H       -3.5213850     2.0011240     0.0001460
  H       -4.4778440    -0.3237170     0.0002310
  H       -2.9027010    -2.2653680     0.0001840
  H        4.1496320    -0.6018500    -0.0002240
  H        3.4730500     1.9793660    -0.0001460
units angstrom
no_reorient  #important for SAPT in psi4, default
symmetry c1  #important for SAPT in psi4, default
}

set PROPERTIES_ORIGIN ["COM"]
properties('MP2/aug-cc-pvtz', properties = ['dipole'])
--------------------------------------------------------------------------

    Molecular point group: c1
  Charge       = 0
  Multiplicity = 1
  Basis Set: AUG-CC-PVTZ
    Blend: AUG-CC-PVTZ
  Basis Set: (AUG-CC-PVTZ AUX)
    Blend: AUG-CC-PVTZ-JKFIT

    Orbital Energies [Eh]
    ---------------------

    Doubly Occupied:

       1A    -91.994563     2A    -15.581960     3A    -15.573025
       4A    -11.314606     5A    -11.300830     6A    -11.285135
       7A    -11.269513     8A    -11.267472     9A    -11.264076
      10A    -11.253981    11A    -11.253455    12A     -8.994683
      13A     -6.675455    14A     -6.674898    15A     -6.674226
      16A     -1.285640    17A     -1.258011    18A     -1.096162
      19A     -1.066619    20A     -1.061256    21A     -0.985281
      22A     -0.876087    23A     -0.866294    24A     -0.789804
      25A     -0.763663    26A     -0.706852    27A     -0.679162
      28A     -0.666963    29A     -0.640127    30A     -0.593896
      31A     -0.586921    32A     -0.578819    33A     -0.557697
      34A     -0.538300    35A     -0.523660    36A     -0.502105
      37A     -0.444127    38A     -0.426232    39A     -0.397300
      40A     -0.390023    41A     -0.370125    42A     -0.306450

  @DF-RHF Final Energy:  -812.99403808401451

   => Energetics <=

    Nuclear Repulsion Energy =            626.3396844404144304
    One-Electron Energy =               -2355.9965362441980687
    Two-Electron Energy =                 916.6628137197691331
    Total Energy =                       -812.9940380840145053
  Basis Set: (AUG-CC-PVTZ AUX)
    Blend: AUG-CC-PVTZ-RI
    Molecular point group: c1

    Geometry (in Angstrom), charge = 0, multiplicity = 1:

       Center              X                  Y                   Z               Mass
    ------------   -----------------  -----------------  -----------------  -----------------
         S            1.735853498968    -1.169229043193    -0.014921185248    31.972071174400
         N           -1.215254501032    -1.097784043193    -0.014727185248    14.003074004430
         N            1.410359498968     1.399795956807    -0.014868185248    14.003074004430
         C           -0.714778801032     0.155126156807     0.185228814752    12.000000000000
         C            0.744235498968     0.255485956807    -0.014846185248    12.000000000000
         C           -1.512785501032     1.307849956807    -0.014753185248    12.000000000000
         C           -2.895004501032     1.149740956807    -0.014682185248    12.000000000000
         C           -3.430029501032    -0.140547043193    -0.014635185248    12.000000000000
         C           -2.552224501032    -1.225410043193    -0.014661185248    12.000000000000
         C            3.124698498968    -0.166491043193    -0.014978185248    12.000000000000
         C            2.756847498968     1.161102956807    -0.014936185248    12.000000000000
         H           -1.038442501032     2.284446956807    -0.014792185248     1.007825032230
         H           -3.547367501032     2.019624956807    -0.014665185248     1.007825032230
         H           -4.503826501032    -0.305216043193    -0.014580185248     1.007825032230
         H           -2.928683501032    -2.246867043193    -0.014627185248     1.007825032230
         H            4.123649498968    -0.583349043193    -0.015035185248     1.007825032230
         H            3.447067498968     1.997866956807    -0.014957185248     1.007825032230

  Basis Set: AUG-CC-PVTZ
    Blend: AUG-CC-PVTZ
  Basis Set: (AUG-CC-PVTZ AUX)
    Blend: AUG-CC-PVTZ-JKFIT
	 Reference Energy          =    -812.9940380840145053 [Eh]
	 Singles Energy            =      -0.0000000000000000 [Eh]
	 Same-Spin Energy          =      -0.5260494148711690 [Eh]
	 Opposite-Spin Energy      =      -1.5552580708458283 [Eh]
	 Correlation Energy        =      -2.0813074857169971 [Eh]
	 Total Energy              =    -815.0753455697315530 [Eh]

	 ================> DF-SCS-MP2 Energies <==================
	-----------------------------------------------------------
	 SCS Same-Spin Scale       =       0.3333333333333333 [-]
	 SCS Opposite-Spin Scale   =       1.2000000000000000 [-]
	 SCS Same-Spin Energy      =      -0.1753498049570563 [Eh]
	 SCS Opposite-Spin Energy  =      -1.8663096850149938 [Eh]
	 SCS Correlation Energy    =      -2.0416594899720502 [Eh]
	 SCS Total Energy          =    -815.0356975739865675 [Eh]
	-----------------------------------------------------------

  Dipole Moment: [D]
     X:    -0.8898      Y:     0.1998      Z:     0.0677     Total:     0.9145

*** Psi4 exiting successfully. Buy a developer a beer!
