                               Psi4 1.4a2.dev612

  ==> Input File <==

--------------------------------------------------------------------------
#psi4
#
memory 32 gb

molecule  {
0 1
  S        1.7618360    -1.1877300    -0.0001100
  N       -1.1892720    -1.1162850     0.0000840
  N        1.4363420     1.3812950    -0.0000570
  C       -0.6888070     0.1366280     0.0000400
  C        0.7702180     0.2369850    -0.0000350
  C       -1.4868030     1.2893490     0.0000580
  C       -2.8690220     1.1312400     0.0001290
  C       -3.4040470    -0.1590480     0.0001760
  C       -2.5262420    -1.2439110     0.0001500
  C        3.1506810    -0.1849920    -0.0001670
  C        2.7828300     1.1426020    -0.0001250
  H       -1.0124600     2.2659460     0.0000190
  H       -3.5213850     2.0011240     0.0001460
  H       -4.4778440    -0.3237170     0.0002310
  H       -2.9027010    -2.2653680     0.0001840
  H        4.1496165    -0.6018451    -0.3002240
  H        3.4730500     1.9793660    -0.0001460
units angstrom
no_reorient  #important for SAPT in psi4, default
symmetry c1  #important for SAPT in psi4, default
}

set PROPERTIES_ORIGIN ["COM"]
properties('MP2/aug-cc-pvtz', properties = ['dipole'])
--------------------------------------------------------------------------

    Molecular point group: c1
  Charge       = 0
  Multiplicity = 1
  Basis Set: AUG-CC-PVTZ
    Blend: AUG-CC-PVTZ
  Basis Set: (AUG-CC-PVTZ AUX)
    Blend: AUG-CC-PVTZ-JKFIT

    Orbital Energies [Eh]
    ---------------------

    Doubly Occupied:

       1A    -91.995409     2A    -15.579367     3A    -15.574655
       4A    -11.314687     5A    -11.297717     6A    -11.285825
       7A    -11.271457     8A    -11.267919     9A    -11.267533
      10A    -11.251853    11A    -11.250440    12A     -8.995474
      13A     -6.676237    14A     -6.675668    15A     -6.675010
      16A     -1.288024    17A     -1.260735    18A     -1.096929
      19A     -1.068434    20A     -1.061891    21A     -0.986437
      22A     -0.876934    23A     -0.869547    24A     -0.787540
      25A     -0.766385    26A     -0.705344    27A     -0.679390
      28A     -0.667419    29A     -0.639638    30A     -0.594084
      31A     -0.588130    32A     -0.581670    33A     -0.555249
      34A     -0.535492    35A     -0.527637    36A     -0.502838
      37A     -0.444532    38A     -0.424996    39A     -0.398640
      40A     -0.392591    41A     -0.371798    42A     -0.307448

  @DF-RHF Final Energy:  -813.00414162854577

   => Energetics <=

    Nuclear Repulsion Energy =            626.7964421055103230
    One-Electron Energy =               -2356.8831592239239399
    Two-Electron Energy =                 917.0825754898678497
    Total Energy =                       -813.0041416285457672
  Basis Set: (AUG-CC-PVTZ AUX)
    Blend: AUG-CC-PVTZ-RI
    Molecular point group: c1

    Geometry (in Angstrom), charge = 0, multiplicity = 1:

       Center              X                  Y                   Z               Mass
    ------------   -----------------  -----------------  -----------------  -----------------
         S            1.735854387851    -1.169229281047     0.001757380929    31.972071174400
         N           -1.215253612149    -1.097784281047     0.001951380929    14.003074004430
         N            1.410360387851     1.399795718953     0.001810380929    14.003074004430
         C           -0.714788612149     0.155128718953     0.001907380929    12.000000000000
         C            0.744236387851     0.255485718953     0.001832380929    12.000000000000
         C           -1.512784612149     1.307849718953     0.001925380929    12.000000000000
         C           -2.895003612149     1.149740718953     0.001996380929    12.000000000000
         C           -3.430028612149    -0.140547281047     0.002043380929    12.000000000000
         C           -2.552223612149    -1.225410281047     0.002017380929    12.000000000000
         C            3.124699387851    -0.166491281047     0.001700380929    12.000000000000
         C            2.756848387851     1.161102718953     0.001742380929    12.000000000000
         H           -1.038441612149     2.284446718953     0.001886380929     1.007825032230
         H           -3.547366612149     2.019624718953     0.002013380929     1.007825032230
         H           -4.503825612149    -0.305216281047     0.002098380929     1.007825032230
         H           -2.928682612149    -2.246867281047     0.002051380929     1.007825032230
         H            4.123634887851    -0.583344381047    -0.298356619071     1.007825032230
         H            3.447068387851     1.997866718953     0.001721380929     1.007825032230

  Basis Set: AUG-CC-PVTZ
    Blend: AUG-CC-PVTZ
  Basis Set: (AUG-CC-PVTZ AUX)
    Blend: AUG-CC-PVTZ-JKFIT
	 Reference Energy          =    -813.0041416285457672 [Eh]
	 Singles Energy            =      -0.0000000000000000 [Eh]
	 Same-Spin Energy          =      -0.5256320382522004 [Eh]
	 Opposite-Spin Energy      =      -1.5542298464822406 [Eh]
	 Correlation Energy        =      -2.0798618847344410 [Eh]
	 Total Energy              =    -815.0840035132802086 [Eh]

	 ================> DF-SCS-MP2 Energies <==================
	-----------------------------------------------------------
	 SCS Same-Spin Scale       =       0.3333333333333333 [-]
	 SCS Opposite-Spin Scale   =       1.2000000000000000 [-]
	 SCS Same-Spin Energy      =      -0.1752106794174001 [Eh]
	 SCS Opposite-Spin Energy  =      -1.8650758157786886 [Eh]
	 SCS Correlation Energy    =      -2.0402864951960886 [Eh]
	 SCS Total Energy          =    -815.0444281237419091 [Eh]
	-----------------------------------------------------------

  Dipole Moment: [D]
     X:    -0.8696      Y:     0.2258      Z:    -0.2345     Total:     0.9285

*** Psi4 exiting successfully. Buy a developer a beer!
