                               Psi4 1.4a2.dev612

  ==> Input File <==

--------------------------------------------------------------------------
#psi4
#
memory 32 gb

molecule  {
0 1
  S        1.7618360    -1.1877300    -0.0001100
  N       -1.1892720    -1.1162850     0.0000840
  N        1.4363420     1.3812950    -0.0000570
  C       -0.6887989     0.1366259     0.1500400
  C        0.7702180     0.2369850    -0.0000350
  C       -1.4868030     1.2893490     0.0000580
  C       -2.8690220     1.1312400     0.0001290
  C       -3.4040470    -0.1590480     0.0001760
  C       -2.5262420    -1.2439110     0.0001500
  C        3.1506810    -0.1849920    -0.0001670
  C        2.7828300     1.1426020    -0.0001250
  H       -1.0124600     2.2659460     0.0000190
  H       -3.5213850     2.0011240     0.0001460
  H       -4.4778440    -0.3237170     0.0002310
  H       -2.9027010    -2.2653680     0.0001840
  H        4.1496320    -0.6018500    -0.0002240
  H        3.4730500     1.9793660    -0.0001460
units angstrom
no_reorient  #important for SAPT in psi4, default
symmetry c1  #important for SAPT in psi4, default
}

set PROPERTIES_ORIGIN ["COM"]
properties('MP2/aug-cc-pvtz', properties = ['dipole'])
--------------------------------------------------------------------------

    Molecular point group: c1
  Charge       = 0
  Multiplicity = 1
  Basis Set: AUG-CC-PVTZ
    Blend: AUG-CC-PVTZ
  Basis Set: (AUG-CC-PVTZ AUX)
    Blend: AUG-CC-PVTZ-JKFIT

    Orbital Energies [Eh]
    ---------------------

    Doubly Occupied:

       1A    -91.995054     2A    -15.580646     3A    -15.573599
       4A    -11.314271     5A    -11.299387     6A    -11.285285
       7A    -11.269788     8A    -11.267512     9A    -11.264514
      10A    -11.252534    11A    -11.252228    12A     -8.995140
      13A     -6.675910    14A     -6.675356    15A     -6.674687
      16A     -1.286450    17A     -1.259007    18A     -1.096316
      19A     -1.067413    20A     -1.061730    21A     -0.985802
      22A     -0.876475    23A     -0.867565    24A     -0.790248
      25A     -0.764942    26A     -0.706995    27A     -0.679499
      28A     -0.667869    29A     -0.639917    30A     -0.593837
      31A     -0.587316    32A     -0.579950    33A     -0.558034
      34A     -0.537586    35A     -0.525867    36A     -0.502456
      37A     -0.444163    38A     -0.425646    39A     -0.397920
      40A     -0.391094    41A     -0.370734    42A     -0.306718

  @DF-RHF Final Energy:  -813.00078779747719

   => Energetics <=

    Nuclear Repulsion Energy =            626.6069185943030107
    One-Electron Energy =               -2356.5204914576083866
    Two-Electron Energy =                 916.9127850658283023
    Total Energy =                       -813.0007877974771873
  Basis Set: (AUG-CC-PVTZ AUX)
    Blend: AUG-CC-PVTZ-RI
    Molecular point group: c1

    Geometry (in Angstrom), charge = 0, multiplicity = 1:

       Center              X                  Y                   Z               Mass
    ------------   -----------------  -----------------  -----------------  -----------------
         S            1.735853691531    -1.169229095037    -0.011218056886    31.972071174400
         N           -1.215254308469    -1.097784095037    -0.011024056886    14.003074004430
         N            1.410359691531     1.399795904963    -0.011165056886    14.003074004430
         C           -0.714781208469     0.155126804963     0.138931943114    12.000000000000
         C            0.744235691531     0.255485904963    -0.011143056886    12.000000000000
         C           -1.512785308469     1.307849904963    -0.011050056886    12.000000000000
         C           -2.895004308469     1.149740904963    -0.010979056886    12.000000000000
         C           -3.430029308469    -0.140547095037    -0.010932056886    12.000000000000
         C           -2.552224308469    -1.225410095037    -0.010958056886    12.000000000000
         C            3.124698691531    -0.166491095037    -0.011275056886    12.000000000000
         C            2.756847691531     1.161102904963    -0.011233056886    12.000000000000
         H           -1.038442308469     2.284446904963    -0.011089056886     1.007825032230
         H           -3.547367308469     2.019624904963    -0.010962056886     1.007825032230
         H           -4.503826308469    -0.305216095037    -0.010877056886     1.007825032230
         H           -2.928683308469    -2.246867095037    -0.010924056886     1.007825032230
         H            4.123649691531    -0.583349095037    -0.011332056886     1.007825032230
         H            3.447067691531     1.997866904963    -0.011254056886     1.007825032230

  Basis Set: AUG-CC-PVTZ
    Blend: AUG-CC-PVTZ
  Basis Set: (AUG-CC-PVTZ AUX)
    Blend: AUG-CC-PVTZ-JKFIT
	 Reference Energy          =    -813.0007877974771873 [Eh]
	 Singles Energy            =      -0.0000000000000000 [Eh]
	 Same-Spin Energy          =      -0.5257357564971573 [Eh]
	 Opposite-Spin Energy      =      -1.5544600654706242 [Eh]
	 Correlation Energy        =      -2.0801958219677816 [Eh]
	 Total Energy              =    -815.0809836194449645 [Eh]

	 ================> DF-SCS-MP2 Energies <==================
	-----------------------------------------------------------
	 SCS Same-Spin Scale       =       0.3333333333333333 [-]
	 SCS Opposite-Spin Scale   =       1.2000000000000000 [-]
	 SCS Same-Spin Energy      =      -0.1752452521657191 [Eh]
	 SCS Opposite-Spin Energy  =      -1.8653520785647490 [Eh]
	 SCS Correlation Energy    =      -2.0405973307304683 [Eh]
	 SCS Total Energy          =    -815.0413851282077076 [Eh]
	-----------------------------------------------------------

  Dipole Moment: [D]
     X:    -0.8503      Y:     0.1977      Z:     0.0519     Total:     0.8745

*** Psi4 exiting successfully. Buy a developer a beer!
