                               Psi4 1.4a2.dev612

  ==> Input File <==

--------------------------------------------------------------------------
#psi4
#
memory 32 gb

molecule  {
0 1
  S        1.7618360    -1.1877300    -0.0001100
  N       -1.1892720    -1.1162850     0.0000840
  N        1.4363420     1.3812950    -0.0000570
  C       -0.6888070     0.1366280     0.0000400
  C        0.7702180     0.2369850    -0.0000350
  C       -1.4868030     1.2893490     0.0000580
  C       -2.8690220     1.1312400     0.0001290
  C       -3.4040470    -0.1590480     0.0001760
  C       -2.5262420    -1.2439110     0.0001500
  C        3.1506810    -0.1849920    -0.0001670
  C        2.7828300     1.1426020    -0.0001250
  H       -1.0124722     2.2659417    -0.2499810
  H       -3.5213850     2.0011240     0.0001460
  H       -4.4778440    -0.3237170     0.0002310
  H       -2.9027010    -2.2653680     0.0001840
  H        4.1496320    -0.6018500    -0.0002240
  H        3.4730500     1.9793660    -0.0001460
units angstrom
no_reorient  #important for SAPT in psi4, default
symmetry c1  #important for SAPT in psi4, default
}

set PROPERTIES_ORIGIN ["COM"]
properties('MP2/aug-cc-pvtz', properties = ['dipole'])
--------------------------------------------------------------------------

    Molecular point group: c1
  Charge       = 0
  Multiplicity = 1
  Basis Set: AUG-CC-PVTZ
    Blend: AUG-CC-PVTZ
  Basis Set: (AUG-CC-PVTZ AUX)
    Blend: AUG-CC-PVTZ-JKFIT

    Orbital Energies [Eh]
    ---------------------

    Doubly Occupied:

       1A    -91.995728     2A    -15.579060     3A    -15.574298
       4A    -11.313692     5A    -11.297836     6A    -11.285971
       7A    -11.270093     8A    -11.267902     9A    -11.265145
      10A    -11.252166    11A    -11.251447    12A     -8.995755
      13A     -6.676522    14A     -6.675974    15A     -6.675307
      16A     -1.287539    17A     -1.260447    18A     -1.096404
      19A     -1.068269    20A     -1.062242    21A     -0.986319
      22A     -0.877034    23A     -0.868070    24A     -0.790839
      25A     -0.766406    26A     -0.706414    27A     -0.678591
      28A     -0.668850    29A     -0.636923    30A     -0.593159
      31A     -0.587879    32A     -0.580560    33A     -0.558334
      34A     -0.537084    35A     -0.526566    36A     -0.502728
      37A     -0.444218    38A     -0.424747    39A     -0.398928
      40A     -0.392066    41A     -0.371087    42A     -0.307088

  @DF-RHF Final Energy:  -813.00511199261075

   => Energetics <=

    Nuclear Repulsion Energy =            626.8348426993509293
    One-Electron Energy =               -2356.9685330361171509
    Two-Electron Energy =                 917.1285783441554713
    Total Energy =                       -813.0051119926107503
  Basis Set: (AUG-CC-PVTZ AUX)
    Blend: AUG-CC-PVTZ-RI
    Molecular point group: c1

    Geometry (in Angstrom), charge = 0, multiplicity = 1:

       Center              X                  Y                   Z               Mass
    ------------   -----------------  -----------------  -----------------  -----------------
         S            1.735854367324    -1.169229223822     0.001446372140    31.972071174400
         N           -1.215253632676    -1.097784223822     0.001640372140    14.003074004430
         N            1.410360367324     1.399795776178     0.001499372140    14.003074004430
         C           -0.714788632676     0.155128776178     0.001596372140    12.000000000000
         C            0.744236367324     0.255485776178     0.001521372140    12.000000000000
         C           -1.512784632676     1.307849776178     0.001614372140    12.000000000000
         C           -2.895003632676     1.149740776178     0.001685372140    12.000000000000
         C           -3.430028632676    -0.140547223822     0.001732372140    12.000000000000
         C           -2.552223632676    -1.225410223822     0.001706372140    12.000000000000
         C            3.124699367324    -0.166491223822     0.001389372140    12.000000000000
         C            2.756848367324     1.161102776178     0.001431372140    12.000000000000
         H           -1.038453832676     2.284442476178    -0.248424627860     1.007825032230
         H           -3.547366632676     2.019624776178     0.001702372140     1.007825032230
         H           -4.503825632676    -0.305216223822     0.001787372140     1.007825032230
         H           -2.928682632676    -2.246867223822     0.001740372140     1.007825032230
         H            4.123650367324    -0.583349223822     0.001332372140     1.007825032230
         H            3.447068367324     1.997866776178     0.001410372140     1.007825032230

  Basis Set: AUG-CC-PVTZ
    Blend: AUG-CC-PVTZ
  Basis Set: (AUG-CC-PVTZ AUX)
    Blend: AUG-CC-PVTZ-JKFIT
	 Reference Energy          =    -813.0051119926107503 [Eh]
	 Singles Energy            =      -0.0000000000000000 [Eh]
	 Same-Spin Energy          =      -0.5255666026321173 [Eh]
	 Opposite-Spin Energy      =      -1.5539752988799835 [Eh]
	 Correlation Energy        =      -2.0795419015121008 [Eh]
	 Total Energy              =    -815.0846538941228800 [Eh]

	 ================> DF-SCS-MP2 Energies <==================
	-----------------------------------------------------------
	 SCS Same-Spin Scale       =       0.3333333333333333 [-]
	 SCS Opposite-Spin Scale   =       1.2000000000000000 [-]
	 SCS Same-Spin Energy      =      -0.1751888675440391 [Eh]
	 SCS Opposite-Spin Energy  =      -1.8647703586559801 [Eh]
	 SCS Correlation Energy    =      -2.0399592262000192 [Eh]
	 SCS Total Energy          =    -815.0450712188107900 [Eh]
	-----------------------------------------------------------

  Dipole Moment: [D]
     X:    -0.8112      Y:     0.1645      Z:    -0.1469     Total:     0.8407

*** Psi4 exiting successfully. Buy a developer a beer!
