                               Psi4 1.4a2.dev612

  ==> Input File <==

--------------------------------------------------------------------------
#psi4
#
memory 32 gb

molecule  {
0 1
  S        1.7618360    -1.1877300    -0.0001100
  N       -1.1892720    -1.1162850     0.0000840
  N        1.4363420     1.3812950    -0.0000570
  C       -0.6888070     0.1366280     0.0000400
  C        0.7702180     0.2369850    -0.0000350
  C       -1.4868030     1.2893490     0.0000580
  C       -2.8690220     1.1312400     0.0001290
  C       -3.4040470    -0.1590480     0.0001760
  C       -2.5262420    -1.2439110     0.0001500
  C        3.1506810    -0.1849920    -0.0001670
  C        2.7828300     1.1426020    -0.0001250
  H       -1.0124697     2.2659425    -0.1999810
  H       -3.5213850     2.0011240     0.0001460
  H       -4.4778440    -0.3237170     0.0002310
  H       -2.9027010    -2.2653680     0.0001840
  H        4.1496320    -0.6018500    -0.0002240
  H        3.4730500     1.9793660    -0.0001460
units angstrom
no_reorient  #important for SAPT in psi4, default
symmetry c1  #important for SAPT in psi4, default
}

set PROPERTIES_ORIGIN ["COM"]
properties('MP2/aug-cc-pvtz', properties = ['dipole'])
--------------------------------------------------------------------------

    Molecular point group: c1
  Charge       = 0
  Multiplicity = 1
  Basis Set: AUG-CC-PVTZ
    Blend: AUG-CC-PVTZ
  Basis Set: (AUG-CC-PVTZ AUX)
    Blend: AUG-CC-PVTZ-JKFIT

    Orbital Energies [Eh]
    ---------------------

    Doubly Occupied:

       1A    -91.995719     2A    -15.579009     3A    -15.574314
       4A    -11.313730     5A    -11.297689     6A    -11.285801
       7A    -11.270109     8A    -11.267785     9A    -11.265122
      10A    -11.251437    11A    -11.251369    12A     -8.995746
      13A     -6.676513    14A     -6.675965    15A     -6.675299
      16A     -1.287531    17A     -1.260391    18A     -1.096453
      19A     -1.068333    20A     -1.062267    21A     -0.986377
      22A     -0.877017    23A     -0.868482    24A     -0.790837
      25A     -0.766471    26A     -0.706671    27A     -0.679058
      28A     -0.668897    29A     -0.637889    30A     -0.593391
      31A     -0.587840    32A     -0.580892    33A     -0.558380
      34A     -0.536776    35A     -0.527505    36A     -0.502795
      37A     -0.444224    38A     -0.424730    39A     -0.398902
      40A     -0.392238    41A     -0.371237    42A     -0.307085

  @DF-RHF Final Energy:  -813.00675173448406

   => Energetics <=

    Nuclear Repulsion Energy =            626.8772504284959268
    One-Electron Energy =               -2357.0514487629493487
    Two-Electron Energy =                 917.1674465999693666
    Total Energy =                       -813.0067517344840553
  Basis Set: (AUG-CC-PVTZ AUX)
    Blend: AUG-CC-PVTZ-RI
    Molecular point group: c1

    Geometry (in Angstrom), charge = 0, multiplicity = 1:

       Center              X                  Y                   Z               Mass
    ------------   -----------------  -----------------  -----------------  -----------------
         S            1.735854351774    -1.169229228798     0.001135363352    31.972071174400
         N           -1.215253648226    -1.097784228798     0.001329363352    14.003074004430
         N            1.410360351774     1.399795771202     0.001188363352    14.003074004430
         C           -0.714788648226     0.155128771202     0.001285363352    12.000000000000
         C            0.744236351774     0.255485771202     0.001210363352    12.000000000000
         C           -1.512784648226     1.307849771202     0.001303363352    12.000000000000
         C           -2.895003648226     1.149740771202     0.001374363352    12.000000000000
         C           -3.430028648226    -0.140547228798     0.001421363352    12.000000000000
         C           -2.552223648226    -1.225410228798     0.001395363352    12.000000000000
         C            3.124699351774    -0.166491228798     0.001078363352    12.000000000000
         C            2.756848351774     1.161102771202     0.001120363352    12.000000000000
         H           -1.038451348226     2.284443271202    -0.198735636648     1.007825032230
         H           -3.547366648226     2.019624771202     0.001391363352     1.007825032230
         H           -4.503825648226    -0.305216228798     0.001476363352     1.007825032230
         H           -2.928682648226    -2.246867228798     0.001429363352     1.007825032230
         H            4.123650351774    -0.583349228798     0.001021363352     1.007825032230
         H            3.447068351774     1.997866771202     0.001099363352     1.007825032230

  Basis Set: AUG-CC-PVTZ
    Blend: AUG-CC-PVTZ
  Basis Set: (AUG-CC-PVTZ AUX)
    Blend: AUG-CC-PVTZ-JKFIT
	 Reference Energy          =    -813.0067517344840553 [Eh]
	 Singles Energy            =      -0.0000000000000000 [Eh]
	 Same-Spin Energy          =      -0.5254870666038134 [Eh]
	 Opposite-Spin Energy      =      -1.5538269637619007 [Eh]
	 Correlation Energy        =      -2.0793140303657140 [Eh]
	 Total Energy              =    -815.0860657648497636 [Eh]

	 ================> DF-SCS-MP2 Energies <==================
	-----------------------------------------------------------
	 SCS Same-Spin Scale       =       0.3333333333333333 [-]
	 SCS Opposite-Spin Scale   =       1.2000000000000000 [-]
	 SCS Same-Spin Energy      =      -0.1751623555346045 [Eh]
	 SCS Opposite-Spin Energy  =      -1.8645923565142808 [Eh]
	 SCS Correlation Energy    =      -2.0397547120488850 [Eh]
	 SCS Total Energy          =    -815.0465064465329306 [Eh]
	-----------------------------------------------------------

  Dipole Moment: [D]
     X:    -0.8069      Y:     0.1754      Z:    -0.1179     Total:     0.8341

*** Psi4 exiting successfully. Buy a developer a beer!
