                               Psi4 1.4a2.dev612

  ==> Input File <==

--------------------------------------------------------------------------
#psi4
#
memory 32 gb

molecule  {
0 1
  S        1.7618360    -1.1877300    -0.0001100
  N       -1.1892720    -1.1162850     0.0000840
  N        1.4363420     1.3812950    -0.0000570
  C       -0.6888070     0.1366280     0.0000400
  C        0.7702180     0.2369850    -0.0000350
  C       -1.4867883     1.2893541     0.3000580
  C       -2.8690220     1.1312400     0.0001290
  C       -3.4040470    -0.1590480     0.0001760
  C       -2.5262420    -1.2439110     0.0001500
  C        3.1506810    -0.1849920    -0.0001670
  C        2.7828300     1.1426020    -0.0001250
  H       -1.0124600     2.2659460     0.0000190
  H       -3.5213850     2.0011240     0.0001460
  H       -4.4778440    -0.3237170     0.0002310
  H       -2.9027010    -2.2653680     0.0001840
  H        4.1496320    -0.6018500    -0.0002240
  H        3.4730500     1.9793660    -0.0001460
units angstrom
no_reorient  #important for SAPT in psi4, default
symmetry c1  #important for SAPT in psi4, default
}

set PROPERTIES_ORIGIN ["COM"]
properties('MP2/aug-cc-pvtz', properties = ['dipole'])
--------------------------------------------------------------------------

    Molecular point group: c1
  Charge       = 0
  Multiplicity = 1
  Basis Set: AUG-CC-PVTZ
    Blend: AUG-CC-PVTZ
  Basis Set: (AUG-CC-PVTZ AUX)
    Blend: AUG-CC-PVTZ-JKFIT

    Orbital Energies [Eh]
    ---------------------

    Doubly Occupied:

       1A    -91.996693     2A    -15.577697     3A    -15.575662
       4A    -11.313919     5A    -11.304308     6A    -11.289340
       7A    -11.273919     8A    -11.270819     9A    -11.266439
      10A    -11.255996    11A    -11.249728    12A     -8.996706
      13A     -6.677466    14A     -6.676917    15A     -6.676255
      16A     -1.287783    17A     -1.260310    18A     -1.092468
      19A     -1.067322    20A     -1.061743    21A     -0.985436
      22A     -0.874112    23A     -0.866702    24A     -0.791258
      25A     -0.765221    26A     -0.705631    27A     -0.677342
      28A     -0.662285    29A     -0.632889    30A     -0.591644
      31A     -0.587518    32A     -0.578536    33A     -0.557138
      34A     -0.535957    35A     -0.521178    36A     -0.502935
      37A     -0.444460    38A     -0.424447    39A     -0.395196
      40A     -0.391509    41A     -0.370661    42A     -0.308056

  @DF-RHF Final Energy:  -812.98161089051064

   => Energetics <=

    Nuclear Repulsion Energy =            625.9003122724986952
    One-Electron Energy =               -2355.0806441821005137
    Two-Electron Energy =                 916.1987210190911810
    Total Energy =                       -812.9816108905106375
  Basis Set: (AUG-CC-PVTZ AUX)
    Blend: AUG-CC-PVTZ-RI
    Molecular point group: c1

    Geometry (in Angstrom), charge = 0, multiplicity = 1:

       Center              X                  Y                   Z               Mass
    ------------   -----------------  -----------------  -----------------  -----------------
         S            1.735853202718    -1.169229628287    -0.022327441971    31.972071174400
         N           -1.215254797282    -1.097784628287    -0.022133441971    14.003074004430
         N            1.410359202718     1.399795371713    -0.022274441971    14.003074004430
         C           -0.714789797282     0.155128371713    -0.022177441971    12.000000000000
         C            0.744235202718     0.255485371713    -0.022252441971    12.000000000000
         C           -1.512771097282     1.307854471713     0.277840558029    12.000000000000
         C           -2.895004797282     1.149740371713    -0.022088441971    12.000000000000
         C           -3.430029797282    -0.140547628287    -0.022041441971    12.000000000000
         C           -2.552224797282    -1.225410628287    -0.022067441971    12.000000000000
         C            3.124698202718    -0.166491628287    -0.022384441971    12.000000000000
         C            2.756847202718     1.161102371713    -0.022342441971    12.000000000000
         H           -1.038442797282     2.284446371713    -0.022198441971     1.007825032230
         H           -3.547367797282     2.019624371713    -0.022071441971     1.007825032230
         H           -4.503826797282    -0.305216628287    -0.021986441971     1.007825032230
         H           -2.928683797282    -2.246867628287    -0.022033441971     1.007825032230
         H            4.123649202718    -0.583349628287    -0.022441441971     1.007825032230
         H            3.447067202718     1.997866371713    -0.022363441971     1.007825032230

  Basis Set: AUG-CC-PVTZ
    Blend: AUG-CC-PVTZ
  Basis Set: (AUG-CC-PVTZ AUX)
    Blend: AUG-CC-PVTZ-JKFIT
	 Reference Energy          =    -812.9816108905106375 [Eh]
	 Singles Energy            =      -0.0000000000000000 [Eh]
	 Same-Spin Energy          =      -0.5264559598170149 [Eh]
	 Opposite-Spin Energy      =      -1.5565347582413547 [Eh]
	 Correlation Energy        =      -2.0829907180583698 [Eh]
	 Total Energy              =    -815.0646016085689780 [Eh]

	 ================> DF-SCS-MP2 Energies <==================
	-----------------------------------------------------------
	 SCS Same-Spin Scale       =       0.3333333333333333 [-]
	 SCS Opposite-Spin Scale   =       1.2000000000000000 [-]
	 SCS Same-Spin Energy      =      -0.1754853199390050 [Eh]
	 SCS Opposite-Spin Energy  =      -1.8678417098896256 [Eh]
	 SCS Correlation Energy    =      -2.0433270298286308 [Eh]
	 SCS Total Energy          =    -815.0249379203393119 [Eh]
	-----------------------------------------------------------

  Dipole Moment: [D]
     X:    -0.7825      Y:     0.0524      Z:    -0.0902     Total:     0.7894

*** Psi4 exiting successfully. Buy a developer a beer!
