                               Psi4 1.4a2.dev612

  ==> Input File <==

--------------------------------------------------------------------------
#psi4
#
memory 32 gb

molecule  {
0 1
  S        1.7618360    -1.1877300    -0.0001100
  N       -1.1892720    -1.1162850     0.0000840
  N        1.4363420     1.3812950    -0.0000570
  C       -0.6887909     0.1366239     0.3000400
  C        0.7702180     0.2369850    -0.0000350
  C       -1.4868030     1.2893490     0.0000580
  C       -2.8690220     1.1312400     0.0001290
  C       -3.4040470    -0.1590480     0.0001760
  C       -2.5262420    -1.2439110     0.0001500
  C        3.1506810    -0.1849920    -0.0001670
  C        2.7828300     1.1426020    -0.0001250
  H       -1.0124600     2.2659460     0.0000190
  H       -3.5213850     2.0011240     0.0001460
  H       -4.4778440    -0.3237170     0.0002310
  H       -2.9027010    -2.2653680     0.0001840
  H        4.1496320    -0.6018500    -0.0002240
  H        3.4730500     1.9793660    -0.0001460
units angstrom
no_reorient  #important for SAPT in psi4, default
symmetry c1  #important for SAPT in psi4, default
}

set PROPERTIES_ORIGIN ["COM"]
properties('MP2/aug-cc-pvtz', properties = ['dipole'])
--------------------------------------------------------------------------

    Molecular point group: c1
  Charge       = 0
  Multiplicity = 1
  Basis Set: AUG-CC-PVTZ
    Blend: AUG-CC-PVTZ
  Basis Set: (AUG-CC-PVTZ AUX)
    Blend: AUG-CC-PVTZ-JKFIT

    Orbital Energies [Eh]
    ---------------------

    Doubly Occupied:

       1A    -91.993178     2A    -15.585576     3A    -15.571409
       4A    -11.315406     5A    -11.304588     6A    -11.284767
       7A    -11.268710     8A    -11.267420     9A    -11.262829
      10A    -11.258873    11A    -11.256245    12A     -8.993378
      13A     -6.674154    14A     -6.673588    15A     -6.672914
      16A     -1.283416    17A     -1.255193    18A     -1.095853
      19A     -1.064453    20A     -1.059781    21A     -0.983843
      22A     -0.875036    23A     -0.862921    24A     -0.788581
      25A     -0.760090    26A     -0.706552    27A     -0.678399
      28A     -0.664274    29A     -0.640612    30A     -0.594211
      31A     -0.585632    32A     -0.575803    33A     -0.556701
      34A     -0.539523    35A     -0.518144    36A     -0.501083
      37A     -0.444096    38A     -0.427345    39A     -0.395796
      40A     -0.387323    41A     -0.368361    42A     -0.305752

  @DF-RHF Final Energy:  -812.97475076908074

   => Energetics <=

    Nuclear Repulsion Energy =            625.5912909129399395
    One-Electron Energy =               -2354.5284669171187488
    Two-Electron Energy =                 915.9624252350980669
    Total Energy =                       -812.9747507690807424
  Basis Set: (AUG-CC-PVTZ AUX)
    Blend: AUG-CC-PVTZ-RI
    Molecular point group: c1

    Geometry (in Angstrom), charge = 0, multiplicity = 1:

       Center              X                  Y                   Z               Mass
    ------------   -----------------  -----------------  -----------------  -----------------
         S            1.735853099031    -1.169228946912    -0.022327441971    31.972071174400
         N           -1.215254900969    -1.097783946912    -0.022133441971    14.003074004430
         N            1.410359099031     1.399796053088    -0.022274441971    14.003074004430
         C           -0.714773800969     0.155124953088     0.277822558029    12.000000000000
         C            0.744235099031     0.255486053088    -0.022252441971    12.000000000000
         C           -1.512785900969     1.307850053088    -0.022159441971    12.000000000000
         C           -2.895004900969     1.149741053088    -0.022088441971    12.000000000000
         C           -3.430029900969    -0.140546946912    -0.022041441971    12.000000000000
         C           -2.552224900969    -1.225409946912    -0.022067441971    12.000000000000
         C            3.124698099031    -0.166490946912    -0.022384441971    12.000000000000
         C            2.756847099031     1.161103053088    -0.022342441971    12.000000000000
         H           -1.038442900969     2.284447053088    -0.022198441971     1.007825032230
         H           -3.547367900969     2.019625053088    -0.022071441971     1.007825032230
         H           -4.503826900969    -0.305215946912    -0.021986441971     1.007825032230
         H           -2.928683900969    -2.246866946912    -0.022033441971     1.007825032230
         H            4.123649099031    -0.583348946912    -0.022441441971     1.007825032230
         H            3.447067099031     1.997867053088    -0.022363441971     1.007825032230

  Basis Set: AUG-CC-PVTZ
    Blend: AUG-CC-PVTZ
  Basis Set: (AUG-CC-PVTZ AUX)
    Blend: AUG-CC-PVTZ-JKFIT
	 Reference Energy          =    -812.9747507690807424 [Eh]
	 Singles Energy            =      -0.0000000000000000 [Eh]
	 Same-Spin Energy          =      -0.5269469819116955 [Eh]
	 Opposite-Spin Energy      =      -1.5577588640640689 [Eh]
	 Correlation Energy        =      -2.0847058459757646 [Eh]
	 Total Energy              =    -815.0594566150565470 [Eh]

	 ================> DF-SCS-MP2 Energies <==================
	-----------------------------------------------------------
	 SCS Same-Spin Scale       =       0.3333333333333333 [-]
	 SCS Opposite-Spin Scale   =       1.2000000000000000 [-]
	 SCS Same-Spin Energy      =      -0.1756489939705652 [Eh]
	 SCS Opposite-Spin Energy  =      -1.8693106368768826 [Eh]
	 SCS Correlation Energy    =      -2.0449596308474476 [Eh]
	 SCS Total Energy          =    -815.0197103999281580 [Eh]
	-----------------------------------------------------------

  Dipole Moment: [D]
     X:    -1.0011      Y:     0.2054      Z:     0.0959     Total:     1.0265

*** Psi4 exiting successfully. Buy a developer a beer!
