                               Psi4 1.4a2.dev612

  ==> Input File <==

--------------------------------------------------------------------------
#psi4
#
memory 32 gb

molecule  {
0 1
  S        1.7618360    -1.1877300    -0.0001100
  N       -1.1892720    -1.1162850     0.0000840
  N        1.4363420     1.3812950    -0.0000570
  C       -0.6888070     0.1366280     0.0000400
  C        0.7702180     0.2369850    -0.0000350
  C       -1.4867932     1.2893524     0.2000580
  C       -2.8690220     1.1312400     0.0001290
  C       -3.4040470    -0.1590480     0.0001760
  C       -2.5262420    -1.2439110     0.0001500
  C        3.1506810    -0.1849920    -0.0001670
  C        2.7828300     1.1426020    -0.0001250
  H       -1.0124600     2.2659460     0.0000190
  H       -3.5213850     2.0011240     0.0001460
  H       -4.4778440    -0.3237170     0.0002310
  H       -2.9027010    -2.2653680     0.0001840
  H        4.1496320    -0.6018500    -0.0002240
  H        3.4730500     1.9793660    -0.0001460
units angstrom
no_reorient  #important for SAPT in psi4, default
symmetry c1  #important for SAPT in psi4, default
}

set PROPERTIES_ORIGIN ["COM"]
properties('MP2/aug-cc-pvtz', properties = ['dipole'])
--------------------------------------------------------------------------

    Molecular point group: c1
  Charge       = 0
  Multiplicity = 1
  Basis Set: AUG-CC-PVTZ
    Blend: AUG-CC-PVTZ
  Basis Set: (AUG-CC-PVTZ AUX)
    Blend: AUG-CC-PVTZ-JKFIT

    Orbital Energies [Eh]
    ---------------------

    Doubly Occupied:

       1A    -91.996132     2A    -15.578322     3A    -15.574919
       4A    -11.313842     5A    -11.300567     6A    -11.287171
       7A    -11.270480     8A    -11.270433     9A    -11.265675
      10A    -11.252759    11A    -11.250593    12A     -8.996156
      13A     -6.676920    14A     -6.676371    15A     -6.675706
      16A     -1.287613    17A     -1.260270    18A     -1.094620
      19A     -1.067853    20A     -1.062189    21A     -0.986042
      22A     -0.875586    23A     -0.868136    24A     -0.791008
      25A     -0.765885    26A     -0.706288    27A     -0.678605
      28A     -0.665884    29A     -0.636554    30A     -0.592806
      31A     -0.587718    32A     -0.580062    33A     -0.557937
      34A     -0.536162    35A     -0.525671    36A     -0.502966
      37A     -0.444318    38A     -0.424663    39A     -0.396990
      40A     -0.392193    41A     -0.371101    42A     -0.307480

  @DF-RHF Final Energy:  -812.99721066010329

   => Energetics <=

    Nuclear Repulsion Energy =            626.4787437852339735
    One-Electron Energy =               -2356.2466147245818320
    Two-Electron Energy =                 916.7706602792445665
    Total Energy =                       -812.9972106601032920
  Basis Set: (AUG-CC-PVTZ AUX)
    Blend: AUG-CC-PVTZ-RI
    Molecular point group: c1

    Geometry (in Angstrom), charge = 0, multiplicity = 1:

       Center              X                  Y                   Z               Mass
    ------------   -----------------  -----------------  -----------------  -----------------
         S            1.735853565625    -1.169229502381    -0.014921185248    31.972071174400
         N           -1.215254434375    -1.097784502381    -0.014727185248    14.003074004430
         N            1.410359565625     1.399795497619    -0.014868185248    14.003074004430
         C           -0.714789434375     0.155128497619    -0.014771185248    12.000000000000
         C            0.744235565625     0.255485497619    -0.014846185248    12.000000000000
         C           -1.512775634375     1.307852897619     0.185246814752    12.000000000000
         C           -2.895004434375     1.149740497619    -0.014682185248    12.000000000000
         C           -3.430029434375    -0.140547502381    -0.014635185248    12.000000000000
         C           -2.552224434375    -1.225410502381    -0.014661185248    12.000000000000
         C            3.124698565625    -0.166491502381    -0.014978185248    12.000000000000
         C            2.756847565625     1.161102497619    -0.014936185248    12.000000000000
         H           -1.038442434375     2.284446497619    -0.014792185248     1.007825032230
         H           -3.547367434375     2.019624497619    -0.014665185248     1.007825032230
         H           -4.503826434375    -0.305216502381    -0.014580185248     1.007825032230
         H           -2.928683434375    -2.246867502381    -0.014627185248     1.007825032230
         H            4.123649565625    -0.583349502381    -0.015035185248     1.007825032230
         H            3.447067565625     1.997866497619    -0.014957185248     1.007825032230

  Basis Set: AUG-CC-PVTZ
    Blend: AUG-CC-PVTZ
  Basis Set: (AUG-CC-PVTZ AUX)
    Blend: AUG-CC-PVTZ-JKFIT
	 Reference Energy          =    -812.9972106601032920 [Eh]
	 Singles Energy            =      -0.0000000000000000 [Eh]
	 Same-Spin Energy          =      -0.5258442263793101 [Eh]
	 Opposite-Spin Energy      =      -1.5546933730126087 [Eh]
	 Correlation Energy        =      -2.0805375993919188 [Eh]
	 Total Energy              =    -815.0777482594952517 [Eh]

	 ================> DF-SCS-MP2 Energies <==================
	-----------------------------------------------------------
	 SCS Same-Spin Scale       =       0.3333333333333333 [-]
	 SCS Opposite-Spin Scale   =       1.2000000000000000 [-]
	 SCS Same-Spin Energy      =      -0.1752814087931033 [Eh]
	 SCS Opposite-Spin Energy  =      -1.8656320476151302 [Eh]
	 SCS Correlation Energy    =      -2.0409134564082336 [Eh]
	 SCS Total Energy          =    -815.0381241165115398 [Eh]
	-----------------------------------------------------------

  Dipole Moment: [D]
     X:    -0.7922      Y:     0.1308      Z:    -0.0558     Total:     0.8048

*** Psi4 exiting successfully. Buy a developer a beer!
