                               Psi4 1.4a2.dev612

  ==> Input File <==

--------------------------------------------------------------------------
#psi4
#
memory 32 gb

molecule  {
0 1
  S        1.7618360    -1.1877300    -0.0001100
  N       -1.1892720    -1.1162850     0.0000840
  N        1.4363420     1.3812950    -0.0000570
  C       -0.6888070     0.1366280     0.0000400
  C        0.7702180     0.2369850    -0.0000350
  C       -1.4868030     1.2893490     0.0000580
  C       -2.8690220     1.1312400     0.0001290
  C       -3.4040470    -0.1590480     0.0001760
  C       -2.5262420    -1.2439110     0.0001500
  C        3.1506810    -0.1849920    -0.0001670
  C        2.7828300     1.1426020    -0.0001250
  H       -1.0124600     2.2659460     0.0000190
  H       -3.5213850     2.0011240     0.0001460
  H       -4.4778440    -0.3237170     0.0002310
  H       -2.9027010    -2.2653680     0.0001840
  H        4.1496294    -0.6018492    -0.0502240
  H        3.4730500     1.9793660    -0.0001460
units angstrom
no_reorient  #important for SAPT in psi4, default
symmetry c1  #important for SAPT in psi4, default
}

set PROPERTIES_ORIGIN ["COM"]
properties('MP2/aug-cc-pvtz', properties = ['dipole'])
--------------------------------------------------------------------------

    Molecular point group: c1
  Charge       = 0
  Multiplicity = 1
  Basis Set: AUG-CC-PVTZ
    Blend: AUG-CC-PVTZ
  Basis Set: (AUG-CC-PVTZ AUX)
    Blend: AUG-CC-PVTZ-JKFIT

    Orbital Energies [Eh]
    ---------------------

    Doubly Occupied:

       1A    -91.995695     2A    -15.578937     3A    -15.574352
       4A    -11.313826     5A    -11.297441     6A    -11.285507
       7A    -11.270176     8A    -11.267594     9A    -11.265151
      10A    -11.251400    11A    -11.249977    12A     -8.995723
      13A     -6.676490    14A     -6.675940    15A     -6.675275
      16A     -1.287534    17A     -1.260307    18A     -1.096567
      19A     -1.068455    20A     -1.062304    21A     -0.986488
      22A     -0.876997    23A     -0.869277    24A     -0.790730
      25A     -0.766602    26A     -0.707149    27A     -0.679986
      28A     -0.668945    29A     -0.639628    30A     -0.593818
      31A     -0.587776    32A     -0.581480    33A     -0.558365
      34A     -0.536010    35A     -0.529309    36A     -0.502902
      37A     -0.444244    38A     -0.424703    39A     -0.398852
      40A     -0.392559    41A     -0.371519    42A     -0.307095

  @DF-RHF Final Energy:  -813.00932990391846

   => Energetics <=

    Nuclear Repulsion Energy =            626.9501094237052712
    One-Electron Energy =               -2357.1927119862812106
    Two-Electron Energy =                 917.2332726586574836
    Total Energy =                       -813.0093299039184558
  Basis Set: (AUG-CC-PVTZ AUX)
    Blend: AUG-CC-PVTZ-RI
    Molecular point group: c1

    Geometry (in Angstrom), charge = 0, multiplicity = 1:

       Center              X                  Y                   Z               Mass
    ------------   -----------------  -----------------  -----------------  -----------------
         S            1.735854307610    -1.169229255545     0.000202336987    31.972071174400
         N           -1.215253692390    -1.097784255545     0.000396336987    14.003074004430
         N            1.410360307610     1.399795744455     0.000255336987    14.003074004430
         C           -0.714788692390     0.155128744455     0.000352336987    12.000000000000
         C            0.744236307610     0.255485744455     0.000277336987    12.000000000000
         C           -1.512784692390     1.307849744455     0.000370336987    12.000000000000
         C           -2.895003692390     1.149740744455     0.000441336987    12.000000000000
         C           -3.430028692390    -0.140547255545     0.000488336987    12.000000000000
         C           -2.552223692390    -1.225410255545     0.000462336987    12.000000000000
         C            3.124699307610    -0.166491255545     0.000145336987    12.000000000000
         C            2.756848307610     1.161102744455     0.000187336987    12.000000000000
         H           -1.038441692390     2.284446744455     0.000331336987     1.007825032230
         H           -3.547366692390     2.019624744455     0.000458336987     1.007825032230
         H           -4.503825692390    -0.305216255545     0.000543336987     1.007825032230
         H           -2.928682692390    -2.246867255545     0.000496336987     1.007825032230
         H            4.123647707610    -0.583348455545    -0.049911663013     1.007825032230
         H            3.447068307610     1.997866744455     0.000166336987     1.007825032230

  Basis Set: AUG-CC-PVTZ
    Blend: AUG-CC-PVTZ
  Basis Set: (AUG-CC-PVTZ AUX)
    Blend: AUG-CC-PVTZ-JKFIT
	 Reference Energy          =    -813.0093299039184558 [Eh]
	 Singles Energy            =      -0.0000000000000000 [Eh]
	 Same-Spin Energy          =      -0.5253531261617324 [Eh]
	 Opposite-Spin Energy      =      -1.5536486890302892 [Eh]
	 Correlation Energy        =      -2.0790018151920213 [Eh]
	 Total Energy              =    -815.0883317191104425 [Eh]

	 ================> DF-SCS-MP2 Energies <==================
	-----------------------------------------------------------
	 SCS Same-Spin Scale       =       0.3333333333333333 [-]
	 SCS Opposite-Spin Scale   =       1.2000000000000000 [-]
	 SCS Same-Spin Energy      =      -0.1751177087205774 [Eh]
	 SCS Opposite-Spin Energy  =      -1.8643784268363470 [Eh]
	 SCS Correlation Energy    =      -2.0394961355569245 [Eh]
	 SCS Total Energy          =    -815.0488260394753297 [Eh]
	-----------------------------------------------------------

  Dipole Moment: [D]
     X:    -0.8013      Y:     0.1958      Z:    -0.0398     Total:     0.8259

*** Psi4 exiting successfully. Buy a developer a beer!
