                               Psi4 1.3.2 release

  ==> Input File <==

--------------------------------------------------------------------------
#psi4
#
memory 32 gb

molecule  {
0 1
  O        0.1794810    -0.4898030     0.0000350
  O       -1.9464530    -0.9505490     0.0000960
  O       -1.3135834     1.2425231    -0.2001270
  C        1.2564470     0.4820050    -0.0000540
  C        2.5435920    -0.3088610     0.0000600
  C       -1.0431930     0.0552410    -0.0000240
  H        1.1578850     1.1159710    -0.8848970
  H        1.1578520     1.1161750     0.8846380
  H        3.3970200     0.3747910    -0.0000030
  H        2.6040770    -0.9424360     0.8871280
  H        2.6041090    -0.9426420    -0.8868570
  H       -2.8175920    -0.5097070     0.0000630
units angstrom
no_reorient  #important for SAPT in psi4, default
symmetry c1  #important for SAPT in psi4, default
}

set PROPERTIES_ORIGIN ["COM"]
properties('MP2/aug-cc-pvtz', properties = ['dipole'])
--------------------------------------------------------------------------

    Molecular point group: c1
  Charge       = 0
  Multiplicity = 1
  Basis Set: AUG-CC-PVTZ
    Blend: AUG-CC-PVTZ
  Basis Set: (AUG-CC-PVTZ AUX)
    Blend: AUG-CC-PVTZ-JKFIT

    Orbital Energies [Eh]
    ---------------------

    Doubly Occupied:

       1A    -20.626834     2A    -20.619095     3A    -20.553540
       4A    -11.445299     5A    -11.299102     6A    -11.230555
       7A     -1.506376     8A     -1.404805     9A     -1.357219
      10A     -1.050021    11A     -0.898000    12A     -0.820209
      13A     -0.744591    14A     -0.716049    15A     -0.704168
      16A     -0.634161    17A     -0.629848    18A     -0.591204
      19A     -0.553616    20A     -0.548338    21A     -0.524359
      22A     -0.495158    23A     -0.476555    24A     -0.472638

  @DF-RHF Final Energy:  -341.84394370789931

   => Energetics <=

    Nuclear Repulsion Energy =            245.6306801275204350
    One-Electron Energy =                -955.1457701115768941
    Two-Electron Energy =                 367.6711462761571170
    Total Energy =                       -341.8439437078993137
  Basis Set: (AUG-CC-PVTZ AUX)
    Blend: AUG-CC-PVTZ-RI
    Molecular point group: c1

    Geometry (in Angstrom), charge = 0, multiplicity = 1:

       Center              X                  Y                   Z               Mass
    ------------   -----------------  -----------------  -----------------  -----------------
         O            0.268608597849    -0.487472439959     0.035567624533    15.994914619570
         O           -1.857325402151    -0.948218439959     0.035628624533    15.994914619570
         O           -1.224455802151     1.244853660041    -0.164594375467    15.994914619570
         C            1.345574597849     0.484335560041     0.035478624533    12.000000000000
         C            2.632719597849    -0.306530439959     0.035592624533    12.000000000000
         C           -0.954065402151     0.057571560041     0.035508624533    12.000000000000
         H            1.247012597849     1.118301560041    -0.849364375467     1.007825032230
         H            1.246979597849     1.118505560041     0.920170624533     1.007825032230
         H            3.486147597849     0.377121560041     0.035529624533     1.007825032230
         H            2.693204597849    -0.940105439959     0.922660624533     1.007825032230
         H            2.693236597849    -0.940311439959    -0.851324375467     1.007825032230
         H           -2.728464402151    -0.507376439959     0.035595624533     1.007825032230

  Basis Set: AUG-CC-PVTZ
    Blend: AUG-CC-PVTZ
  Basis Set: (AUG-CC-PVTZ AUX)
    Blend: AUG-CC-PVTZ-JKFIT
	 Reference Energy          =    -341.8439437078993137 [Eh]
	 Singles Energy            =      -0.0000000000000000 [Eh]
	 Same-Spin Energy          =      -0.3244271071927105 [Eh]
	 Opposite-Spin Energy      =      -1.0080947324536735 [Eh]
	 Correlation Energy        =      -1.3325218396463840 [Eh]
	 Total Energy              =    -343.1764655475457175 [Eh]

	 ================> DF-SCS-MP2 Energies <==================
	-----------------------------------------------------------
	 SCS Same-Spin Scale       =       0.3333333333333333 [-]
	 SCS Opposite-Spin Scale   =       1.2000000000000000 [-]
	 SCS Same-Spin Energy      =      -0.1081423690642368 [Eh]
	 SCS Opposite-Spin Energy  =      -1.2097136789444083 [Eh]
	 SCS Correlation Energy    =      -1.3178560480086452 [Eh]
	 SCS Total Energy          =    -343.1617997559079640 [Eh]
	-----------------------------------------------------------

  Dipole Moment: [D]
     X:     0.9691      Y:    -0.2055      Z:     0.3370     Total:     1.0464

*** Psi4 exiting successfully. Buy a developer a beer!
