                               Psi4 1.3.2 release

  ==> Input File <==

--------------------------------------------------------------------------
#psi4
#
memory 32 gb

molecule  {
0 1
  O        0.1794810    -0.4898030     0.0000350
  O       -1.9464530    -0.9505490     0.0000960
  O       -1.3135838     1.2425181    -0.2501270
  C        1.2564470     0.4820050    -0.0000540
  C        2.5435920    -0.3088610     0.0000600
  C       -1.0431930     0.0552410    -0.0000240
  H        1.1578850     1.1159710    -0.8848970
  H        1.1578520     1.1161750     0.8846380
  H        3.3970200     0.3747910    -0.0000030
  H        2.6040770    -0.9424360     0.8871280
  H        2.6041090    -0.9426420    -0.8868570
  H       -2.8175920    -0.5097070     0.0000630
units angstrom
no_reorient  #important for SAPT in psi4, default
symmetry c1  #important for SAPT in psi4, default
}

set PROPERTIES_ORIGIN ["COM"]
properties('MP2/aug-cc-pvtz', properties = ['dipole'])
--------------------------------------------------------------------------

    Molecular point group: c1
  Charge       = 0
  Multiplicity = 1
  Basis Set: AUG-CC-PVTZ
    Blend: AUG-CC-PVTZ
  Basis Set: (AUG-CC-PVTZ AUX)
    Blend: AUG-CC-PVTZ-JKFIT

    Orbital Energies [Eh]
    ---------------------

    Doubly Occupied:

       1A    -20.627901     2A    -20.620107     3A    -20.553300
       4A    -11.447053     5A    -11.299329     6A    -11.230733
       7A     -1.505746     8A     -1.405481     9A     -1.352363
      10A     -1.050329    11A     -0.898519    12A     -0.820767
      13A     -0.744334    14A     -0.715578    15A     -0.703926
      16A     -0.633788    17A     -0.629703    18A     -0.590204
      19A     -0.553845    20A     -0.548757    21A     -0.524456
      22A     -0.494436    23A     -0.475486    24A     -0.471327

  @DF-RHF Final Energy:  -341.84075906140419

   => Energetics <=

    Nuclear Repulsion Energy =            245.3900913591088226
    One-Electron Energy =                -954.6667638563345690
    Two-Electron Energy =                 367.4359134358215329
    Total Energy =                       -341.8407590614041851
  Basis Set: (AUG-CC-PVTZ AUX)
    Blend: AUG-CC-PVTZ-RI
    Molecular point group: c1

    Geometry (in Angstrom), charge = 0, multiplicity = 1:

       Center              X                  Y                   Z               Mass
    ------------   -----------------  -----------------  -----------------  -----------------
         O            0.268608668912    -0.487471551666     0.044450560031    15.994914619570
         O           -1.857325331088    -0.948217551666     0.044511560031    15.994914619570
         O           -1.224456131088     1.244849548334    -0.205711439969    15.994914619570
         C            1.345574668912     0.484336448334     0.044361560031    12.000000000000
         C            2.632719668912    -0.306529551666     0.044475560031    12.000000000000
         C           -0.954065331088     0.057572448334     0.044391560031    12.000000000000
         H            1.247012668912     1.118302448334    -0.840481439969     1.007825032230
         H            1.246979668912     1.118506448334     0.929053560031     1.007825032230
         H            3.486147668912     0.377122448334     0.044412560031     1.007825032230
         H            2.693204668912    -0.940104551666     0.931543560031     1.007825032230
         H            2.693236668912    -0.940310551666    -0.842441439969     1.007825032230
         H           -2.728464331088    -0.507375551666     0.044478560031     1.007825032230

  Basis Set: AUG-CC-PVTZ
    Blend: AUG-CC-PVTZ
  Basis Set: (AUG-CC-PVTZ AUX)
    Blend: AUG-CC-PVTZ-JKFIT
	 Reference Energy          =    -341.8407590614041851 [Eh]
	 Singles Energy            =      -0.0000000000000000 [Eh]
	 Same-Spin Energy          =      -0.3247032452384943 [Eh]
	 Opposite-Spin Energy      =      -1.0087778597036461 [Eh]
	 Correlation Energy        =      -1.3334811049421404 [Eh]
	 Total Energy              =    -343.1742401663463511 [Eh]

	 ================> DF-SCS-MP2 Energies <==================
	-----------------------------------------------------------
	 SCS Same-Spin Scale       =       0.3333333333333333 [-]
	 SCS Opposite-Spin Scale   =       1.2000000000000000 [-]
	 SCS Same-Spin Energy      =      -0.1082344150794981 [Eh]
	 SCS Opposite-Spin Energy  =      -1.2105334316443752 [Eh]
	 SCS Correlation Energy    =      -1.3187678467238733 [Eh]
	 SCS Total Energy          =    -343.1595269081280435 [Eh]
	-----------------------------------------------------------

  Dipole Moment: [D]
     X:     0.9802      Y:    -0.2335      Z:     0.4225     Total:     1.0926

*** Psi4 exiting successfully. Buy a developer a beer!
