                               Psi4 1.3.2 release

  ==> Input File <==

--------------------------------------------------------------------------
#psi4
#
memory 32 gb

molecule  {
0 1
  O        0.1794810    -0.4898030     0.0000350
  O       -1.9464530    -0.9505490     0.0000960
  O       -1.3135824     1.2425380    -0.0501270
  C        1.2564470     0.4820050    -0.0000540
  C        2.5435920    -0.3088610     0.0000600
  C       -1.0431930     0.0552410    -0.0000240
  H        1.1578850     1.1159710    -0.8848970
  H        1.1578520     1.1161750     0.8846380
  H        3.3970200     0.3747910    -0.0000030
  H        2.6040770    -0.9424360     0.8871280
  H        2.6041090    -0.9426420    -0.8868570
  H       -2.8175920    -0.5097070     0.0000630
units angstrom
no_reorient  #important for SAPT in psi4, default
symmetry c1  #important for SAPT in psi4, default
}

set PROPERTIES_ORIGIN ["COM"]
properties('MP2/aug-cc-pvtz', properties = ['dipole'])
--------------------------------------------------------------------------

    Molecular point group: c1
  Charge       = 0
  Multiplicity = 1
  Basis Set: AUG-CC-PVTZ
    Blend: AUG-CC-PVTZ
  Basis Set: (AUG-CC-PVTZ AUX)
    Blend: AUG-CC-PVTZ-JKFIT

    Orbital Energies [Eh]
    ---------------------

    Doubly Occupied:

       1A    -20.625009     2A    -20.617367     3A    -20.553947
       4A    -11.442257     5A    -11.298717     6A    -11.230253
       7A     -1.507705     8A     -1.403659     9A     -1.365317
      10A     -1.049499    11A     -0.897114    12A     -0.819258
      13A     -0.745137    14A     -0.716959    15A     -0.704656
      16A     -0.634836    17A     -0.630177    18A     -0.592707
      19A     -0.553225    20A     -0.547612    21A     -0.524196
      22A     -0.496724    23A     -0.478318    24A     -0.474539

  @DF-RHF Final Energy:  -341.84895574388156

   => Energetics <=

    Nuclear Repulsion Energy =            246.0403380814126706
    One-Electron Energy =                -955.9602108826551330
    Two-Electron Energy =                 368.0709170573609299
    Total Energy =                       -341.8489557438815609
  Basis Set: (AUG-CC-PVTZ AUX)
    Blend: AUG-CC-PVTZ-RI
    Molecular point group: c1

    Geometry (in Angstrom), charge = 0, multiplicity = 1:

       Center              X                  Y                   Z               Mass
    ------------   -----------------  -----------------  -----------------  -----------------
         O            0.268608420190    -0.487475087074     0.008918818041    15.994914619570
         O           -1.857325579810    -0.948221087074     0.008979818041    15.994914619570
         O           -1.224454979810     1.244865912926    -0.041243181959    15.994914619570
         C            1.345574420190     0.484332912926     0.008829818041    12.000000000000
         C            2.632719420190    -0.306533087074     0.008943818041    12.000000000000
         C           -0.954065579810     0.057568912926     0.008859818041    12.000000000000
         H            1.247012420190     1.118298912926    -0.876013181959     1.007825032230
         H            1.246979420190     1.118502912926     0.893521818041     1.007825032230
         H            3.486147420190     0.377118912926     0.008880818041     1.007825032230
         H            2.693204420190    -0.940108087074     0.896011818041     1.007825032230
         H            2.693236420190    -0.940314087074    -0.877973181959     1.007825032230
         H           -2.728464579810    -0.507379087074     0.008946818041     1.007825032230

  Basis Set: AUG-CC-PVTZ
    Blend: AUG-CC-PVTZ
  Basis Set: (AUG-CC-PVTZ AUX)
    Blend: AUG-CC-PVTZ-JKFIT
	 Reference Energy          =    -341.8489557438815609 [Eh]
	 Singles Energy            =      -0.0000000000000000 [Eh]
	 Same-Spin Energy          =      -0.3239570256775229 [Eh]
	 Opposite-Spin Energy      =      -1.0069455250293535 [Eh]
	 Correlation Energy        =      -1.3309025507068766 [Eh]
	 Total Energy              =    -343.1798582945884277 [Eh]

	 ================> DF-SCS-MP2 Energies <==================
	-----------------------------------------------------------
	 SCS Same-Spin Scale       =       0.3333333333333333 [-]
	 SCS Opposite-Spin Scale   =       1.2000000000000000 [-]
	 SCS Same-Spin Energy      =      -0.1079856752258410 [Eh]
	 SCS Opposite-Spin Energy  =      -1.2083346300352242 [Eh]
	 SCS Correlation Energy    =      -1.3163203052610652 [Eh]
	 SCS Total Energy          =    -343.1652760491426193 [Eh]
	-----------------------------------------------------------

  Dipole Moment: [D]
     X:     0.9502      Y:    -0.1572      Z:     0.0838     Total:     0.9667

*** Psi4 exiting successfully. Buy a developer a beer!
