                               Psi4 1.3.2 release

  ==> Input File <==

--------------------------------------------------------------------------
#psi4
#
memory 32 gb

molecule  {
0 1
  O        0.1794810    -0.4898030     0.0000350
  O       -1.9464530    -0.9505490     0.0000960
  O       -1.3135827     1.2425330    -0.1001270
  C        1.2564470     0.4820050    -0.0000540
  C        2.5435920    -0.3088610     0.0000600
  C       -1.0431930     0.0552410    -0.0000240
  H        1.1578850     1.1159710    -0.8848970
  H        1.1578520     1.1161750     0.8846380
  H        3.3970200     0.3747910    -0.0000030
  H        2.6040770    -0.9424360     0.8871280
  H        2.6041090    -0.9426420    -0.8868570
  H       -2.8175920    -0.5097070     0.0000630
units angstrom
no_reorient  #important for SAPT in psi4, default
symmetry c1  #important for SAPT in psi4, default
}

set PROPERTIES_ORIGIN ["COM"]
properties('MP2/aug-cc-pvtz', properties = ['dipole'])
--------------------------------------------------------------------------

    Molecular point group: c1
  Charge       = 0
  Multiplicity = 1
  Basis Set: AUG-CC-PVTZ
    Blend: AUG-CC-PVTZ
  Basis Set: (AUG-CC-PVTZ AUX)
    Blend: AUG-CC-PVTZ-JKFIT

    Orbital Energies [Eh]
    ---------------------

    Doubly Occupied:

       1A    -20.625379     2A    -20.617717     3A    -20.553865
       4A    -11.442877     5A    -11.298795     6A    -11.230314
       7A     -1.507408     8A     -1.403890     9A     -1.363700
      10A     -1.049604    11A     -0.897293    12A     -0.819450
      13A     -0.745015    14A     -0.716764    15A     -0.704549
      16A     -0.634696    17A     -0.630102    18A     -0.592423
      19A     -0.553304    20A     -0.547760    21A     -0.524229
      22A     -0.496373    23A     -0.477967    24A     -0.474191

  @DF-RHF Final Energy:  -341.84798581166422

   => Energetics <=

    Nuclear Repulsion Energy =            245.9575189377601703
    One-Electron Energy =                -955.7956817240157079
    Two-Electron Energy =                 367.9901769745913498
    Total Energy =                       -341.8479858116642163
  Basis Set: (AUG-CC-PVTZ AUX)
    Blend: AUG-CC-PVTZ-RI
    Molecular point group: c1

    Geometry (in Angstrom), charge = 0, multiplicity = 1:

       Center              X                  Y                   Z               Mass
    ------------   -----------------  -----------------  -----------------  -----------------
         O            0.268608473488    -0.487474198781     0.017801753539    15.994914619570
         O           -1.857325526512    -0.948220198781     0.017862753539    15.994914619570
         O           -1.224455226512     1.244861801219    -0.082360246461    15.994914619570
         C            1.345574473488     0.484333801219     0.017712753539    12.000000000000
         C            2.632719473488    -0.306532198781     0.017826753539    12.000000000000
         C           -0.954065526512     0.057569801219     0.017742753539    12.000000000000
         H            1.247012473488     1.118299801219    -0.867130246461     1.007825032230
         H            1.246979473488     1.118503801219     0.902404753539     1.007825032230
         H            3.486147473488     0.377119801219     0.017763753539     1.007825032230
         H            2.693204473488    -0.940107198781     0.904894753539     1.007825032230
         H            2.693236473488    -0.940313198781    -0.869090246461     1.007825032230
         H           -2.728464526512    -0.507378198781     0.017829753539     1.007825032230

  Basis Set: AUG-CC-PVTZ
    Blend: AUG-CC-PVTZ
  Basis Set: (AUG-CC-PVTZ AUX)
    Blend: AUG-CC-PVTZ-JKFIT
	 Reference Energy          =    -341.8479858116642163 [Eh]
	 Singles Energy            =      -0.0000000000000000 [Eh]
	 Same-Spin Energy          =      -0.3240519692079636 [Eh]
	 Opposite-Spin Energy      =      -1.0071762522519787 [Eh]
	 Correlation Energy        =      -1.3312282214599422 [Eh]
	 Total Energy              =    -343.1792140331241399 [Eh]

	 ================> DF-SCS-MP2 Energies <==================
	-----------------------------------------------------------
	 SCS Same-Spin Scale       =       0.3333333333333333 [-]
	 SCS Opposite-Spin Scale   =       1.2000000000000000 [-]
	 SCS Same-Spin Energy      =      -0.1080173230693212 [Eh]
	 SCS Opposite-Spin Energy  =      -1.2086115027023745 [Eh]
	 SCS Correlation Energy    =      -1.3166288257716956 [Eh]
	 SCS Total Energy          =    -343.1646146374359319 [Eh]
	-----------------------------------------------------------

  Dipole Moment: [D]
     X:     0.9540      Y:    -0.1670      Z:     0.1678     Total:     0.9829

*** Psi4 exiting successfully. Buy a developer a beer!
