                               Psi4 1.3.2 release

  ==> Input File <==

--------------------------------------------------------------------------
#psi4
#
memory 32 gb

molecule  {
0 1
  O        0.1794810    -0.4898030     0.0000350
  O       -1.9464530    -0.9505490     0.0000960
  O       -1.3135831     1.2425281    -0.1501270
  C        1.2564470     0.4820050    -0.0000540
  C        2.5435920    -0.3088610     0.0000600
  C       -1.0431930     0.0552410    -0.0000240
  H        1.1578850     1.1159710    -0.8848970
  H        1.1578520     1.1161750     0.8846380
  H        3.3970200     0.3747910    -0.0000030
  H        2.6040770    -0.9424360     0.8871280
  H        2.6041090    -0.9426420    -0.8868570
  H       -2.8175920    -0.5097070     0.0000630
units angstrom
no_reorient  #important for SAPT in psi4, default
symmetry c1  #important for SAPT in psi4, default
}

set PROPERTIES_ORIGIN ["COM"]
properties('MP2/aug-cc-pvtz', properties = ['dipole'])
--------------------------------------------------------------------------

    Molecular point group: c1
  Charge       = 0
  Multiplicity = 1
  Basis Set: AUG-CC-PVTZ
    Blend: AUG-CC-PVTZ
  Basis Set: (AUG-CC-PVTZ AUX)
    Blend: AUG-CC-PVTZ-JKFIT

    Orbital Energies [Eh]
    ---------------------

    Doubly Occupied:

       1A    -20.625989     2A    -20.618295     3A    -20.553728
       4A    -11.443898     5A    -11.298923     6A    -11.230415
       7A     -1.506950     8A     -1.404273     9A     -1.361000
      10A     -1.049779    11A     -0.897590    12A     -0.819768
      13A     -0.744827    14A     -0.716454    15A     -0.704381
      16A     -0.634468    17A     -0.629987    18A     -0.591931
      19A     -0.553435    20A     -0.548003    21A     -0.524283
      22A     -0.495830    23A     -0.477380    24A     -0.473574

  @DF-RHF Final Energy:  -341.84633201110267

   => Energetics <=

    Nuclear Repulsion Energy =            245.8204769553131257
    One-Electron Energy =                -955.5232941185097388
    Two-Electron Energy =                 367.8564851520939669
    Total Energy =                       -341.8463320111026746
  Basis Set: (AUG-CC-PVTZ AUX)
    Blend: AUG-CC-PVTZ-RI
    Molecular point group: c1

    Geometry (in Angstrom), charge = 0, multiplicity = 1:

       Center              X                  Y                   Z               Mass
    ------------   -----------------  -----------------  -----------------  -----------------
         O            0.268608544551    -0.487473328253     0.026684689036    15.994914619570
         O           -1.857325455449    -0.948219328253     0.026745689036    15.994914619570
         O           -1.224455555449     1.244857771747    -0.123477310964    15.994914619570
         C            1.345574544551     0.484334671747     0.026595689036    12.000000000000
         C            2.632719544551    -0.306531328253     0.026709689036    12.000000000000
         C           -0.954065455449     0.057570671747     0.026625689036    12.000000000000
         H            1.247012544551     1.118300671747    -0.858247310964     1.007825032230
         H            1.246979544551     1.118504671747     0.911287689036     1.007825032230
         H            3.486147544551     0.377120671747     0.026646689036     1.007825032230
         H            2.693204544551    -0.940106328253     0.913777689036     1.007825032230
         H            2.693236544551    -0.940312328253    -0.860207310964     1.007825032230
         H           -2.728464455449    -0.507377328253     0.026712689036     1.007825032230

  Basis Set: AUG-CC-PVTZ
    Blend: AUG-CC-PVTZ
  Basis Set: (AUG-CC-PVTZ AUX)
    Blend: AUG-CC-PVTZ-JKFIT
	 Reference Energy          =    -341.8463320111026746 [Eh]
	 Singles Energy            =      -0.0000000000000000 [Eh]
	 Same-Spin Energy          =      -0.3242092042546220 [Eh]
	 Opposite-Spin Energy      =      -1.0075598933096366 [Eh]
	 Correlation Energy        =      -1.3317690975642584 [Eh]
	 Total Energy              =    -343.1781011086669082 [Eh]

	 ================> DF-SCS-MP2 Energies <==================
	-----------------------------------------------------------
	 SCS Same-Spin Scale       =       0.3333333333333333 [-]
	 SCS Opposite-Spin Scale   =       1.2000000000000000 [-]
	 SCS Same-Spin Energy      =      -0.1080697347515406 [Eh]
	 SCS Opposite-Spin Energy  =      -1.2090718719715638 [Eh]
	 SCS Correlation Energy    =      -1.3171416067231045 [Eh]
	 SCS Total Energy          =    -343.1634736178257867 [Eh]
	-----------------------------------------------------------

  Dipole Moment: [D]
     X:     0.9603      Y:    -0.1832      Z:     0.2521     Total:     1.0096

*** Psi4 exiting successfully. Buy a developer a beer!
