                               Psi4 1.3.2 release

  ==> Input File <==

--------------------------------------------------------------------------
#psi4
#
memory 32 gb

molecule  {
0 1
  O        0.1794810    -0.4898030     0.0000350
  O       -1.9464530    -0.9505490     0.0000960
  O       -1.3135841     1.2425131    -0.3001270
  C        1.2564470     0.4820050    -0.0000540
  C        2.5435920    -0.3088610     0.0000600
  C       -1.0431930     0.0552410    -0.0000240
  H        1.1578850     1.1159710    -0.8848970
  H        1.1578520     1.1161750     0.8846380
  H        3.3970200     0.3747910    -0.0000030
  H        2.6040770    -0.9424360     0.8871280
  H        2.6041090    -0.9426420    -0.8868570
  H       -2.8175920    -0.5097070     0.0000630
units angstrom
no_reorient  #important for SAPT in psi4, default
symmetry c1  #important for SAPT in psi4, default
}

set PROPERTIES_ORIGIN ["COM"]
properties('MP2/aug-cc-pvtz', properties = ['dipole'])
--------------------------------------------------------------------------

    Molecular point group: c1
  Charge       = 0
  Multiplicity = 1
  Basis Set: AUG-CC-PVTZ
    Blend: AUG-CC-PVTZ
  Basis Set: (AUG-CC-PVTZ AUX)
    Blend: AUG-CC-PVTZ-JKFIT

    Orbital Energies [Eh]
    ---------------------

    Doubly Occupied:

       1A    -20.629177     2A    -20.621318     3A    -20.553012
       4A    -11.449125     5A    -11.299602     6A    -11.230948
       7A     -1.505119     8A     -1.406295     9A     -1.346458
      10A     -1.050700    11A     -0.899143    12A     -0.821438
      13A     -0.744083    14A     -0.715071    15A     -0.703674
      16A     -0.633365    17A     -0.629573    18A     -0.588889
      19A     -0.554119    20A     -0.549255    21A     -0.524571
      22A     -0.493747    23A     -0.474168    24A     -0.469586

  @DF-RHF Final Energy:  -341.83671284207190

   => Energetics <=

    Nuclear Repulsion Energy =            245.1011217587632984
    One-Electron Energy =                -954.0907929838485870
    Two-Electron Energy =                 367.1529583830134129
    Total Energy =                       -341.8367128420719041
  Basis Set: (AUG-CC-PVTZ AUX)
    Blend: AUG-CC-PVTZ-RI
    Molecular point group: c1

    Geometry (in Angstrom), charge = 0, multiplicity = 1:

       Center              X                  Y                   Z               Mass
    ------------   -----------------  -----------------  -----------------  -----------------
         O            0.268608722210    -0.487470663372     0.053333495528    15.994914619570
         O           -1.857325277790    -0.948216663372     0.053394495528    15.994914619570
         O           -1.224456377790     1.244845436628    -0.246828504472    15.994914619570
         C            1.345574722210     0.484337336628     0.053244495528    12.000000000000
         C            2.632719722210    -0.306528663372     0.053358495528    12.000000000000
         C           -0.954065277790     0.057573336628     0.053274495528    12.000000000000
         H            1.247012722210     1.118303336628    -0.831598504472     1.007825032230
         H            1.246979722210     1.118507336628     0.937936495528     1.007825032230
         H            3.486147722210     0.377123336628     0.053295495528     1.007825032230
         H            2.693204722210    -0.940103663372     0.940426495528     1.007825032230
         H            2.693236722210    -0.940309663372    -0.833558504472     1.007825032230
         H           -2.728464277790    -0.507374663372     0.053361495528     1.007825032230

  Basis Set: AUG-CC-PVTZ
    Blend: AUG-CC-PVTZ
  Basis Set: (AUG-CC-PVTZ AUX)
    Blend: AUG-CC-PVTZ-JKFIT
	 Reference Energy          =    -341.8367128420719041 [Eh]
	 Singles Energy            =      -0.0000000000000000 [Eh]
	 Same-Spin Energy          =      -0.3250341811577314 [Eh]
	 Opposite-Spin Energy      =      -1.0096046448532743 [Eh]
	 Correlation Energy        =      -1.3346388260110056 [Eh]
	 Total Energy              =    -343.1713516680829343 [Eh]

	 ================> DF-SCS-MP2 Energies <==================
	-----------------------------------------------------------
	 SCS Same-Spin Scale       =       0.3333333333333333 [-]
	 SCS Opposite-Spin Scale   =       1.2000000000000000 [-]
	 SCS Same-Spin Energy      =      -0.1083447270525771 [Eh]
	 SCS Opposite-Spin Energy  =      -1.2115255738239290 [Eh]
	 SCS Correlation Energy    =      -1.3198703008765060 [Eh]
	 SCS Total Energy          =    -343.1565831429484206 [Eh]
	-----------------------------------------------------------

  Dipole Moment: [D]
     X:     0.9935      Y:    -0.2668      Z:     0.5087     Total:     1.1475

*** Psi4 exiting successfully. Buy a developer a beer!
