                               Psi4 1.4a3.dev225

  ==> Input File <==

--------------------------------------------------------------------------
#psi4
#
memory 32 gb

molecule  {
0 1
  O        0.5491460     1.6657540    -0.0835270
  N       -2.2770200    -0.8249540    -0.1044150
  C       -0.0231050     0.3654990    -0.2814520
  C        0.7191899    -0.5731214     0.2868524
  C       -1.4804950     0.3645050     0.1924430
  C        2.2653620    -0.7289500    -0.1466730
  H       -0.0068980     0.2268130    -1.3706510
  H        0.8244310    -0.5451890     1.4596650
  H        0.3655990    -1.6940980     0.2090450
  H       -1.4956300     0.5168070     1.2806640
  H       -1.9758410     1.2324740    -0.2546010
  H        2.8643550    -1.4881460     0.3640660
  H        2.7338870     0.2452880     0.0032600
  H        2.2845280    -0.9484100    -1.2186000
  H       -1.8677700    -1.6459920     0.3360700
  H       -2.2749210    -1.0002390    -1.1082240
  H        0.5361330     1.8319630     0.8766110
units angstrom
no_reorient  #important for SAPT in psi4, default
symmetry c1  #important for SAPT in psi4, default
}

set PROPERTIES_ORIGIN ["COM"]
properties('MP2/aug-cc-pvtz', properties = ['dipole'])
--------------------------------------------------------------------------

    Molecular point group: c1
  Charge       = 0
  Multiplicity = 1
  Basis Set: AUG-CC-PVTZ
    Blend: AUG-CC-PVTZ
  Basis Set: (AUG-CC-PVTZ AUX)
    Blend: AUG-CC-PVTZ-JKFIT

    Orbital Energies [Eh]
    ---------------------

    Doubly Occupied:

       1A    -20.559114     2A    -15.547683     3A    -11.268457
       4A    -11.252077     5A    -11.237271     6A    -11.220605
       7A     -1.364768     8A     -1.185263     9A     -1.076832
      10A     -0.956942    11A     -0.877761    12A     -0.798761
      13A     -0.678447    14A     -0.663293    15A     -0.651957
      16A     -0.645368    17A     -0.574546    18A     -0.555864
      19A     -0.544370    20A     -0.529915    21A     -0.498516
      22A     -0.482544    23A     -0.459874    24A     -0.450753
      25A     -0.387376

  @DF-RHF Final Energy:  -287.23711159146012

   => Energetics <=

    Nuclear Repulsion Energy =            262.2667044951516004
    One-Electron Energy =                -910.0709162996076884
    Two-Electron Energy =                 360.5671002129960243
    Total Energy =                       -287.2371115914601205
  Basis Set: (AUG-CC-PVTZ AUX)
    Blend: AUG-CC-PVTZ-RI
    Molecular point group: c1

    Geometry (in Angstrom), charge = 0, multiplicity = 1:

       Center              X                  Y                   Z               Mass
    ------------   -----------------  -----------------  -----------------  -----------------
         O            0.586491458514     1.610383991439    -0.065540943866    15.994914619570
         N           -2.239674541486    -0.880324008561    -0.086428943866    14.003074004430
         C            0.014240458514     0.310128991439    -0.263465943866    12.000000000000
         C            0.756535358514    -0.628491408561     0.304838456134    12.000000000000
         C           -1.443149541486     0.309134991439     0.210429056134    12.000000000000
         C            2.302707458514    -0.784320008561    -0.128686943866    12.000000000000
         H            0.030447458514     0.171442991439    -1.352664943866     1.007825032230
         H            0.861776458514    -0.600559008561     1.477651056134     1.007825032230
         H            0.402944458514    -1.749468008561     0.227031056134     1.007825032230
         H           -1.458284541486     0.461436991439     1.298650056134     1.007825032230
         H           -1.938495541486     1.177103991439    -0.236614943866     1.007825032230
         H            2.901700458514    -1.543516008561     0.382052056134     1.007825032230
         H            2.771232458514     0.189917991439     0.021246056134     1.007825032230
         H            2.321873458514    -1.003780008561    -1.200613943866     1.007825032230
         H           -1.830424541486    -1.701362008561     0.354056056134     1.007825032230
         H           -2.237575541486    -1.055609008561    -1.090237943866     1.007825032230
         H            0.573478458514     1.776592991439     0.894597056134     1.007825032230

  Basis Set: AUG-CC-PVTZ
    Blend: AUG-CC-PVTZ
  Basis Set: (AUG-CC-PVTZ AUX)
    Blend: AUG-CC-PVTZ-JKFIT
	 Reference Energy          =    -287.2371115914601205 [Eh]
	 Singles Energy            =      -0.0000000000000000 [Eh]
	 Same-Spin Energy          =      -0.2956366011096455 [Eh]
	 Opposite-Spin Energy      =      -1.0059040227084708 [Eh]
	 Correlation Energy        =      -1.3015406238181162 [Eh]
	 Total Energy              =    -288.5386522152782618 [Eh]

	 ================> DF-SCS-MP2 Energies <==================
	-----------------------------------------------------------
	 SCS Same-Spin Scale       =       0.3333333333333333 [-]
	 SCS Opposite-Spin Scale   =       1.2000000000000000 [-]
	 SCS Same-Spin Energy      =      -0.0985455337032151 [Eh]
	 SCS Opposite-Spin Energy  =      -1.2070848272501649 [Eh]
	 SCS Correlation Energy    =      -1.3056303609533799 [Eh]
	 SCS Total Energy          =    -288.5427419524135075 [Eh]
	-----------------------------------------------------------

  Dipole Moment: [D]
     X:     0.7415      Y:    -1.3617      Z:     0.5979     Total:     1.6617

*** Psi4 exiting successfully. Buy a developer a beer!
