                               Psi4 1.4a3.dev225

  ==> Input File <==

--------------------------------------------------------------------------
#psi4
#
memory 32 gb

molecule  {
0 1
  O        0.5491460     1.6657540    -0.0835270
  N       -2.2770200    -0.8249540    -0.1044150
  C       -0.0231050     0.3654990    -0.2814520
  C        0.8312550    -0.7148260     0.3726500
  C       -1.4804950     0.3645050     0.1924430
  C        2.2653620    -0.7289500    -0.1466730
  H       -0.0068980     0.2268130    -1.3706510
  H        0.8244310    -0.5451890     1.4596650
  H        0.3655990    -1.6940980     0.2090450
  H       -1.4956300     0.5168070     1.2806640
  H       -1.9758410     1.2324740    -0.2546010
  H        2.8643550    -1.4881460     0.3640660
  H        2.7338870     0.2452880     0.0032600
  H        2.2845280    -0.9484100    -1.2186000
  H       -1.8878776    -1.6056522     0.3144278
  H       -2.2749210    -1.0002390    -1.1082240
  H        0.5361330     1.8319630     0.8766110
units angstrom
no_reorient  #important for SAPT in psi4, default
symmetry c1  #important for SAPT in psi4, default
}

set PROPERTIES_ORIGIN ["COM"]
properties('MP2/aug-cc-pvtz', properties = ['dipole'])
--------------------------------------------------------------------------

    Molecular point group: c1
  Charge       = 0
  Multiplicity = 1
  Basis Set: AUG-CC-PVTZ
    Blend: AUG-CC-PVTZ
  Basis Set: (AUG-CC-PVTZ AUX)
    Blend: AUG-CC-PVTZ-JKFIT

    Orbital Energies [Eh]
    ---------------------

    Doubly Occupied:

       1A    -20.559065     2A    -15.542033     3A    -11.278245
       4A    -11.250576     5A    -11.227740     6A    -11.214375
       7A     -1.358641     8A     -1.189745     9A     -1.054854
      10A     -0.960210    11A     -0.864106    12A     -0.805422
      13A     -0.683524    14A     -0.658413    15A     -0.645002
      16A     -0.633251    17A     -0.581023    18A     -0.558229
      19A     -0.544015    20A     -0.521095    21A     -0.502413
      22A     -0.488507    23A     -0.481997    24A     -0.453441
      25A     -0.388243

  @DF-RHF Final Energy:  -287.28601718574879

   => Energetics <=

    Nuclear Repulsion Energy =            259.9493664535017388
    One-Electron Energy =                -905.5824359840439683
    Two-Electron Energy =                 358.3470523447934397
    Total Energy =                       -287.2860171857487899
  Basis Set: (AUG-CC-PVTZ AUX)
    Blend: AUG-CC-PVTZ-RI
    Molecular point group: c1

    Geometry (in Angstrom), charge = 0, multiplicity = 1:

       Center              X                  Y                   Z               Mass
    ------------   -----------------  -----------------  -----------------  -----------------
         O            0.571623296935     1.629015828219    -0.076853400933    15.994914619570
         N           -2.254542703065    -0.861692171781    -0.097741400933    14.003074004430
         C           -0.000627703065     0.328760828219    -0.274778400933    12.000000000000
         C            0.853732296935    -0.751564171781     0.379323599067    12.000000000000
         C           -1.458017703065     0.327766828219     0.199116599067    12.000000000000
         C            2.287839296935    -0.765688171781    -0.139999400933    12.000000000000
         H            0.015579296935     0.190074828219    -1.363977400933     1.007825032230
         H            0.846908296935    -0.581927171781     1.466338599067     1.007825032230
         H            0.388076296935    -1.730836171781     0.215718599067     1.007825032230
         H           -1.473152703065     0.480068828219     1.287337599067     1.007825032230
         H           -1.953363703065     1.195735828219    -0.247927400933     1.007825032230
         H            2.886832296935    -1.524884171781     0.370739599067     1.007825032230
         H            2.756364296935     0.208549828219     0.009933599067     1.007825032230
         H            2.307005296935    -0.985148171781    -1.211926400933     1.007825032230
         H           -1.865400303065    -1.642390371781     0.321101399067     1.007825032230
         H           -2.252443703065    -1.036977171781    -1.101550400933     1.007825032230
         H            0.558610296935     1.795224828219     0.883284599067     1.007825032230

  Basis Set: AUG-CC-PVTZ
    Blend: AUG-CC-PVTZ
  Basis Set: (AUG-CC-PVTZ AUX)
    Blend: AUG-CC-PVTZ-JKFIT
	 Reference Energy          =    -287.2860171857487899 [Eh]
	 Singles Energy            =      -0.0000000000000000 [Eh]
	 Same-Spin Energy          =      -0.2925194182129880 [Eh]
	 Opposite-Spin Energy      =      -1.0010165136019484 [Eh]
	 Correlation Energy        =      -1.2935359318149364 [Eh]
	 Total Energy              =    -288.5795531175637052 [Eh]

	 ================> DF-SCS-MP2 Energies <==================
	-----------------------------------------------------------
	 SCS Same-Spin Scale       =       0.3333333333333333 [-]
	 SCS Opposite-Spin Scale   =       1.2000000000000000 [-]
	 SCS Same-Spin Energy      =      -0.0975064727376627 [Eh]
	 SCS Opposite-Spin Energy  =      -1.2012198163223380 [Eh]
	 SCS Correlation Energy    =      -1.2987262890600006 [Eh]
	 SCS Total Energy          =    -288.5847434748088176 [Eh]
	-----------------------------------------------------------

  Dipole Moment: [D]
     X:     0.7196      Y:    -1.2965      Z:     0.6179     Total:     1.6064

*** Psi4 exiting successfully. Buy a developer a beer!
