                               Psi4 1.4a3.dev225

  ==> Input File <==

--------------------------------------------------------------------------
#psi4
#
memory 32 gb

molecule  {
0 1
  O        0.5491460     1.6657540    -0.0835270
  N       -2.2770200    -0.8249540    -0.1044150
  C       -0.0231050     0.3654990    -0.2814520
  C        0.8373854    -0.7345598     0.3894336
  C       -1.4804950     0.3645050     0.1924430
  C        2.2653620    -0.7289500    -0.1466730
  H       -0.0068980     0.2268130    -1.3706510
  H        0.8244310    -0.5451890     1.4596650
  H        0.3655990    -1.6940980     0.2090450
  H       -1.4956300     0.5168070     1.2806640
  H       -1.9758410     1.2324740    -0.2546010
  H        2.8643550    -1.4881460     0.3640660
  H        2.7338870     0.2452880     0.0032600
  H        2.2845280    -0.9484100    -1.2186000
  H       -1.8677700    -1.6459920     0.3360700
  H       -2.2749210    -1.0002390    -1.1082240
  H        0.5361330     1.8319630     0.8766110
units angstrom
no_reorient  #important for SAPT in psi4, default
symmetry c1  #important for SAPT in psi4, default
}

set PROPERTIES_ORIGIN ["COM"]
properties('MP2/aug-cc-pvtz', properties = ['dipole'])
--------------------------------------------------------------------------

    Molecular point group: c1
  Charge       = 0
  Multiplicity = 1
  Basis Set: AUG-CC-PVTZ
    Blend: AUG-CC-PVTZ
  Basis Set: (AUG-CC-PVTZ AUX)
    Blend: AUG-CC-PVTZ-JKFIT

    Orbital Energies [Eh]
    ---------------------

    Doubly Occupied:

       1A    -20.559226     2A    -15.547745     3A    -11.278959
       4A    -11.250382     5A    -11.226474     6A    -11.214079
       7A     -1.358141     8A     -1.182687     9A     -1.052139
      10A     -0.957388    11A     -0.861456    12A     -0.806472
      13A     -0.676279    14A     -0.657770    15A     -0.644952
      16A     -0.630019    17A     -0.581643    18A     -0.555181
      19A     -0.543724    20A     -0.520455    21A     -0.502853
      22A     -0.493113    23A     -0.481904    24A     -0.448802
      25A     -0.386905

  @DF-RHF Final Energy:  -287.28608887171077

   => Energetics <=

    Nuclear Repulsion Energy =            259.3852873506143624
    One-Electron Energy =                -904.5052537006408784
    Two-Electron Energy =                 357.8338774783157419
    Total Energy =                       -287.2860888717107741
  Basis Set: (AUG-CC-PVTZ AUX)
    Blend: AUG-CC-PVTZ-RI
    Molecular point group: c1

    Geometry (in Angstrom), charge = 0, multiplicity = 1:

       Center              X                  Y                   Z               Mass
    ------------   -----------------  -----------------  -----------------  -----------------
         O            0.570570025020     1.632130426362    -0.079359065144    15.994914619570
         N           -2.255595974980    -0.858577573638    -0.100247065144    14.003074004430
         C           -0.001680974980     0.331875426362    -0.277284065144    12.000000000000
         C            0.858809425020    -0.768183373638     0.393601534856    12.000000000000
         C           -1.459070974980     0.330881426362     0.196610934856    12.000000000000
         C            2.286786025020    -0.762573573638    -0.142505065144    12.000000000000
         H            0.014526025020     0.193189426362    -1.366483065144     1.007825032230
         H            0.845855025020    -0.578812573638     1.463832934856     1.007825032230
         H            0.387023025020    -1.727721573638     0.213212934856     1.007825032230
         H           -1.474205974980     0.483183426362     1.284831934856     1.007825032230
         H           -1.954416974980     1.198850426362    -0.250433065144     1.007825032230
         H            2.885779025020    -1.521769573638     0.368233934856     1.007825032230
         H            2.755311025020     0.211664426362     0.007427934856     1.007825032230
         H            2.305952025020    -0.982033573638    -1.214432065144     1.007825032230
         H           -1.846345974980    -1.679615573638     0.340237934856     1.007825032230
         H           -2.253496974980    -1.033862573638    -1.104056065144     1.007825032230
         H            0.557557025020     1.798339426362     0.880778934856     1.007825032230

  Basis Set: AUG-CC-PVTZ
    Blend: AUG-CC-PVTZ
  Basis Set: (AUG-CC-PVTZ AUX)
    Blend: AUG-CC-PVTZ-JKFIT
	 Reference Energy          =    -287.2860888717107741 [Eh]
	 Singles Energy            =      -0.0000000000000000 [Eh]
	 Same-Spin Energy          =      -0.2926501534346618 [Eh]
	 Opposite-Spin Energy      =      -1.0017396896383637 [Eh]
	 Correlation Energy        =      -1.2943898430730254 [Eh]
	 Total Energy              =    -288.5804787147837942 [Eh]

	 ================> DF-SCS-MP2 Energies <==================
	-----------------------------------------------------------
	 SCS Same-Spin Scale       =       0.3333333333333333 [-]
	 SCS Opposite-Spin Scale   =       1.2000000000000000 [-]
	 SCS Same-Spin Energy      =      -0.0975500511448873 [Eh]
	 SCS Opposite-Spin Energy  =      -1.2020876275660364 [Eh]
	 SCS Correlation Energy    =      -1.2996376787109236 [Eh]
	 SCS Total Energy          =    -288.5857265504217253 [Eh]
	-----------------------------------------------------------

  Dipole Moment: [D]
     X:     0.7152      Y:    -1.2897      Z:     0.6307     Total:     1.6039

*** Psi4 exiting successfully. Buy a developer a beer!
