                               Psi4 1.4a3.dev225

  ==> Input File <==

--------------------------------------------------------------------------
#psi4
#
memory 32 gb

molecule  {
0 1
  O        0.5491460     1.6657540    -0.0835270
  N       -2.2770200    -0.8249540    -0.1044150
  C       -0.0231050     0.3654990    -0.2814520
  C        0.8312550    -0.7148260     0.3726500
  C       -1.4884673     0.3609331     0.1671630
  C        2.2653620    -0.7289500    -0.1466730
  H       -0.0068980     0.2268130    -1.3706510
  H        0.8244310    -0.5451890     1.4596650
  H        0.3655990    -1.6940980     0.2090450
  H       -1.4956300     0.5168070     1.2806640
  H       -1.9758410     1.2324740    -0.2546010
  H        2.8643550    -1.4881460     0.3640660
  H        2.7338870     0.2452880     0.0032600
  H        2.2845280    -0.9484100    -1.2186000
  H       -1.8677700    -1.6459920     0.3360700
  H       -2.2749210    -1.0002390    -1.1082240
  H        0.5361330     1.8319630     0.8766110
units angstrom
no_reorient  #important for SAPT in psi4, default
symmetry c1  #important for SAPT in psi4, default
}

set PROPERTIES_ORIGIN ["COM"]
properties('MP2/aug-cc-pvtz', properties = ['dipole'])
--------------------------------------------------------------------------

    Molecular point group: c1
  Charge       = 0
  Multiplicity = 1
  Basis Set: AUG-CC-PVTZ
    Blend: AUG-CC-PVTZ
  Basis Set: (AUG-CC-PVTZ AUX)
    Blend: AUG-CC-PVTZ-JKFIT

    Orbital Energies [Eh]
    ---------------------

    Doubly Occupied:

       1A    -20.559260     2A    -15.548423     3A    -11.277969
       4A    -11.251443     5A    -11.227798     6A    -11.214367
       7A     -1.358507     8A     -1.186932     9A     -1.054263
      10A     -0.957847    11A     -0.862432    12A     -0.804184
      13A     -0.678107    14A     -0.657974    15A     -0.644607
      16A     -0.633560    17A     -0.581421    18A     -0.558989
      19A     -0.542161    20A     -0.518082    21A     -0.501908
      22A     -0.488381    23A     -0.480688    24A     -0.452767
      25A     -0.387997

  @DF-RHF Final Energy:  -287.28560606395996

   => Energetics <=

    Nuclear Repulsion Energy =            259.7607143523486570
    One-Electron Energy =                -905.2325021852277587
    Two-Electron Energy =                 358.1861817689190843
    Total Energy =                       -287.2856060639599605
  Basis Set: (AUG-CC-PVTZ AUX)
    Blend: AUG-CC-PVTZ-RI
    Molecular point group: c1

    Geometry (in Angstrom), charge = 0, multiplicity = 1:

       Center              X                  Y                   Z               Mass
    ------------   -----------------  -----------------  -----------------  -----------------
         O            0.572469718326     1.629953350111    -0.073692920410    15.994914619570
         N           -2.253696281674    -0.860754649889    -0.094580920410    14.003074004430
         C            0.000218718326     0.329698350111    -0.271617920410    12.000000000000
         C            0.854578718326    -0.750626649889     0.382484079590    12.000000000000
         C           -1.465143581674     0.325132450111     0.176997079590    12.000000000000
         C            2.288685718326    -0.764750649889    -0.136838920410    12.000000000000
         H            0.016425718326     0.191012350111    -1.360816920410     1.007825032230
         H            0.847754718326    -0.580989649889     1.469499079590     1.007825032230
         H            0.388922718326    -1.729898649889     0.218879079590     1.007825032230
         H           -1.472306281674     0.481006350111     1.290498079590     1.007825032230
         H           -1.952517281674     1.196673350111    -0.244766920410     1.007825032230
         H            2.887678718326    -1.523946649889     0.373900079590     1.007825032230
         H            2.757210718326     0.209487350111     0.013094079590     1.007825032230
         H            2.307851718326    -0.984210649889    -1.208765920410     1.007825032230
         H           -1.844446281674    -1.681792649889     0.345904079590     1.007825032230
         H           -2.251597281674    -1.036039649889    -1.098389920410     1.007825032230
         H            0.559456718326     1.796162350111     0.886445079590     1.007825032230

  Basis Set: AUG-CC-PVTZ
    Blend: AUG-CC-PVTZ
  Basis Set: (AUG-CC-PVTZ AUX)
    Blend: AUG-CC-PVTZ-JKFIT
	 Reference Energy          =    -287.2856060639599605 [Eh]
	 Singles Energy            =      -0.0000000000000000 [Eh]
	 Same-Spin Energy          =      -0.2928758135941387 [Eh]
	 Opposite-Spin Energy      =      -1.0018620790411803 [Eh]
	 Correlation Energy        =      -1.2947378926353190 [Eh]
	 Total Energy              =    -288.5803439565952999 [Eh]

	 ================> DF-SCS-MP2 Energies <==================
	-----------------------------------------------------------
	 SCS Same-Spin Scale       =       0.3333333333333333 [-]
	 SCS Opposite-Spin Scale   =       1.2000000000000000 [-]
	 SCS Same-Spin Energy      =      -0.0976252711980462 [Eh]
	 SCS Opposite-Spin Energy  =      -1.2022344948494164 [Eh]
	 SCS Correlation Energy    =      -1.2998597660474627 [Eh]
	 SCS Total Energy          =    -288.5854658300074220 [Eh]
	-----------------------------------------------------------

  Dipole Moment: [D]
     X:     0.6985      Y:    -1.3243      Z:     0.5991     Total:     1.6127

*** Psi4 exiting successfully. Buy a developer a beer!
