                               Psi4 1.4a3.dev225

  ==> Input File <==

--------------------------------------------------------------------------
#psi4
#
memory 32 gb

molecule  {
0 1
  O        0.5491460     1.6657540    -0.0835270
  N       -2.2770200    -0.8249540    -0.1044150
  C       -0.0231050     0.3654990    -0.2814520
  C        0.8312550    -0.7148260     0.3726500
  C       -1.4804950     0.3645050     0.1924430
  C        2.2653620    -0.7289500    -0.1466730
  H       -0.0068980     0.2268130    -1.3706510
  H        0.8244310    -0.5451890     1.4596650
  H        0.3655990    -1.6940980     0.2090450
  H       -1.4956300     0.5168070     1.2806640
  H       -1.9532183     1.1928335    -0.2341843
  H        2.8643550    -1.4881460     0.3640660
  H        2.7338870     0.2452880     0.0032600
  H        2.2845280    -0.9484100    -1.2186000
  H       -1.8677700    -1.6459920     0.3360700
  H       -2.2749210    -1.0002390    -1.1082240
  H        0.5361330     1.8319630     0.8766110
units angstrom
no_reorient  #important for SAPT in psi4, default
symmetry c1  #important for SAPT in psi4, default
}

set PROPERTIES_ORIGIN ["COM"]
properties('MP2/aug-cc-pvtz', properties = ['dipole'])
--------------------------------------------------------------------------

    Molecular point group: c1
  Charge       = 0
  Multiplicity = 1
  Basis Set: AUG-CC-PVTZ
    Blend: AUG-CC-PVTZ
  Basis Set: (AUG-CC-PVTZ AUX)
    Blend: AUG-CC-PVTZ-JKFIT

    Orbital Energies [Eh]
    ---------------------

    Doubly Occupied:

       1A    -20.559105     2A    -15.547252     3A    -11.277735
       4A    -11.244602     5A    -11.227233     6A    -11.214067
       7A     -1.358681     8A     -1.183192     9A     -1.053955
      10A     -0.959935    11A     -0.866076    12A     -0.805468
      13A     -0.679031    14A     -0.658076    15A     -0.644263
      16A     -0.631967    17A     -0.581579    18A     -0.558518
      19A     -0.543877    20A     -0.520713    21A     -0.505196
      22A     -0.488160    23A     -0.481417    24A     -0.453473
      25A     -0.387609

  @DF-RHF Final Energy:  -287.28568326109246

   => Energetics <=

    Nuclear Repulsion Energy =            259.9571653087882623
    One-Electron Energy =                -905.6233376878931267
    Two-Electron Energy =                 358.3804891180124059
    Total Energy =                       -287.2856832610924585
  Basis Set: (AUG-CC-PVTZ AUX)
    Blend: AUG-CC-PVTZ-RI
    Molecular point group: c1

    Geometry (in Angstrom), charge = 0, multiplicity = 1:

       Center              X                  Y                   Z               Mass
    ------------   -----------------  -----------------  -----------------  -----------------
         O            0.571139880889     1.629920660630    -0.077329221302    15.994914619570
         N           -2.255026119111    -0.860787339370    -0.098217221302    14.003074004430
         C           -0.001111119111     0.329665660630    -0.275254221302    12.000000000000
         C            0.853248880889    -0.750659339370     0.378847778698    12.000000000000
         C           -1.458501119111     0.328671660630     0.198640778698    12.000000000000
         C            2.287355880889    -0.764783339370    -0.140475221302    12.000000000000
         H            0.015095880889     0.190979660630    -1.364453221302     1.007825032230
         H            0.846424880889    -0.581022339370     1.465862778698     1.007825032230
         H            0.387592880889    -1.729931339370     0.215242778698     1.007825032230
         H           -1.473636119111     0.480973660630     1.286861778698     1.007825032230
         H           -1.931224419111     1.157000160630    -0.227986521302     1.007825032230
         H            2.886348880889    -1.523979339370     0.370263778698     1.007825032230
         H            2.755880880889     0.209454660630     0.009457778698     1.007825032230
         H            2.306521880889    -0.984243339370    -1.212402221302     1.007825032230
         H           -1.845776119111    -1.681825339370     0.342267778698     1.007825032230
         H           -2.252927119111    -1.036072339370    -1.102026221302     1.007825032230
         H            0.558126880889     1.796129660630     0.882808778698     1.007825032230

  Basis Set: AUG-CC-PVTZ
    Blend: AUG-CC-PVTZ
  Basis Set: (AUG-CC-PVTZ AUX)
    Blend: AUG-CC-PVTZ-JKFIT
	 Reference Energy          =    -287.2856832610924585 [Eh]
	 Singles Energy            =      -0.0000000000000000 [Eh]
	 Same-Spin Energy          =      -0.2927383629703058 [Eh]
	 Opposite-Spin Energy      =      -1.0014958041691204 [Eh]
	 Correlation Energy        =      -1.2942341671394262 [Eh]
	 Total Energy              =    -288.5799174282319086 [Eh]

	 ================> DF-SCS-MP2 Energies <==================
	-----------------------------------------------------------
	 SCS Same-Spin Scale       =       0.3333333333333333 [-]
	 SCS Opposite-Spin Scale   =       1.2000000000000000 [-]
	 SCS Same-Spin Energy      =      -0.0975794543234353 [Eh]
	 SCS Opposite-Spin Energy  =      -1.2017949650029445 [Eh]
	 SCS Correlation Energy    =      -1.2993744193263796 [Eh]
	 SCS Total Energy          =    -288.5850576804188563 [Eh]
	-----------------------------------------------------------

  Dipole Moment: [D]
     X:     0.7064      Y:    -1.2760      Z:     0.6225     Total:     1.5857

*** Psi4 exiting successfully. Buy a developer a beer!
