                               Psi4 1.4a3.dev225

  ==> Input File <==

--------------------------------------------------------------------------
#psi4
#
memory 32 gb

molecule  {
0 1
  O        0.5491460     1.6657540    -0.0835270
  N       -2.2770200    -0.8249540    -0.1044150
  C       -0.0231050     0.3654990    -0.2814520
  C        0.8312550    -0.7148260     0.3726500
  C       -1.4804950     0.3645050     0.1924430
  C        2.2653620    -0.7289500    -0.1466730
  H       -0.0068980     0.2268130    -1.3706510
  H        0.8244310    -0.5451890     1.4596650
  H        0.3655990    -1.6940980     0.2090450
  H       -1.4956300     0.5168070     1.2806640
  H       -1.9984637     1.2721145    -0.2750177
  H        2.8643550    -1.4881460     0.3640660
  H        2.7338870     0.2452880     0.0032600
  H        2.2845280    -0.9484100    -1.2186000
  H       -1.8677700    -1.6459920     0.3360700
  H       -2.2749210    -1.0002390    -1.1082240
  H        0.5361330     1.8319630     0.8766110
units angstrom
no_reorient  #important for SAPT in psi4, default
symmetry c1  #important for SAPT in psi4, default
}

set PROPERTIES_ORIGIN ["COM"]
properties('MP2/aug-cc-pvtz', properties = ['dipole'])
--------------------------------------------------------------------------

    Molecular point group: c1
  Charge       = 0
  Multiplicity = 1
  Basis Set: AUG-CC-PVTZ
    Blend: AUG-CC-PVTZ
  Basis Set: (AUG-CC-PVTZ AUX)
    Blend: AUG-CC-PVTZ-JKFIT

    Orbital Energies [Eh]
    ---------------------

    Doubly Occupied:

       1A    -20.558959     2A    -15.548383     3A    -11.278676
       4A    -11.256700     5A    -11.228046     6A    -11.214599
       7A     -1.358533     8A     -1.182819     9A     -1.054593
      10A     -0.956803    11A     -0.860011    12A     -0.804958
      13A     -0.674270    14A     -0.658210    15A     -0.644533
      16A     -0.632400    17A     -0.580503    18A     -0.553467
      19A     -0.542925    20A     -0.521355    21A     -0.498617
      22A     -0.488686    23A     -0.480687    24A     -0.453141
      25A     -0.387743

  @DF-RHF Final Energy:  -287.28436069881752

   => Energetics <=

    Nuclear Repulsion Energy =            259.4793118310931277
    One-Electron Energy =                -904.6881116599198549
    Two-Electron Energy =                 357.9244391300092047
    Total Energy =                       -287.2843606988175225
  Basis Set: (AUG-CC-PVTZ AUX)
    Blend: AUG-CC-PVTZ-RI
    Molecular point group: c1

    Geometry (in Angstrom), charge = 0, multiplicity = 1:

       Center              X                  Y                   Z               Mass
    ------------   -----------------  -----------------  -----------------  -----------------
         O            0.571651750742     1.629023739533    -0.076867265248    15.994914619570
         N           -2.254514249258    -0.861684260467    -0.097755265248    14.003074004430
         C           -0.000599249258     0.328768739533    -0.274792265248    12.000000000000
         C            0.853760750742    -0.751556260467     0.379309734752    12.000000000000
         C           -1.457989249258     0.327774739533     0.199102734752    12.000000000000
         C            2.287867750742    -0.765680260467    -0.140013265248    12.000000000000
         H            0.015607750742     0.190082739533    -1.363991265248     1.007825032230
         H            0.846936750742    -0.581919260467     1.466324734752     1.007825032230
         H            0.388104750742    -1.730828260467     0.215704734752     1.007825032230
         H           -1.473124249258     0.480076739533     1.287323734752     1.007825032230
         H           -1.975957949258     1.235384239533    -0.268357965248     1.007825032230
         H            2.886860750742    -1.524876260467     0.370725734752     1.007825032230
         H            2.756392750742     0.208557739533     0.009919734752     1.007825032230
         H            2.307033750742    -0.985140260467    -1.211940265248     1.007825032230
         H           -1.845264249258    -1.682722260467     0.342729734752     1.007825032230
         H           -2.252415249258    -1.036969260467    -1.101564265248     1.007825032230
         H            0.558638750742     1.795232739533     0.883270734752     1.007825032230

  Basis Set: AUG-CC-PVTZ
    Blend: AUG-CC-PVTZ
  Basis Set: (AUG-CC-PVTZ AUX)
    Blend: AUG-CC-PVTZ-JKFIT
	 Reference Energy          =    -287.2843606988175225 [Eh]
	 Singles Energy            =      -0.0000000000000000 [Eh]
	 Same-Spin Energy          =      -0.2928181027293124 [Eh]
	 Opposite-Spin Energy      =      -1.0021908478502612 [Eh]
	 Correlation Energy        =      -1.2950089505795737 [Eh]
	 Total Energy              =    -288.5793696493971083 [Eh]

	 ================> DF-SCS-MP2 Energies <==================
	-----------------------------------------------------------
	 SCS Same-Spin Scale       =       0.3333333333333333 [-]
	 SCS Opposite-Spin Scale   =       1.2000000000000000 [-]
	 SCS Same-Spin Energy      =      -0.0976060342431041 [Eh]
	 SCS Opposite-Spin Energy  =      -1.2026290174203134 [Eh]
	 SCS Correlation Energy    =      -1.3002350516634176 [Eh]
	 SCS Total Energy          =    -288.5845957504809576 [Eh]
	-----------------------------------------------------------

  Dipole Moment: [D]
     X:     0.7359      Y:    -1.3296      Z:     0.6336     Total:     1.6464

*** Psi4 exiting successfully. Buy a developer a beer!
