                               Psi4 1.4a3.dev225

  ==> Input File <==

--------------------------------------------------------------------------
#psi4
#
memory 32 gb

molecule  {
0 1
  O        0.5491460     1.6657540    -0.0835270
  N       -2.2770200    -0.8249540    -0.1044150
  C       -0.0231050     0.3654990    -0.2814520
  C        0.8312550    -0.7148260     0.3726500
  C       -1.4804950     0.3645050     0.1924430
  C        2.2653620    -0.7289500    -0.1466730
  H       -0.0068980     0.2268130    -1.3706510
  H        0.8244310    -0.5451890     1.4596650
  H        0.3655990    -1.6940980     0.2090450
  H       -1.4956300     0.5168070     1.2806640
  H       -1.9758410     1.2324740    -0.2546010
  H        2.8643550    -1.4881460     0.3640660
  H        2.7338870     0.2452880     0.0032600
  H        2.2845280    -0.9484100    -1.2186000
  H       -1.8677700    -1.6459920     0.3360700
  H       -2.2749210    -1.0002390    -1.1082240
  H        0.5374683     1.8149073     0.7780853
units angstrom
no_reorient  #important for SAPT in psi4, default
symmetry c1  #important for SAPT in psi4, default
}

set PROPERTIES_ORIGIN ["COM"]
properties('MP2/aug-cc-pvtz', properties = ['dipole'])
--------------------------------------------------------------------------

    Molecular point group: c1
  Charge       = 0
  Multiplicity = 1
  Basis Set: AUG-CC-PVTZ
    Blend: AUG-CC-PVTZ
  Basis Set: (AUG-CC-PVTZ AUX)
    Blend: AUG-CC-PVTZ-JKFIT

    Orbital Energies [Eh]
    ---------------------

    Doubly Occupied:

       1A    -20.548600     2A    -15.548249     3A    -11.278924
       4A    -11.251276     5A    -11.228162     6A    -11.214743
       7A     -1.383937     8A     -1.183843     9A     -1.057299
      10A     -0.961497    11A     -0.863764    12A     -0.814355
      13A     -0.677783    14A     -0.672521    15A     -0.645734
      16A     -0.634066    17A     -0.581714    18A     -0.556821
      19A     -0.548013    20A     -0.522020    21A     -0.503149
      22A     -0.489018    23A     -0.482937    24A     -0.455105
      25A     -0.388522

  @DF-RHF Final Energy:  -287.28174921050385

   => Energetics <=

    Nuclear Repulsion Energy =            260.3379972360186230
    One-Electron Energy =                -906.2553882201605120
    Two-Electron Energy =                 358.6356417736380422
    Total Energy =                       -287.2817492105038468
  Basis Set: (AUG-CC-PVTZ AUX)
    Blend: AUG-CC-PVTZ-RI
    Molecular point group: c1

    Geometry (in Angstrom), charge = 0, multiplicity = 1:

       Center              X                  Y                   Z               Mass
    ------------   -----------------  -----------------  -----------------  -----------------
         O            0.571380709311     1.629665154474    -0.075983603211    15.994914619570
         N           -2.254785290689    -0.861042845526    -0.096871603211    14.003074004430
         C           -0.000870290689     0.329410154474    -0.273908603211    12.000000000000
         C            0.853489709311    -0.750914845526     0.380193396789    12.000000000000
         C           -1.458260290689     0.328416154474     0.199986396789    12.000000000000
         C            2.287596709311    -0.765038845526    -0.139129603211    12.000000000000
         H            0.015336709311     0.190724154474    -1.363107603211     1.007825032230
         H            0.846665709311    -0.581277845526     1.467208396789     1.007825032230
         H            0.387833709311    -1.730186845526     0.216588396789     1.007825032230
         H           -1.473395290689     0.480718154474     1.288207396789     1.007825032230
         H           -1.953606290689     1.196385154474    -0.247057603211     1.007825032230
         H            2.886589709311    -1.524234845526     0.371609396789     1.007825032230
         H            2.756121709311     0.209199154474     0.010803396789     1.007825032230
         H            2.306762709311    -0.984498845526    -1.211056603211     1.007825032230
         H           -1.845535290689    -1.682080845526     0.343613396789     1.007825032230
         H           -2.252686290689    -1.036327845526    -1.100680603211     1.007825032230
         H            0.559703009311     1.778818454474     0.785628696789     1.007825032230

  Basis Set: AUG-CC-PVTZ
    Blend: AUG-CC-PVTZ
  Basis Set: (AUG-CC-PVTZ AUX)
    Blend: AUG-CC-PVTZ-JKFIT
	 Reference Energy          =    -287.2817492105038468 [Eh]
	 Singles Energy            =      -0.0000000000000000 [Eh]
	 Same-Spin Energy          =      -0.2915604130642092 [Eh]
	 Opposite-Spin Energy      =      -0.9988485899643620 [Eh]
	 Correlation Energy        =      -1.2904090030285711 [Eh]
	 Total Energy              =    -288.5721582135324184 [Eh]

	 ================> DF-SCS-MP2 Energies <==================
	-----------------------------------------------------------
	 SCS Same-Spin Scale       =       0.3333333333333333 [-]
	 SCS Opposite-Spin Scale   =       1.2000000000000000 [-]
	 SCS Same-Spin Energy      =      -0.0971868043547364 [Eh]
	 SCS Opposite-Spin Energy  =      -1.1986183079572343 [Eh]
	 SCS Correlation Energy    =      -1.2958051123119707 [Eh]
	 SCS Total Energy          =    -288.5775543228158426 [Eh]
	-----------------------------------------------------------

  Dipole Moment: [D]
     X:     0.7093      Y:    -1.3401      Z:     0.5713     Total:     1.6203

*** Psi4 exiting successfully. Buy a developer a beer!
