                               Psi4 1.4a3.dev225

  ==> Input File <==

--------------------------------------------------------------------------
#psi4
#
memory 32 gb

molecule  {
0 1
  O        0.5491460     1.6657540    -0.0835270
  N       -2.2770200    -0.8249540    -0.1044150
  C       -0.0231050     0.3654990    -0.2814520
  C        0.8312550    -0.7148260     0.3726500
  C       -1.5755937     0.3644401     0.2233660
  C        2.2653620    -0.7289500    -0.1466730
  H       -0.0068980     0.2268130    -1.3706510
  H        0.8244310    -0.5451890     1.4596650
  H        0.3655990    -1.6940980     0.2090450
  H       -1.4956300     0.5168070     1.2806640
  H       -1.9758410     1.2324740    -0.2546010
  H        2.8643550    -1.4881460     0.3640660
  H        2.7338870     0.2452880     0.0032600
  H        2.2845280    -0.9484100    -1.2186000
  H       -1.8677700    -1.6459920     0.3360700
  H       -2.2749210    -1.0002390    -1.1082240
  H        0.5361330     1.8319630     0.8766110
units angstrom
no_reorient  #important for SAPT in psi4, default
symmetry c1  #important for SAPT in psi4, default
}

set PROPERTIES_ORIGIN ["COM"]
properties('MP2/aug-cc-pvtz', properties = ['dipole'])
--------------------------------------------------------------------------

    Molecular point group: c1
  Charge       = 0
  Multiplicity = 1
  Basis Set: AUG-CC-PVTZ
    Blend: AUG-CC-PVTZ
  Basis Set: (AUG-CC-PVTZ AUX)
    Blend: AUG-CC-PVTZ-JKFIT

    Orbital Energies [Eh]
    ---------------------

    Doubly Occupied:

       1A    -20.557161     2A    -15.546723     3A    -11.277490
       4A    -11.250084     5A    -11.226157     6A    -11.213250
       7A     -1.354848     8A     -1.192178     9A     -1.050305
      10A     -0.945088    11A     -0.866019    12A     -0.803637
      13A     -0.682383    14A     -0.652135    15A     -0.641617
      16A     -0.631801    17A     -0.583346    18A     -0.562386
      19A     -0.543777    20A     -0.524399    21A     -0.507204
      22A     -0.486958    23A     -0.479981    24A     -0.453822
      25A     -0.367368

  @DF-RHF Final Energy:  -287.27939025698305

   => Energetics <=

    Nuclear Repulsion Energy =            258.6917178240925068
    One-Electron Energy =                -903.1419806398336050
    Two-Electron Energy =                 357.1708725587580489
    Total Energy =                       -287.2793902569830493
  Basis Set: (AUG-CC-PVTZ AUX)
    Blend: AUG-CC-PVTZ-RI
    Molecular point group: c1

    Geometry (in Angstrom), charge = 0, multiplicity = 1:

       Center              X                  Y                   Z               Mass
    ------------   -----------------  -----------------  -----------------  -----------------
         O            0.584206012713     1.629480942386    -0.081263702095    15.994914619570
         N           -2.241959987287    -0.861227057614    -0.102151702095    14.003074004430
         C            0.011955012713     0.329225942386    -0.279188702095    12.000000000000
         C            0.866315012713    -0.751099057614     0.374913297905    12.000000000000
         C           -1.540533687287     0.328167042386     0.225629297905    12.000000000000
         C            2.300422012713    -0.765223057614    -0.144409702095    12.000000000000
         H            0.028162012713     0.190539942386    -1.368387702095     1.007825032230
         H            0.859491012713    -0.581462057614     1.461928297905     1.007825032230
         H            0.400659012713    -1.730371057614     0.211308297905     1.007825032230
         H           -1.460569987287     0.480533942386     1.282927297905     1.007825032230
         H           -1.940780987287     1.196200942386    -0.252337702095     1.007825032230
         H            2.899415012713    -1.524419057614     0.366329297905     1.007825032230
         H            2.768947012713     0.209014942386     0.005523297905     1.007825032230
         H            2.319588012713    -0.984683057614    -1.216336702095     1.007825032230
         H           -1.832709987287    -1.682265057614     0.338333297905     1.007825032230
         H           -2.239860987287    -1.036512057614    -1.105960702095     1.007825032230
         H            0.571193012713     1.795689942386     0.878874297905     1.007825032230

  Basis Set: AUG-CC-PVTZ
    Blend: AUG-CC-PVTZ
  Basis Set: (AUG-CC-PVTZ AUX)
    Blend: AUG-CC-PVTZ-JKFIT
	 Reference Energy          =    -287.2793902569830493 [Eh]
	 Singles Energy            =      -0.0000000000000000 [Eh]
	 Same-Spin Energy          =      -0.2927724174496744 [Eh]
	 Opposite-Spin Energy      =      -1.0017290976434894 [Eh]
	 Correlation Energy        =      -1.2945015150931638 [Eh]
	 Total Energy              =    -288.5738917720761947 [Eh]

	 ================> DF-SCS-MP2 Energies <==================
	-----------------------------------------------------------
	 SCS Same-Spin Scale       =       0.3333333333333333 [-]
	 SCS Opposite-Spin Scale   =       1.2000000000000000 [-]
	 SCS Same-Spin Energy      =      -0.0975908058165581 [Eh]
	 SCS Opposite-Spin Energy  =      -1.2020749171721872 [Eh]
	 SCS Correlation Energy    =      -1.2996657229887454 [Eh]
	 SCS Total Energy          =    -288.5790559799717698 [Eh]
	-----------------------------------------------------------

  Dipole Moment: [D]
     X:     0.5983      Y:    -1.3310      Z:     0.6477     Total:     1.5965

*** Psi4 exiting successfully. Buy a developer a beer!
