                               Psi4 1.4a3.dev225

  ==> Input File <==

--------------------------------------------------------------------------
#psi4
#
memory 32 gb

molecule  {
0 1
  O        0.5491460     1.6657540    -0.0835270
  N       -2.2770200    -0.8249540    -0.1044150
  C       -0.0057750     0.3839065    -0.2731443
  C        0.8312550    -0.7148260     0.3726500
  C       -1.4804950     0.3645050     0.1924430
  C        2.2653620    -0.7289500    -0.1466730
  H       -0.0068980     0.2268130    -1.3706510
  H        0.8244310    -0.5451890     1.4596650
  H        0.3655990    -1.6940980     0.2090450
  H       -1.4956300     0.5168070     1.2806640
  H       -1.9758410     1.2324740    -0.2546010
  H        2.8643550    -1.4881460     0.3640660
  H        2.7338870     0.2452880     0.0032600
  H        2.2845280    -0.9484100    -1.2186000
  H       -1.8677700    -1.6459920     0.3360700
  H       -2.2749210    -1.0002390    -1.1082240
  H        0.5361330     1.8319630     0.8766110
units angstrom
no_reorient  #important for SAPT in psi4, default
symmetry c1  #important for SAPT in psi4, default
}

set PROPERTIES_ORIGIN ["COM"]
properties('MP2/aug-cc-pvtz', properties = ['dipole'])
--------------------------------------------------------------------------

    Molecular point group: c1
  Charge       = 0
  Multiplicity = 1
  Basis Set: AUG-CC-PVTZ
    Blend: AUG-CC-PVTZ
  Basis Set: (AUG-CC-PVTZ AUX)
    Blend: AUG-CC-PVTZ-JKFIT

    Orbital Energies [Eh]
    ---------------------

    Doubly Occupied:

       1A    -20.562238     2A    -15.547592     3A    -11.278214
       4A    -11.250127     5A    -11.226904     6A    -11.213985
       7A     -1.368930     8A     -1.181524     9A     -1.053635
      10A     -0.955531    11A     -0.861867    12A     -0.806317
      13A     -0.676158    14A     -0.661232    15A     -0.646402
      16A     -0.634279    17A     -0.580578    18A     -0.557347
      19A     -0.543009    20A     -0.521492    21A     -0.502768
      22A     -0.488830    23A     -0.479138    24A     -0.452281
      25A     -0.384884

  @DF-RHF Final Energy:  -287.28616071305538

   => Energetics <=

    Nuclear Repulsion Energy =            259.8223379257906913
    One-Electron Energy =                -905.3464712506776095
    Two-Electron Energy =                 358.2379726118314807
    Total Energy =                       -287.2861607130553807
  Basis Set: (AUG-CC-PVTZ AUX)
    Blend: AUG-CC-PVTZ-RI
    Molecular point group: c1

    Geometry (in Angstrom), charge = 0, multiplicity = 1:

       Center              X                  Y                   Z               Mass
    ------------   -----------------  -----------------  -----------------  -----------------
         O            0.569061391557     1.626992632018    -0.078217325584    15.994914619570
         N           -2.257104608443    -0.863715367982    -0.099105325584    14.003074004430
         C            0.014140391557     0.345145132018    -0.267834625584    12.000000000000
         C            0.851170391557    -0.753587367982     0.377959674416    12.000000000000
         C           -1.460579608443     0.325743632018     0.197752674416    12.000000000000
         C            2.285277391557    -0.767711367982    -0.141363325584    12.000000000000
         H            0.013017391557     0.188051632018    -1.365341325584     1.007825032230
         H            0.844346391557    -0.583950367982     1.464974674416     1.007825032230
         H            0.385514391557    -1.732859367982     0.214354674416     1.007825032230
         H           -1.475714608443     0.478045632018     1.285973674416     1.007825032230
         H           -1.955925608443     1.193712632018    -0.249291325584     1.007825032230
         H            2.884270391557    -1.526907367982     0.369375674416     1.007825032230
         H            2.753802391557     0.206526632018     0.008569674416     1.007825032230
         H            2.304443391557    -0.987171367982    -1.213290325584     1.007825032230
         H           -1.847854608443    -1.684753367982     0.341379674416     1.007825032230
         H           -2.255005608443    -1.039000367982    -1.102914325584     1.007825032230
         H            0.556048391557     1.793201632018     0.881920674416     1.007825032230

  Basis Set: AUG-CC-PVTZ
    Blend: AUG-CC-PVTZ
  Basis Set: (AUG-CC-PVTZ AUX)
    Blend: AUG-CC-PVTZ-JKFIT
	 Reference Energy          =    -287.2861607130553807 [Eh]
	 Singles Energy            =      -0.0000000000000000 [Eh]
	 Same-Spin Energy          =      -0.2927892626085917 [Eh]
	 Opposite-Spin Energy      =      -1.0015533005538064 [Eh]
	 Correlation Energy        =      -1.2943425631623982 [Eh]
	 Total Energy              =    -288.5805032762177689 [Eh]

	 ================> DF-SCS-MP2 Energies <==================
	-----------------------------------------------------------
	 SCS Same-Spin Scale       =       0.3333333333333333 [-]
	 SCS Opposite-Spin Scale   =       1.2000000000000000 [-]
	 SCS Same-Spin Energy      =      -0.0975964208695305 [Eh]
	 SCS Opposite-Spin Energy  =      -1.2018639606645676 [Eh]
	 SCS Correlation Energy    =      -1.2994603815340982 [Eh]
	 SCS Total Energy          =    -288.5856210945894986 [Eh]
	-----------------------------------------------------------

  Dipole Moment: [D]
     X:     0.7574      Y:    -1.2344      Z:     0.6431     Total:     1.5846

*** Psi4 exiting successfully. Buy a developer a beer!
