                               Psi4 1.4a3.dev225

  ==> Input File <==

--------------------------------------------------------------------------
#psi4
#
memory 32 gb

molecule  {
0 1
  O        0.5491460     1.6657540    -0.0835270
  N       -2.2770200    -0.8249540    -0.1044150
  C       -0.0231050     0.3654990    -0.2814520
  C        0.8312550    -0.7148260     0.3726500
  C       -1.4804950     0.3645050     0.1924430
  C        2.2653620    -0.7289500    -0.1466730
  H       -0.0068980     0.2268130    -1.3706510
  H        0.8244310    -0.5451890     1.4596650
  H        0.3655990    -1.6940980     0.2090450
  H       -1.4956300     0.5168070     1.2806640
  H       -1.9758410     1.2324740    -0.2546010
  H        2.8643550    -1.4881460     0.3640660
  H        2.7338870     0.2452880     0.0032600
  H        2.2845280    -0.9484100    -1.2186000
  H       -1.8677700    -1.6459920     0.3360700
  H       -2.2749210    -1.0002390    -1.1082240
  H        0.5364001     1.8285519     0.8569059
units angstrom
no_reorient  #important for SAPT in psi4, default
symmetry c1  #important for SAPT in psi4, default
}

set PROPERTIES_ORIGIN ["COM"]
properties('MP2/aug-cc-pvtz', properties = ['dipole'])
--------------------------------------------------------------------------

    Molecular point group: c1
  Charge       = 0
  Multiplicity = 1
  Basis Set: AUG-CC-PVTZ
    Blend: AUG-CC-PVTZ
  Basis Set: (AUG-CC-PVTZ AUX)
    Blend: AUG-CC-PVTZ-JKFIT

    Orbital Energies [Eh]
    ---------------------

    Doubly Occupied:

       1A    -20.557083     2A    -15.547866     3A    -11.278301
       4A    -11.250831     5A    -11.227714     6A    -11.214397
       7A     -1.363001     8A     -1.183079     9A     -1.054797
      10A     -0.958742    11A     -0.862966    12A     -0.806856
      13A     -0.676604    14A     -0.661091    15A     -0.644663
      16A     -0.632586    17A     -0.581045    18A     -0.555958
      19A     -0.544490    20A     -0.521190    21A     -0.502266
      22A     -0.488519    23A     -0.481522    24A     -0.453680
      25A     -0.387830

  @DF-RHF Final Energy:  -287.28745001331845

   => Energetics <=

    Nuclear Repulsion Energy =            259.8286098669266835
    One-Electron Energy =                -905.3579636143472271
    Two-Electron Energy =                 358.2419037341021522
    Total Energy =                       -287.2874500133184483
  Basis Set: (AUG-CC-PVTZ AUX)
    Blend: AUG-CC-PVTZ-RI
    Molecular point group: c1

    Geometry (in Angstrom), charge = 0, multiplicity = 1:

       Center              X                  Y                   Z               Mass
    ------------   -----------------  -----------------  -----------------  -----------------
         O            0.571392794062     1.629510790508    -0.076875315715    15.994914619570
         N           -2.254773205938    -0.861197209492    -0.097763315715    14.003074004430
         C           -0.000858205938     0.329255790508    -0.274800315715    12.000000000000
         C            0.853501794062    -0.751069209492     0.379301684285    12.000000000000
         C           -1.458248205938     0.328261790508     0.199094684285    12.000000000000
         C            2.287608794062    -0.765193209492    -0.140021315715    12.000000000000
         H            0.015348794062     0.190569790508    -1.363999315715     1.007825032230
         H            0.846677794062    -0.581432209492     1.466316684285     1.007825032230
         H            0.387845794062    -1.730341209492     0.215696684285     1.007825032230
         H           -1.473383205938     0.480563790508     1.287315684285     1.007825032230
         H           -1.953594205938     1.196230790508    -0.247949315715     1.007825032230
         H            2.886601794062    -1.524389209492     0.370717684285     1.007825032230
         H            2.756133794062     0.209044790508     0.009911684285     1.007825032230
         H            2.306774794062    -0.984653209492    -1.211948315715     1.007825032230
         H           -1.845523205938    -1.682235209492     0.342721684285     1.007825032230
         H           -2.252674205938    -1.036482209492    -1.101572315715     1.007825032230
         H            0.558646894062     1.792308690508     0.863557584285     1.007825032230

  Basis Set: AUG-CC-PVTZ
    Blend: AUG-CC-PVTZ
  Basis Set: (AUG-CC-PVTZ AUX)
    Blend: AUG-CC-PVTZ-JKFIT
	 Reference Energy          =    -287.2874500133184483 [Eh]
	 Singles Energy            =      -0.0000000000000000 [Eh]
	 Same-Spin Energy          =      -0.2925336801542801 [Eh]
	 Opposite-Spin Energy      =      -1.0011954891618564 [Eh]
	 Correlation Energy        =      -1.2937291693161366 [Eh]
	 Total Energy              =    -288.5811791826345711 [Eh]

	 ================> DF-SCS-MP2 Energies <==================
	-----------------------------------------------------------
	 SCS Same-Spin Scale       =       0.3333333333333333 [-]
	 SCS Opposite-Spin Scale   =       1.2000000000000000 [-]
	 SCS Same-Spin Energy      =      -0.0975112267180933 [Eh]
	 SCS Opposite-Spin Energy  =      -1.2014345869942276 [Eh]
	 SCS Correlation Energy    =      -1.2989458137123209 [Eh]
	 SCS Total Energy          =    -288.5863958270307421 [Eh]
	-----------------------------------------------------------

  Dipole Moment: [D]
     X:     0.7179      Y:    -1.3078      Z:     0.6167     Total:     1.6143

*** Psi4 exiting successfully. Buy a developer a beer!
