                               Psi4 1.4a3.dev225

  ==> Input File <==

--------------------------------------------------------------------------
#psi4
#
memory 32 gb

molecule  {
0 1
  O        0.5491460     1.6657540    -0.0835270
  N       -2.2770200    -0.8249540    -0.1044150
  C       -0.0231050     0.3654990    -0.2814520
  C        0.8424615    -0.7289965     0.3812298
  C       -1.4804950     0.3645050     0.1924430
  C        2.2653620    -0.7289500    -0.1466730
  H       -0.0068980     0.2268130    -1.3706510
  H        0.8244310    -0.5451890     1.4596650
  H        0.3655990    -1.6940980     0.2090450
  H       -1.4956300     0.5168070     1.2806640
  H       -1.9758410     1.2324740    -0.2546010
  H        2.8643550    -1.4881460     0.3640660
  H        2.7338870     0.2452880     0.0032600
  H        2.2845280    -0.9484100    -1.2186000
  H       -1.8677700    -1.6459920     0.3360700
  H       -2.2749210    -1.0002390    -1.1082240
  H        0.5361330     1.8319630     0.8766110
units angstrom
no_reorient  #important for SAPT in psi4, default
symmetry c1  #important for SAPT in psi4, default
}

set PROPERTIES_ORIGIN ["COM"]
properties('MP2/aug-cc-pvtz', properties = ['dipole'])
--------------------------------------------------------------------------

    Molecular point group: c1
  Charge       = 0
  Multiplicity = 1
  Basis Set: AUG-CC-PVTZ
    Blend: AUG-CC-PVTZ
  Basis Set: (AUG-CC-PVTZ AUX)
    Blend: AUG-CC-PVTZ-JKFIT

    Orbital Energies [Eh]
    ---------------------

    Doubly Occupied:

       1A    -20.559071     2A    -15.547795     3A    -11.278819
       4A    -11.250657     5A    -11.227044     6A    -11.213872
       7A     -1.358185     8A     -1.182758     9A     -1.053373
      10A     -0.958028    11A     -0.861623    12A     -0.805677
      13A     -0.676300    14A     -0.657756    15A     -0.644397
      16A     -0.630706    17A     -0.581691    18A     -0.555704
      19A     -0.543935    20A     -0.520558    21A     -0.504157
      22A     -0.490537    23A     -0.482020    24A     -0.449161
      25A     -0.387281

  @DF-RHF Final Energy:  -287.28627506842889

   => Energetics <=

    Nuclear Repulsion Energy =            259.4792259309539872
    One-Electron Energy =                -904.6887970335561704
    Two-Electron Energy =                 357.9232960341733474
    Total Energy =                       -287.2862750684288926
  Basis Set: (AUG-CC-PVTZ AUX)
    Blend: AUG-CC-PVTZ-RI
    Molecular point group: c1

    Geometry (in Angstrom), charge = 0, multiplicity = 1:

       Center              X                  Y                   Z               Mass
    ------------   -----------------  -----------------  -----------------  -----------------
         O            0.569886252892     1.631381026334    -0.078253978604    15.994914619570
         N           -2.256279747108    -0.859326973666    -0.099141978604    14.003074004430
         C           -0.002364747108     0.331126026334    -0.276178978604    12.000000000000
         C            0.863201752892    -0.763369473666     0.386502821396    12.000000000000
         C           -1.459754747108     0.330132026334     0.197716021396    12.000000000000
         C            2.286102252892    -0.763322973666    -0.141399978604    12.000000000000
         H            0.013842252892     0.192440026334    -1.365377978604     1.007825032230
         H            0.845171252892    -0.579561973666     1.464938021396     1.007825032230
         H            0.386339252892    -1.728470973666     0.214318021396     1.007825032230
         H           -1.474889747108     0.482434026334     1.285937021396     1.007825032230
         H           -1.955100747108     1.198101026334    -0.249327978604     1.007825032230
         H            2.885095252892    -1.522518973666     0.369339021396     1.007825032230
         H            2.754627252892     0.210915026334     0.008533021396     1.007825032230
         H            2.305268252892    -0.982782973666    -1.213326978604     1.007825032230
         H           -1.847029747108    -1.680364973666     0.341343021396     1.007825032230
         H           -2.254180747108    -1.034611973666    -1.102950978604     1.007825032230
         H            0.556873252892     1.797590026334     0.881884021396     1.007825032230

  Basis Set: AUG-CC-PVTZ
    Blend: AUG-CC-PVTZ
  Basis Set: (AUG-CC-PVTZ AUX)
    Blend: AUG-CC-PVTZ-JKFIT
	 Reference Energy          =    -287.2862750684288926 [Eh]
	 Singles Energy            =      -0.0000000000000000 [Eh]
	 Same-Spin Energy          =      -0.2927080609195713 [Eh]
	 Opposite-Spin Energy      =      -1.0017733296558660 [Eh]
	 Correlation Energy        =      -1.2944813905754373 [Eh]
	 Total Energy              =    -288.5807564590043057 [Eh]

	 ================> DF-SCS-MP2 Energies <==================
	-----------------------------------------------------------
	 SCS Same-Spin Scale       =       0.3333333333333333 [-]
	 SCS Opposite-Spin Scale   =       1.2000000000000000 [-]
	 SCS Same-Spin Energy      =      -0.0975693536398571 [Eh]
	 SCS Opposite-Spin Energy  =      -1.2021279955870392 [Eh]
	 SCS Correlation Energy    =      -1.2996973492268964 [Eh]
	 SCS Total Energy          =    -288.5859724176557961 [Eh]
	-----------------------------------------------------------

  Dipole Moment: [D]
     X:     0.7166      Y:    -1.2924      Z:     0.6271     Total:     1.6053

*** Psi4 exiting successfully. Buy a developer a beer!
