                               Psi4 1.4a3.dev225

  ==> Input File <==

--------------------------------------------------------------------------
#psi4
#
memory 32 gb

molecule  {
0 1
  O        0.5491460     1.6657540    -0.0835270
  N       -2.2770200    -0.8249540    -0.1044150
  C       -0.0231050     0.3654990    -0.2814520
  C        0.8312550    -0.7148260     0.3726500
  C       -1.4260124     0.4458644     0.2127482
  C        2.2653620    -0.7289500    -0.1466730
  H       -0.0068980     0.2268130    -1.3706510
  H        0.8244310    -0.5451890     1.4596650
  H        0.3655990    -1.6940980     0.2090450
  H       -1.4956300     0.5168070     1.2806640
  H       -1.9758410     1.2324740    -0.2546010
  H        2.8643550    -1.4881460     0.3640660
  H        2.7338870     0.2452880     0.0032600
  H        2.2845280    -0.9484100    -1.2186000
  H       -1.8677700    -1.6459920     0.3360700
  H       -2.2749210    -1.0002390    -1.1082240
  H        0.5361330     1.8319630     0.8766110
units angstrom
no_reorient  #important for SAPT in psi4, default
symmetry c1  #important for SAPT in psi4, default
}

set PROPERTIES_ORIGIN ["COM"]
properties('MP2/aug-cc-pvtz', properties = ['dipole'])
--------------------------------------------------------------------------

    Molecular point group: c1
  Charge       = 0
  Multiplicity = 1
  Basis Set: AUG-CC-PVTZ
    Blend: AUG-CC-PVTZ
  Basis Set: (AUG-CC-PVTZ AUX)
    Blend: AUG-CC-PVTZ-JKFIT

    Orbital Energies [Eh]
    ---------------------

    Doubly Occupied:

       1A    -20.558035     2A    -15.544234     3A    -11.279329
       4A    -11.250515     5A    -11.229394     6A    -11.215756
       7A     -1.361142     8A     -1.157397     9A     -1.055725
      10A     -0.967824    11A     -0.867153    12A     -0.808027
      13A     -0.674088    14A     -0.657176    15A     -0.642446
      16A     -0.631501    17A     -0.579079    18A     -0.556236
      19A     -0.538993    20A     -0.519291    21A     -0.505820
      22A     -0.489279    23A     -0.480444    24A     -0.454260
      25A     -0.391461

  @DF-RHF Final Energy:  -287.27813923833980

   => Energetics <=

    Nuclear Repulsion Energy =            259.6456101762491357
    One-Electron Energy =                -905.0182918047042904
    Two-Electron Energy =                 358.0945423901154072
    Total Energy =                       -287.2781392383398043
  Basis Set: (AUG-CC-PVTZ AUX)
    Blend: AUG-CC-PVTZ-RI
    Molecular point group: c1

    Geometry (in Angstrom), charge = 0, multiplicity = 1:

       Center              X                  Y                   Z               Mass
    ------------   -----------------  -----------------  -----------------  -----------------
         O            0.564056779283     1.618512744974    -0.079833439551    15.994914619570
         N           -2.262109220717    -0.872195255026    -0.100721439551    14.003074004430
         C           -0.008194220717     0.318257744974    -0.277758439551    12.000000000000
         C            0.846165779283    -0.762067255026     0.376343560449    12.000000000000
         C           -1.411101620717     0.398623144974     0.216441760449    12.000000000000
         C            2.280272779283    -0.776191255026    -0.142979439551    12.000000000000
         H            0.008012779283     0.179571744974    -1.366957439551     1.007825032230
         H            0.839341779283    -0.592430255026     1.463358560449     1.007825032230
         H            0.380509779283    -1.741339255026     0.212738560449     1.007825032230
         H           -1.480719220717     0.469565744974     1.284357560449     1.007825032230
         H           -1.960930220717     1.185232744974    -0.250907439551     1.007825032230
         H            2.879265779283    -1.535387255026     0.367759560449     1.007825032230
         H            2.748797779283     0.198046744974     0.006953560449     1.007825032230
         H            2.299438779283    -0.995651255026    -1.214906439551     1.007825032230
         H           -1.852859220717    -1.693233255026     0.339763560449     1.007825032230
         H           -2.260010220717    -1.047480255026    -1.104530439551     1.007825032230
         H            0.551043779283     1.784721744974     0.880304560449     1.007825032230

  Basis Set: AUG-CC-PVTZ
    Blend: AUG-CC-PVTZ
  Basis Set: (AUG-CC-PVTZ AUX)
    Blend: AUG-CC-PVTZ-JKFIT
	 Reference Energy          =    -287.2781392383398043 [Eh]
	 Singles Energy            =      -0.0000000000000000 [Eh]
	 Same-Spin Energy          =      -0.2927560367199926 [Eh]
	 Opposite-Spin Energy      =      -1.0026503222794911 [Eh]
	 Correlation Energy        =      -1.2954063589994838 [Eh]
	 Total Energy              =    -288.5735455973392618 [Eh]

	 ================> DF-SCS-MP2 Energies <==================
	-----------------------------------------------------------
	 SCS Same-Spin Scale       =       0.3333333333333333 [-]
	 SCS Opposite-Spin Scale   =       1.2000000000000000 [-]
	 SCS Same-Spin Energy      =      -0.0975853455733309 [Eh]
	 SCS Opposite-Spin Energy  =      -1.2031803867353894 [Eh]
	 SCS Correlation Energy    =      -1.3007657323087203 [Eh]
	 SCS Total Energy          =    -288.5789049706485230 [Eh]
	-----------------------------------------------------------

  Dipole Moment: [D]
     X:     0.8920      Y:    -1.1384      Z:     0.6675     Total:     1.5929

*** Psi4 exiting successfully. Buy a developer a beer!
