                               Psi4 1.4a3.dev225

  ==> Input File <==

--------------------------------------------------------------------------
#psi4
#
memory 32 gb

molecule  {
0 1
  O        0.5491460     1.6657540    -0.0835270
  N       -2.2770200    -0.8249540    -0.1044150
  C       -0.0231050     0.3654990    -0.2814520
  C        0.8312550    -0.7148260     0.3726500
  C       -1.4856789     0.3615123     0.2172470
  C        2.2653620    -0.7289500    -0.1466730
  H       -0.0068980     0.2268130    -1.3706510
  H        0.8244310    -0.5451890     1.4596650
  H        0.3655990    -1.6940980     0.2090450
  H       -1.4956300     0.5168070     1.2806640
  H       -1.9758410     1.2324740    -0.2546010
  H        2.8643550    -1.4881460     0.3640660
  H        2.7338870     0.2452880     0.0032600
  H        2.2845280    -0.9484100    -1.2186000
  H       -1.8677700    -1.6459920     0.3360700
  H       -2.2749210    -1.0002390    -1.1082240
  H        0.5361330     1.8319630     0.8766110
units angstrom
no_reorient  #important for SAPT in psi4, default
symmetry c1  #important for SAPT in psi4, default
}

set PROPERTIES_ORIGIN ["COM"]
properties('MP2/aug-cc-pvtz', properties = ['dipole'])
--------------------------------------------------------------------------

    Molecular point group: c1
  Charge       = 0
  Multiplicity = 1
  Basis Set: AUG-CC-PVTZ
    Blend: AUG-CC-PVTZ
  Basis Set: (AUG-CC-PVTZ AUX)
    Blend: AUG-CC-PVTZ-JKFIT

    Orbital Energies [Eh]
    ---------------------

    Doubly Occupied:

       1A    -20.558759     2A    -15.547322     3A    -11.278431
       4A    -11.250233     5A    -11.227198     6A    -11.214078
       7A     -1.358197     8A     -1.182206     9A     -1.053733
      10A     -0.956445    11A     -0.863290    12A     -0.805897
      13A     -0.675888    14A     -0.657827    15A     -0.644060
      16A     -0.630967    17A     -0.581230    18A     -0.554333
      19A     -0.544736    20A     -0.524529    21A     -0.501198
      22A     -0.488255    23A     -0.481477    24A     -0.453583
      25A     -0.385015

  @DF-RHF Final Energy:  -287.28601203899433

   => Energetics <=

    Nuclear Repulsion Energy =            259.5753732837337111
    One-Electron Energy =                -904.8849983004165551
    Two-Electron Energy =                 358.0236129776885150
    Total Energy =                       -287.2860120389943290
  Basis Set: (AUG-CC-PVTZ AUX)
    Blend: AUG-CC-PVTZ-RI
    Molecular point group: c1

    Geometry (in Angstrom), charge = 0, multiplicity = 1:

       Center              X                  Y                   Z               Mass
    ------------   -----------------  -----------------  -----------------  -----------------
         O            0.572094109059     1.629875329423    -0.080439446928    15.994914619570
         N           -2.254071890941    -0.860832670577    -0.101327446928    14.003074004430
         C           -0.000156890941     0.329620329423    -0.278364446928    12.000000000000
         C            0.854203109059    -0.750704670577     0.375737553072    12.000000000000
         C           -1.462730790941     0.325633629423     0.220334553072    12.000000000000
         C            2.288310109059    -0.764828670577    -0.143585446928    12.000000000000
         H            0.016050109059     0.190934329423    -1.367563446928     1.007825032230
         H            0.847379109059    -0.581067670577     1.462752553072     1.007825032230
         H            0.388547109059    -1.729976670577     0.212132553072     1.007825032230
         H           -1.472681890941     0.480928329423     1.283751553072     1.007825032230
         H           -1.952892890941     1.196595329423    -0.251513446928     1.007825032230
         H            2.887303109059    -1.524024670577     0.367153553072     1.007825032230
         H            2.756835109059     0.209409329423     0.006347553072     1.007825032230
         H            2.307476109059    -0.984288670577    -1.215512446928     1.007825032230
         H           -1.844821890941    -1.681870670577     0.339157553072     1.007825032230
         H           -2.251972890941    -1.036117670577    -1.105136446928     1.007825032230
         H            0.559081109059     1.796084329423     0.879698553072     1.007825032230

  Basis Set: AUG-CC-PVTZ
    Blend: AUG-CC-PVTZ
  Basis Set: (AUG-CC-PVTZ AUX)
    Blend: AUG-CC-PVTZ-JKFIT
	 Reference Energy          =    -287.2860120389943290 [Eh]
	 Singles Energy            =      -0.0000000000000000 [Eh]
	 Same-Spin Energy          =      -0.2927006649985444 [Eh]
	 Opposite-Spin Energy      =      -1.0017588243194302 [Eh]
	 Correlation Energy        =      -1.2944594893179746 [Eh]
	 Total Energy              =    -288.5804715283123301 [Eh]

	 ================> DF-SCS-MP2 Energies <==================
	-----------------------------------------------------------
	 SCS Same-Spin Scale       =       0.3333333333333333 [-]
	 SCS Opposite-Spin Scale   =       1.2000000000000000 [-]
	 SCS Same-Spin Energy      =      -0.0975668883328481 [Eh]
	 SCS Opposite-Spin Energy  =      -1.2021105891833161 [Eh]
	 SCS Correlation Energy    =      -1.2996774775161644 [Eh]
	 SCS Total Energy          =    -288.5856895165105129 [Eh]
	-----------------------------------------------------------

  Dipole Moment: [D]
     X:     0.7168      Y:    -1.2952      Z:     0.6499     Total:     1.6167

*** Psi4 exiting successfully. Buy a developer a beer!
