                               Psi4 1.4a3.dev225

  ==> Input File <==

--------------------------------------------------------------------------
#psi4
#
memory 32 gb

molecule  {
0 1
  O        0.5491460     1.6657540    -0.0835270
  N       -2.2770200    -0.8249540    -0.1044150
  C       -0.0231050     0.3654990    -0.2814520
  C        0.8312550    -0.7148260     0.3726500
  C       -1.4804950     0.3645050     0.1924430
  C        2.2653620    -0.7289500    -0.1466730
  H       -0.0068980     0.2268130    -1.3706510
  H        0.8244310    -0.5451890     1.4596650
  H        0.3655990    -1.6940980     0.2090450
  H       -1.4956300     0.5168070     1.2806640
  H       -1.9758410     1.2324740    -0.2546010
  H        2.8643550    -1.4881460     0.3640660
  H        2.7338870     0.2452880     0.0032600
  H        2.2845280    -0.9484100    -1.2186000
  H       -1.8476624    -1.6863318     0.3577122
  H       -2.2749210    -1.0002390    -1.1082240
  H        0.5361330     1.8319630     0.8766110
units angstrom
no_reorient  #important for SAPT in psi4, default
symmetry c1  #important for SAPT in psi4, default
}

set PROPERTIES_ORIGIN ["COM"]
properties('MP2/aug-cc-pvtz', properties = ['dipole'])
--------------------------------------------------------------------------

    Molecular point group: c1
  Charge       = 0
  Multiplicity = 1
  Basis Set: AUG-CC-PVTZ
    Blend: AUG-CC-PVTZ
  Basis Set: (AUG-CC-PVTZ AUX)
    Blend: AUG-CC-PVTZ-JKFIT

    Orbital Energies [Eh]
    ---------------------

    Doubly Occupied:

       1A    -20.559007     2A    -15.553230     3A    -11.278129
       4A    -11.250949     5A    -11.227465     6A    -11.214248
       7A     -1.358576     8A     -1.177289     9A     -1.053705
      10A     -0.956349    11A     -0.861635    12A     -0.804975
      13A     -0.670541    14A     -0.657776    15A     -0.643638
      16A     -0.630723    17A     -0.580798    18A     -0.553264
      19A     -0.542754    20A     -0.520946    21A     -0.501697
      22A     -0.488291    23A     -0.480213    24A     -0.453269
      25A     -0.387183

  @DF-RHF Final Energy:  -287.28305894329418

   => Energetics <=

    Nuclear Repulsion Energy =            259.4913414318601781
    One-Electron Energy =                -904.7355005011486355
    Two-Electron Energy =                 357.9611001259942782
    Total Energy =                       -287.2830589432941792
  Basis Set: (AUG-CC-PVTZ AUX)
    Blend: AUG-CC-PVTZ-RI
    Molecular point group: c1

    Geometry (in Angstrom), charge = 0, multiplicity = 1:

       Center              X                  Y                   Z               Mass
    ------------   -----------------  -----------------  -----------------  -----------------
         O            0.571168334696     1.629928571945    -0.077343085618    15.994914619570
         N           -2.254997665304    -0.860779428055    -0.098231085618    14.003074004430
         C           -0.001082665304     0.329673571945    -0.275268085618    12.000000000000
         C            0.853277334696    -0.750651428055     0.378833914382    12.000000000000
         C           -1.458472665304     0.328679571945     0.198626914382    12.000000000000
         C            2.287384334696    -0.764775428055    -0.140489085618    12.000000000000
         H            0.015124334696     0.190987571945    -1.364467085618     1.007825032230
         H            0.846453334696    -0.581014428055     1.465848914382     1.007825032230
         H            0.387621334696    -1.729923428055     0.215228914382     1.007825032230
         H           -1.473607665304     0.480981571945     1.286847914382     1.007825032230
         H           -1.953818665304     1.196648571945    -0.248417085618     1.007825032230
         H            2.886377334696    -1.523971428055     0.370249914382     1.007825032230
         H            2.755909334696     0.209462571945     0.009443914382     1.007825032230
         H            2.306550334696    -0.984235428055    -1.212416085618     1.007825032230
         H           -1.825640065304    -1.722157228055     0.363896114382     1.007825032230
         H           -2.252898665304    -1.036064428055    -1.102040085618     1.007825032230
         H            0.558155334696     1.796137571945     0.882794914382     1.007825032230

  Basis Set: AUG-CC-PVTZ
    Blend: AUG-CC-PVTZ
  Basis Set: (AUG-CC-PVTZ AUX)
    Blend: AUG-CC-PVTZ-JKFIT
	 Reference Energy          =    -287.2830589432941792 [Eh]
	 Singles Energy            =      -0.0000000000000000 [Eh]
	 Same-Spin Energy          =      -0.2930297142566015 [Eh]
	 Opposite-Spin Energy      =      -1.0026818367244155 [Eh]
	 Correlation Energy        =      -1.2957115509810169 [Eh]
	 Total Energy              =    -288.5787704942752043 [Eh]

	 ================> DF-SCS-MP2 Energies <==================
	-----------------------------------------------------------
	 SCS Same-Spin Scale       =       0.3333333333333333 [-]
	 SCS Opposite-Spin Scale   =       1.2000000000000000 [-]
	 SCS Same-Spin Energy      =      -0.0976765714188672 [Eh]
	 SCS Opposite-Spin Energy  =      -1.2032182040692985 [Eh]
	 SCS Correlation Energy    =      -1.3008947754881657 [Eh]
	 SCS Total Energy          =    -288.5839537187823680 [Eh]
	-----------------------------------------------------------

  Dipole Moment: [D]
     X:     0.7201      Y:    -1.3016      Z:     0.6356     Total:     1.6176

*** Psi4 exiting successfully. Buy a developer a beer!
