                               Psi4 1.4a3.dev225

  ==> Input File <==

--------------------------------------------------------------------------
#psi4
#
memory 32 gb

molecule  {
0 1
  O        0.5491460     1.6657540    -0.0835270
  N       -2.2770200    -0.8249540    -0.1044150
  C       -0.0231050     0.3654990    -0.2814520
  C        0.8312550    -0.7148260     0.3726500
  C       -1.4804950     0.3645050     0.1924430
  C        2.2653620    -0.7289500    -0.1466730
  H       -0.0068980     0.2268130    -1.3706510
  H        0.8256715    -0.5760267     1.2620606
  H        0.3655990    -1.6940980     0.2090450
  H       -1.4956300     0.5168070     1.2806640
  H       -1.9758410     1.2324740    -0.2546010
  H        2.8643550    -1.4881460     0.3640660
  H        2.7338870     0.2452880     0.0032600
  H        2.2845280    -0.9484100    -1.2186000
  H       -1.8677700    -1.6459920     0.3360700
  H       -2.2749210    -1.0002390    -1.1082240
  H        0.5361330     1.8319630     0.8766110
units angstrom
no_reorient  #important for SAPT in psi4, default
symmetry c1  #important for SAPT in psi4, default
}

set PROPERTIES_ORIGIN ["COM"]
properties('MP2/aug-cc-pvtz', properties = ['dipole'])
--------------------------------------------------------------------------

    Molecular point group: c1
  Charge       = 0
  Multiplicity = 1
  Basis Set: AUG-CC-PVTZ
    Blend: AUG-CC-PVTZ
  Basis Set: (AUG-CC-PVTZ AUX)
    Blend: AUG-CC-PVTZ-JKFIT

    Orbital Energies [Eh]
    ---------------------

    Doubly Occupied:

       1A    -20.559186     2A    -15.547559     3A    -11.276234
       4A    -11.250768     5A    -11.212313     6A    -11.201455
       7A     -1.358740     8A     -1.182846     9A     -1.066040
      10A     -0.957709    11A     -0.870282    12A     -0.818878
      13A     -0.677949    14A     -0.662517    15A     -0.650594
      16A     -0.633438    17A     -0.586322    18A     -0.555308
      19A     -0.543271    20A     -0.522696    21A     -0.504431
      22A     -0.497845    23A     -0.480321    24A     -0.452954
      25A     -0.387270

  @DF-RHF Final Energy:  -287.25406097949855

   => Energetics <=

    Nuclear Repulsion Energy =            260.7477430576487905
    One-Electron Energy =                -907.0897539156877656
    Two-Electron Energy =                 359.0879498785404280
    Total Energy =                       -287.2540609794985471
  Basis Set: (AUG-CC-PVTZ AUX)
    Blend: AUG-CC-PVTZ-RI
    Molecular point group: c1

    Geometry (in Angstrom), charge = 0, multiplicity = 1:

       Center              X                  Y                   Z               Mass
    ------------   -----------------  -----------------  -----------------  -----------------
         O            0.571381781802     1.629821072872    -0.074862706953    15.994914619570
         N           -2.254784218198    -0.860886927128    -0.095750706953    14.003074004430
         C           -0.000869218198     0.329566072872    -0.272787706953    12.000000000000
         C            0.853490781802    -0.750758927128     0.381314293047    12.000000000000
         C           -1.458259218198     0.328572072872     0.201107293047    12.000000000000
         C            2.287597781802    -0.764882927128    -0.138008706953    12.000000000000
         H            0.015337781802     0.190880072872    -1.361986706953     1.007825032230
         H            0.847907281802    -0.611959627128     1.270724893047     1.007825032230
         H            0.387834781802    -1.730030927128     0.217709293047     1.007825032230
         H           -1.473394218198     0.480874072872     1.289328293047     1.007825032230
         H           -1.953605218198     1.196541072872    -0.245936706953     1.007825032230
         H            2.886590781802    -1.524078927128     0.372730293047     1.007825032230
         H            2.756122781802     0.209355072872     0.011924293047     1.007825032230
         H            2.306763781802    -0.984342927128    -1.209935706953     1.007825032230
         H           -1.845534218198    -1.681924927128     0.344734293047     1.007825032230
         H           -2.252685218198    -1.036171927128    -1.099559706953     1.007825032230
         H            0.558368781802     1.796030072872     0.885275293047     1.007825032230

  Basis Set: AUG-CC-PVTZ
    Blend: AUG-CC-PVTZ
  Basis Set: (AUG-CC-PVTZ AUX)
    Blend: AUG-CC-PVTZ-JKFIT
	 Reference Energy          =    -287.2540609794985471 [Eh]
	 Singles Energy            =      -0.0000000000000000 [Eh]
	 Same-Spin Energy          =      -0.2928152561343743 [Eh]
	 Opposite-Spin Energy      =      -1.0012551689541083 [Eh]
	 Correlation Energy        =      -1.2940704250884827 [Eh]
	 Total Energy              =    -288.5481314045870249 [Eh]

	 ================> DF-SCS-MP2 Energies <==================
	-----------------------------------------------------------
	 SCS Same-Spin Scale       =       0.3333333333333333 [-]
	 SCS Opposite-Spin Scale   =       1.2000000000000000 [-]
	 SCS Same-Spin Energy      =      -0.0976050853781248 [Eh]
	 SCS Opposite-Spin Energy  =      -1.2015062027449299 [Eh]
	 SCS Correlation Energy    =      -1.2991112881230547 [Eh]
	 SCS Total Energy          =    -288.5531722676216191 [Eh]
	-----------------------------------------------------------

  Dipole Moment: [D]
     X:     0.6949      Y:    -1.2865      Z:     0.7431     Total:     1.6401

*** Psi4 exiting successfully. Buy a developer a beer!
