                               Psi4 1.4a3.dev225

  ==> Input File <==

--------------------------------------------------------------------------
#psi4
#
memory 32 gb

molecule  {
0 1
  O        0.5491460     1.6657540    -0.0835270
  N       -2.2770200    -0.8249540    -0.1044150
  C       -0.0231050     0.3654990    -0.2814520
  C        0.8312550    -0.7148260     0.3726500
  C       -1.4441926     0.3787848     0.2920431
  C        2.2653620    -0.7289500    -0.1466730
  H       -0.0068980     0.2268130    -1.3706510
  H        0.8244310    -0.5451890     1.4596650
  H        0.3655990    -1.6940980     0.2090450
  H       -1.4956300     0.5168070     1.2806640
  H       -1.9758410     1.2324740    -0.2546010
  H        2.8643550    -1.4881460     0.3640660
  H        2.7338870     0.2452880     0.0032600
  H        2.2845280    -0.9484100    -1.2186000
  H       -1.8677700    -1.6459920     0.3360700
  H       -2.2749210    -1.0002390    -1.1082240
  H        0.5361330     1.8319630     0.8766110
units angstrom
no_reorient  #important for SAPT in psi4, default
symmetry c1  #important for SAPT in psi4, default
}

set PROPERTIES_ORIGIN ["COM"]
properties('MP2/aug-cc-pvtz', properties = ['dipole'])
--------------------------------------------------------------------------

    Molecular point group: c1
  Charge       = 0
  Multiplicity = 1
  Basis Set: AUG-CC-PVTZ
    Blend: AUG-CC-PVTZ
  Basis Set: (AUG-CC-PVTZ AUX)
    Blend: AUG-CC-PVTZ-JKFIT

    Orbital Energies [Eh]
    ---------------------

    Doubly Occupied:

       1A    -20.558328     2A    -15.545848     3A    -11.280380
       4A    -11.250173     5A    -11.227144     6A    -11.214258
       7A     -1.359325     8A     -1.167512     9A     -1.054525
      10A     -0.960740    11A     -0.866823    12A     -0.810249
      13A     -0.670831    14A     -0.660096    15A     -0.643562
      16A     -0.627511    17A     -0.584420    18A     -0.551675
      19A     -0.543268    20A     -0.533118    21A     -0.494102
      22A     -0.488664    23A     -0.481694    24A     -0.452401
      25A     -0.385391

  @DF-RHF Final Energy:  -287.27277227870098

   => Energetics <=

    Nuclear Repulsion Energy =            259.5146119418348576
    One-Electron Energy =                -904.7506963402020119
    Two-Electron Energy =                 357.9633121196662273
    Total Energy =                       -287.2727722787009839
  Basis Set: (AUG-CC-PVTZ AUX)
    Blend: AUG-CC-PVTZ-RI
    Molecular point group: c1

    Geometry (in Angstrom), charge = 0, multiplicity = 1:

       Center              X                  Y                   Z               Mass
    ------------   -----------------  -----------------  -----------------  -----------------
         O            0.566505729075     1.627548650657    -0.090514797781    15.994914619570
         N           -2.259660270925    -0.863159349343    -0.111402797781    14.003074004430
         C           -0.005745270925     0.327293650657    -0.288439797781    12.000000000000
         C            0.848614729075    -0.753031349343     0.365662202219    12.000000000000
         C           -1.426832870925     0.340579450657     0.285055302219    12.000000000000
         C            2.282721729075    -0.767155349343    -0.153660797781    12.000000000000
         H            0.010461729075     0.188607650657    -1.377638797781     1.007825032230
         H            0.841790729075    -0.583394349343     1.452677202219     1.007825032230
         H            0.382958729075    -1.732303349343     0.202057202219     1.007825032230
         H           -1.478270270925     0.478601650657     1.273676202219     1.007825032230
         H           -1.958481270925     1.194268650657    -0.261588797781     1.007825032230
         H            2.881714729075    -1.526351349343     0.357078202219     1.007825032230
         H            2.751246729075     0.207082650657    -0.003727797781     1.007825032230
         H            2.301887729075    -0.986615349343    -1.225587797781     1.007825032230
         H           -1.850410270925    -1.684197349343     0.329082202219     1.007825032230
         H           -2.257561270925    -1.038444349343    -1.115211797781     1.007825032230
         H            0.553492729075     1.793757650657     0.869623202219     1.007825032230

  Basis Set: AUG-CC-PVTZ
    Blend: AUG-CC-PVTZ
  Basis Set: (AUG-CC-PVTZ AUX)
    Blend: AUG-CC-PVTZ-JKFIT
	 Reference Energy          =    -287.2727722787009839 [Eh]
	 Singles Energy            =      -0.0000000000000000 [Eh]
	 Same-Spin Energy          =      -0.2926995330288500 [Eh]
	 Opposite-Spin Energy      =      -1.0025579957141459 [Eh]
	 Correlation Energy        =      -1.2952575287429959 [Eh]
	 Total Energy              =    -288.5680298074439634 [Eh]

	 ================> DF-SCS-MP2 Energies <==================
	-----------------------------------------------------------
	 SCS Same-Spin Scale       =       0.3333333333333333 [-]
	 SCS Opposite-Spin Scale   =       1.2000000000000000 [-]
	 SCS Same-Spin Energy      =      -0.0975665110096167 [Eh]
	 SCS Opposite-Spin Energy  =      -1.2030695948569752 [Eh]
	 SCS Correlation Energy    =      -1.3006361058665918 [Eh]
	 SCS Total Energy          =    -288.5734083845675855 [Eh]
	-----------------------------------------------------------

  Dipole Moment: [D]
     X:     0.8152      Y:    -1.2215      Z:     0.7129     Total:     1.6324

*** Psi4 exiting successfully. Buy a developer a beer!
