                               Psi4 1.4a3.dev225

  ==> Input File <==

--------------------------------------------------------------------------
#psi4
#
memory 32 gb

molecule  {
0 1
  O        0.5491460     1.6657540    -0.0835270
  N       -2.2770200    -0.8249540    -0.1044150
  C       -0.0231050     0.3654990    -0.2814520
  C        0.8312550    -0.7148260     0.3726500
  C       -1.4804950     0.3645050     0.1924430
  C        2.2653620    -0.7289500    -0.1466730
  H       -0.0068980     0.2268130    -1.3706510
  H        0.8244310    -0.5451890     1.4596650
  H        0.3655990    -1.6940980     0.2090450
  H       -1.4956300     0.5168070     1.2806640
  H       -1.9758410     1.2324740    -0.2546010
  H        2.8643550    -1.4881460     0.3640660
  H        2.7338870     0.2452880     0.0032600
  H        2.2845280    -0.9484100    -1.2186000
  H       -1.8677700    -1.6459920     0.3360700
  H       -2.2749210    -1.0002390    -1.1082240
  H        0.5354653     1.8404909     0.9258739
units angstrom
no_reorient  #important for SAPT in psi4, default
symmetry c1  #important for SAPT in psi4, default
}

set PROPERTIES_ORIGIN ["COM"]
properties('MP2/aug-cc-pvtz', properties = ['dipole'])
--------------------------------------------------------------------------

    Molecular point group: c1
  Charge       = 0
  Multiplicity = 1
  Basis Set: AUG-CC-PVTZ
    Blend: AUG-CC-PVTZ
  Basis Set: (AUG-CC-PVTZ AUX)
    Blend: AUG-CC-PVTZ-JKFIT

    Orbital Energies [Eh]
    ---------------------

    Doubly Occupied:

       1A    -20.563571     2A    -15.547566     3A    -11.277887
       4A    -11.250482     5A    -11.227363     6A    -11.214114
       7A     -1.348835     8A     -1.182487     9A     -1.052999
      10A     -0.956756    11A     -0.862391    12A     -0.801331
      13A     -0.676093    14A     -0.651149    15A     -0.643529
      16A     -0.630857    17A     -0.580530    18A     -0.555255
      19A     -0.540873    20A     -0.520584    21A     -0.501622
      22A     -0.488128    23A     -0.480310    24A     -0.452524
      25A     -0.387312

  @DF-RHF Final Energy:  -287.28143166120572

   => Energetics <=

    Nuclear Repulsion Energy =            259.4339436854530732
    One-Electron Energy =                -904.6416552871803560
    Two-Electron Energy =                 357.9262799405215674
    Total Energy =                       -287.2814316612057155
  Basis Set: (AUG-CC-PVTZ AUX)
    Blend: AUG-CC-PVTZ-RI
    Molecular point group: c1

    Geometry (in Angstrom), charge = 0, multiplicity = 1:

       Center              X                  Y                   Z               Mass
    ------------   -----------------  -----------------  -----------------  -----------------
         O            0.571403369633     1.629375722320    -0.077655563873    15.994914619570
         N           -2.254762630367    -0.861332277680    -0.098543563873    14.003074004430
         C           -0.000847630367     0.329120722320    -0.275580563873    12.000000000000
         C            0.853512369633    -0.751204277680     0.378521436127    12.000000000000
         C           -1.458237630367     0.328126722320     0.198314436127    12.000000000000
         C            2.287619369633    -0.765328277680    -0.140801563873    12.000000000000
         H            0.015359369633     0.190434722320    -1.364779563873     1.007825032230
         H            0.846688369633    -0.581567277680     1.465536436127     1.007825032230
         H            0.387856369633    -1.730476277680     0.214916436127     1.007825032230
         H           -1.473372630367     0.480428722320     1.286535436127     1.007825032230
         H           -1.953583630367     1.196095722320    -0.248729563873     1.007825032230
         H            2.886612369633    -1.524524277680     0.369937436127     1.007825032230
         H            2.756144369633     0.208909722320     0.009131436127     1.007825032230
         H            2.306785369633    -0.984788277680    -1.212728563873     1.007825032230
         H           -1.845512630367    -1.682370277680     0.341941436127     1.007825032230
         H           -2.252663630367    -1.036617277680    -1.102352563873     1.007825032230
         H            0.557722669633     1.804112622320     0.931745336127     1.007825032230

  Basis Set: AUG-CC-PVTZ
    Blend: AUG-CC-PVTZ
  Basis Set: (AUG-CC-PVTZ AUX)
    Blend: AUG-CC-PVTZ-JKFIT
	 Reference Energy          =    -287.2814316612057155 [Eh]
	 Singles Energy            =      -0.0000000000000000 [Eh]
	 Same-Spin Energy          =      -0.2933613831624086 [Eh]
	 Opposite-Spin Energy      =      -1.0034019807540457 [Eh]
	 Correlation Energy        =      -1.2967633639164544 [Eh]
	 Total Energy              =    -288.5781950251221701 [Eh]

	 ================> DF-SCS-MP2 Energies <==================
	-----------------------------------------------------------
	 SCS Same-Spin Scale       =       0.3333333333333333 [-]
	 SCS Opposite-Spin Scale   =       1.2000000000000000 [-]
	 SCS Same-Spin Energy      =      -0.0977871277208029 [Eh]
	 SCS Opposite-Spin Energy  =      -1.2040823769048548 [Eh]
	 SCS Correlation Energy    =      -1.3018695046256576 [Eh]
	 SCS Total Energy          =    -288.5833011658313580 [Eh]
	-----------------------------------------------------------

  Dipole Moment: [D]
     X:     0.7235      Y:    -1.2846      Z:     0.6526     Total:     1.6123

*** Psi4 exiting successfully. Buy a developer a beer!
