                               Psi4 1.4a3.dev225

  ==> Input File <==

--------------------------------------------------------------------------
#psi4
#
memory 32 gb

molecule  {
0 1
  O        0.5491460     1.6657540    -0.0835270
  N       -2.2770200    -0.8249540    -0.1044150
  C       -0.0231050     0.3654990    -0.2814520
  C        0.8312550    -0.7148260     0.3726500
  C       -1.4804950     0.3645050     0.1924430
  C        2.2183515    -0.7284870    -0.1296494
  H       -0.0068980     0.2268130    -1.3706510
  H        0.8244310    -0.5451890     1.4596650
  H        0.3655990    -1.6940980     0.2090450
  H       -1.4956300     0.5168070     1.2806640
  H       -1.9758410     1.2324740    -0.2546010
  H        2.8643550    -1.4881460     0.3640660
  H        2.7338870     0.2452880     0.0032600
  H        2.2845280    -0.9484100    -1.2186000
  H       -1.8677700    -1.6459920     0.3360700
  H       -2.2749210    -1.0002390    -1.1082240
  H        0.5361330     1.8319630     0.8766110
units angstrom
no_reorient  #important for SAPT in psi4, default
symmetry c1  #important for SAPT in psi4, default
}

set PROPERTIES_ORIGIN ["COM"]
properties('MP2/aug-cc-pvtz', properties = ['dipole'])
--------------------------------------------------------------------------

    Molecular point group: c1
  Charge       = 0
  Multiplicity = 1
  Basis Set: AUG-CC-PVTZ
    Blend: AUG-CC-PVTZ
  Basis Set: (AUG-CC-PVTZ AUX)
    Blend: AUG-CC-PVTZ-JKFIT

    Orbital Energies [Eh]
    ---------------------

    Doubly Occupied:

       1A    -20.559240     2A    -15.547977     3A    -11.278435
       4A    -11.250902     5A    -11.225707     6A    -11.216582
       7A     -1.358932     8A     -1.183143     9A     -1.062183
      10A     -0.959183    11A     -0.859580    12A     -0.805221
      13A     -0.677460    14A     -0.658996    15A     -0.646030
      16A     -0.633330    17A     -0.581044    18A     -0.556607
      19A     -0.544558    20A     -0.515630    21A     -0.510720
      22A     -0.485223    23A     -0.477879    24A     -0.451544
      25A     -0.387993

  @DF-RHF Final Energy:  -287.28356474513527

   => Energetics <=

    Nuclear Repulsion Energy =            260.4172685400081946
    One-Electron Energy =                -906.5334663196699694
    Two-Electron Energy =                 358.8326330345265092
    Total Energy =                       -287.2835647451352656
  Basis Set: (AUG-CC-PVTZ AUX)
    Blend: AUG-CC-PVTZ-RI
    Molecular point group: c1

    Geometry (in Angstrom), charge = 0, multiplicity = 1:

       Center              X                  Y                   Z               Mass
    ------------   -----------------  -----------------  -----------------  -----------------
         O            0.577728328891     1.629409832024    -0.079391394159    15.994914619570
         N           -2.248437671109    -0.861298167976    -0.100279394159    14.003074004430
         C            0.005477328891     0.329154832024    -0.277316394159    12.000000000000
         C            0.859837328891    -0.751170167976     0.376785605841    12.000000000000
         C           -1.451912671109     0.328160832024     0.196578605841    12.000000000000
         C            2.246933828891    -0.764831167976    -0.125513794159    12.000000000000
         H            0.021684328891     0.190468832024    -1.366515394159     1.007825032230
         H            0.853013328891    -0.581533167976     1.463800605841     1.007825032230
         H            0.394181328891    -1.730442167976     0.213180605841     1.007825032230
         H           -1.467047671109     0.480462832024     1.284799605841     1.007825032230
         H           -1.947258671109     1.196129832024    -0.250465394159     1.007825032230
         H            2.892937328891    -1.524490167976     0.368201605841     1.007825032230
         H            2.762469328891     0.208943832024     0.007395605841     1.007825032230
         H            2.313110328891    -0.984754167976    -1.214464394159     1.007825032230
         H           -1.839187671109    -1.682336167976     0.340205605841     1.007825032230
         H           -2.246338671109    -1.036583167976    -1.104088394159     1.007825032230
         H            0.564715328891     1.795618832024     0.880746605841     1.007825032230

  Basis Set: AUG-CC-PVTZ
    Blend: AUG-CC-PVTZ
  Basis Set: (AUG-CC-PVTZ AUX)
    Blend: AUG-CC-PVTZ-JKFIT
	 Reference Energy          =    -287.2835647451352656 [Eh]
	 Singles Energy            =      -0.0000000000000000 [Eh]
	 Same-Spin Energy          =      -0.2931693016039294 [Eh]
	 Opposite-Spin Energy      =      -1.0022147650095019 [Eh]
	 Correlation Energy        =      -1.2953840666134313 [Eh]
	 Total Energy              =    -288.5789488117487167 [Eh]

	 ================> DF-SCS-MP2 Energies <==================
	-----------------------------------------------------------
	 SCS Same-Spin Scale       =       0.3333333333333333 [-]
	 SCS Opposite-Spin Scale   =       1.2000000000000000 [-]
	 SCS Same-Spin Energy      =      -0.0977231005346431 [Eh]
	 SCS Opposite-Spin Energy  =      -1.2026577180114022 [Eh]
	 SCS Correlation Energy    =      -1.3003808185460453 [Eh]
	 SCS Total Energy          =    -288.5839455636813113 [Eh]
	-----------------------------------------------------------

  Dipole Moment: [D]
     X:     0.7107      Y:    -1.2948      Z:     0.6323     Total:     1.6067

*** Psi4 exiting successfully. Buy a developer a beer!
