                               Psi4 1.4a3.dev225

  ==> Input File <==

--------------------------------------------------------------------------
#psi4
#
memory 32 gb

molecule  {
0 1
  O        0.5491460     1.6657540    -0.0835270
  N       -2.2770200    -0.8249540    -0.1044150
  C       -0.0231050     0.3654990    -0.2814520
  C        0.8312550    -0.7148260     0.3726500
  C       -1.5894601     0.2017862     0.1518326
  C        2.2653620    -0.7289500    -0.1466730
  H       -0.0068980     0.2268130    -1.3706510
  H        0.8244310    -0.5451890     1.4596650
  H        0.3655990    -1.6940980     0.2090450
  H       -1.4956300     0.5168070     1.2806640
  H       -1.9758410     1.2324740    -0.2546010
  H        2.8643550    -1.4881460     0.3640660
  H        2.7338870     0.2452880     0.0032600
  H        2.2845280    -0.9484100    -1.2186000
  H       -1.8677700    -1.6459920     0.3360700
  H       -2.2749210    -1.0002390    -1.1082240
  H        0.5361330     1.8319630     0.8766110
units angstrom
no_reorient  #important for SAPT in psi4, default
symmetry c1  #important for SAPT in psi4, default
}

set PROPERTIES_ORIGIN ["COM"]
properties('MP2/aug-cc-pvtz', properties = ['dipole'])
--------------------------------------------------------------------------

    Molecular point group: c1
  Charge       = 0
  Multiplicity = 1
  Basis Set: AUG-CC-PVTZ
    Blend: AUG-CC-PVTZ
  Basis Set: (AUG-CC-PVTZ AUX)
    Blend: AUG-CC-PVTZ-JKFIT

    Orbital Energies [Eh]
    ---------------------

    Doubly Occupied:

       1A    -20.561254     2A    -15.553923     3A    -11.274705
       4A    -11.260126     5A    -11.224109     6A    -11.211339
       7A     -1.355350     8A     -1.261454     9A     -1.050200
      10A     -0.937555    11A     -0.853624    12A     -0.802084
      13A     -0.704481    14A     -0.678723    15A     -0.645484
      16A     -0.642230    17A     -0.588778    18A     -0.566187
      19A     -0.537514    20A     -0.518368    21A     -0.496330
      22A     -0.486396    23A     -0.472454    24A     -0.440945
      25A     -0.357739

  @DF-RHF Final Energy:  -287.23591373168455

   => Energetics <=

    Nuclear Repulsion Energy =            260.2123364737764746
    One-Electron Energy =                -905.9337963726368343
    Two-Electron Energy =                 358.4855461671757553
    Total Energy =                       -287.2359137316845477
  Basis Set: (AUG-CC-PVTZ AUX)
    Blend: AUG-CC-PVTZ-RI
    Molecular point group: c1

    Geometry (in Angstrom), charge = 0, multiplicity = 1:

       Center              X                  Y                   Z               Mass
    ------------   -----------------  -----------------  -----------------  -----------------
         O            0.586073875410     1.651391110297    -0.071627850724    15.994914619570
         N           -2.240092124590    -0.839316889703    -0.092515850724    14.003074004430
         C            0.013822875410     0.351136110297    -0.269552850724    12.000000000000
         C            0.868182875410    -0.729188889703     0.384549149276    12.000000000000
         C           -1.552532224590     0.187423310297     0.163731749276    12.000000000000
         C            2.302289875410    -0.743312889703    -0.134773850724    12.000000000000
         H            0.030029875410     0.212450110297    -1.358751850724     1.007825032230
         H            0.861358875410    -0.559551889703     1.471564149276     1.007825032230
         H            0.402526875410    -1.708460889703     0.220944149276     1.007825032230
         H           -1.458702124590     0.502444110297     1.292563149276     1.007825032230
         H           -1.938913124590     1.218111110297    -0.242701850724     1.007825032230
         H            2.901282875410    -1.502508889703     0.375965149276     1.007825032230
         H            2.770814875410     0.230925110297     0.015159149276     1.007825032230
         H            2.321455875410    -0.962772889703    -1.206700850724     1.007825032230
         H           -1.830842124590    -1.660354889703     0.347969149276     1.007825032230
         H           -2.237993124590    -1.014601889703    -1.096324850724     1.007825032230
         H            0.573060875410     1.817600110297     0.888510149276     1.007825032230

  Basis Set: AUG-CC-PVTZ
    Blend: AUG-CC-PVTZ
  Basis Set: (AUG-CC-PVTZ AUX)
    Blend: AUG-CC-PVTZ-JKFIT
	 Reference Energy          =    -287.2359137316845477 [Eh]
	 Singles Energy            =      -0.0000000000000000 [Eh]
	 Same-Spin Energy          =      -0.2953415961208081 [Eh]
	 Opposite-Spin Energy      =      -1.0042496512166839 [Eh]
	 Correlation Energy        =      -1.2995912473374920 [Eh]
	 Total Energy              =    -288.5355049790220505 [Eh]

	 ================> DF-SCS-MP2 Energies <==================
	-----------------------------------------------------------
	 SCS Same-Spin Scale       =       0.3333333333333333 [-]
	 SCS Opposite-Spin Scale   =       1.2000000000000000 [-]
	 SCS Same-Spin Energy      =      -0.0984471987069360 [Eh]
	 SCS Opposite-Spin Energy  =      -1.2050995814600205 [Eh]
	 SCS Correlation Energy    =      -1.3035467801669565 [Eh]
	 SCS Total Energy          =    -288.5394605118515301 [Eh]
	-----------------------------------------------------------

  Dipole Moment: [D]
     X:     0.3043      Y:    -1.7631      Z:     0.4944     Total:     1.8562

*** Psi4 exiting successfully. Buy a developer a beer!
