                               Psi4 1.4a3.dev225

  ==> Input File <==

--------------------------------------------------------------------------
#psi4
#
memory 32 gb

molecule  {
0 1
  O        0.5491460     1.6657540    -0.0835270
  N       -2.2770200    -0.8249540    -0.1044150
  C       -0.0231050     0.3654990    -0.2814520
  C        0.8312550    -0.7148260     0.3726500
  C       -1.4804950     0.3645050     0.1924430
  C        2.2653620    -0.7289500    -0.1466730
  H       -0.0039462     0.2015540    -1.5690276
  H        0.8244310    -0.5451890     1.4596650
  H        0.3655990    -1.6940980     0.2090450
  H       -1.4956300     0.5168070     1.2806640
  H       -1.9758410     1.2324740    -0.2546010
  H        2.8643550    -1.4881460     0.3640660
  H        2.7338870     0.2452880     0.0032600
  H        2.2845280    -0.9484100    -1.2186000
  H       -1.8677700    -1.6459920     0.3360700
  H       -2.2749210    -1.0002390    -1.1082240
  H        0.5361330     1.8319630     0.8766110
units angstrom
no_reorient  #important for SAPT in psi4, default
symmetry c1  #important for SAPT in psi4, default
}

set PROPERTIES_ORIGIN ["COM"]
properties('MP2/aug-cc-pvtz', properties = ['dipole'])
--------------------------------------------------------------------------

    Molecular point group: c1
  Charge       = 0
  Multiplicity = 1
  Basis Set: AUG-CC-PVTZ
    Blend: AUG-CC-PVTZ
  Basis Set: (AUG-CC-PVTZ AUX)
    Blend: AUG-CC-PVTZ-JKFIT

    Orbital Energies [Eh]
    ---------------------

    Doubly Occupied:

       1A    -20.563000     2A    -15.547795     3A    -11.302215
       4A    -11.253543     5A    -11.230546     6A    -11.214637
       7A     -1.361554     8A     -1.183058     9A     -1.053600
      10A     -0.955704    11A     -0.863122    12A     -0.790808
      13A     -0.676686    14A     -0.659932    15A     -0.641461
      16A     -0.632227    17A     -0.579943    18A     -0.554670
      19A     -0.541088    20A     -0.517275    21A     -0.503622
      22A     -0.487938    23A     -0.473282    24A     -0.445755
      25A     -0.389304

  @DF-RHF Final Energy:  -287.26681658274407

   => Energetics <=

    Nuclear Repulsion Energy =            258.7890915671994208
    One-Electron Energy =                -903.2662838411098392
    Two-Electron Energy =                 357.2103756911663481
    Total Energy =                       -287.2668165827440703
  Basis Set: (AUG-CC-PVTZ AUX)
    Blend: AUG-CC-PVTZ-RI
    Molecular point group: c1

    Geometry (in Angstrom), charge = 0, multiplicity = 1:

       Center              X                  Y                   Z               Mass
    ------------   -----------------  -----------------  -----------------  -----------------
         O            0.571362421538     1.629757959974    -0.074853970906    15.994914619570
         N           -2.254803578462    -0.860950040026    -0.095741970906    14.003074004430
         C           -0.000888578462     0.329502959974    -0.272778970906    12.000000000000
         C            0.853471421538    -0.750822040026     0.381323029094    12.000000000000
         C           -1.458278578462     0.328508959974     0.201116029094    12.000000000000
         C            2.287578421538    -0.764946040026    -0.137999970906    12.000000000000
         H            0.018270221538     0.165557959974    -1.560354570906     1.007825032230
         H            0.846647421538    -0.581185040026     1.468338029094     1.007825032230
         H            0.387815421538    -1.730094040026     0.217718029094     1.007825032230
         H           -1.473413578462     0.480810959974     1.289337029094     1.007825032230
         H           -1.953624578462     1.196477959974    -0.245927970906     1.007825032230
         H            2.886571421538    -1.524142040026     0.372739029094     1.007825032230
         H            2.756103421538     0.209291959974     0.011933029094     1.007825032230
         H            2.306744421538    -0.984406040026    -1.209926970906     1.007825032230
         H           -1.845553578462    -1.681988040026     0.344743029094     1.007825032230
         H           -2.252704578462    -1.036235040026    -1.099550970906     1.007825032230
         H            0.558349421538     1.795966959974     0.885284029094     1.007825032230

  Basis Set: AUG-CC-PVTZ
    Blend: AUG-CC-PVTZ
  Basis Set: (AUG-CC-PVTZ AUX)
    Blend: AUG-CC-PVTZ-JKFIT
	 Reference Energy          =    -287.2668165827440703 [Eh]
	 Singles Energy            =      -0.0000000000000000 [Eh]
	 Same-Spin Energy          =      -0.2930755613795348 [Eh]
	 Opposite-Spin Energy      =      -1.0036104746634882 [Eh]
	 Correlation Energy        =      -1.2966860360430230 [Eh]
	 Total Energy              =    -288.5635026187870835 [Eh]

	 ================> DF-SCS-MP2 Energies <==================
	-----------------------------------------------------------
	 SCS Same-Spin Scale       =       0.3333333333333333 [-]
	 SCS Opposite-Spin Scale   =       1.2000000000000000 [-]
	 SCS Same-Spin Energy      =      -0.0976918537931783 [Eh]
	 SCS Opposite-Spin Energy  =      -1.2043325695961857 [Eh]
	 SCS Correlation Energy    =      -1.3020244233893641 [Eh]
	 SCS Total Energy          =    -288.5688410061334253 [Eh]
	-----------------------------------------------------------

  Dipole Moment: [D]
     X:     0.7356      Y:    -1.2610      Z:     0.7994     Total:     1.6645

*** Psi4 exiting successfully. Buy a developer a beer!
