                               Psi4 1.4a3.dev225

  ==> Input File <==

--------------------------------------------------------------------------
#psi4
#
memory 32 gb

molecule  {
0 1
  O        0.5491460     1.6657540    -0.0835270
  N       -2.2770200    -0.8249540    -0.1044150
  C       -0.0231050     0.3654990    -0.2814520
  C        0.8312550    -0.7148260     0.3726500
  C       -1.4804950     0.3645050     0.1924430
  C        2.2653620    -0.7289500    -0.1466730
  H       -0.0083739     0.2394425    -1.2714627
  H        0.8244310    -0.5451890     1.4596650
  H        0.3655990    -1.6940980     0.2090450
  H       -1.4956300     0.5168070     1.2806640
  H       -1.9758410     1.2324740    -0.2546010
  H        2.8643550    -1.4881460     0.3640660
  H        2.7338870     0.2452880     0.0032600
  H        2.2845280    -0.9484100    -1.2186000
  H       -1.8677700    -1.6459920     0.3360700
  H       -2.2749210    -1.0002390    -1.1082240
  H        0.5361330     1.8319630     0.8766110
units angstrom
no_reorient  #important for SAPT in psi4, default
symmetry c1  #important for SAPT in psi4, default
}

set PROPERTIES_ORIGIN ["COM"]
properties('MP2/aug-cc-pvtz', properties = ['dipole'])
--------------------------------------------------------------------------

    Molecular point group: c1
  Charge       = 0
  Multiplicity = 1
  Basis Set: AUG-CC-PVTZ
    Blend: AUG-CC-PVTZ
  Basis Set: (AUG-CC-PVTZ AUX)
    Blend: AUG-CC-PVTZ-JKFIT

    Orbital Energies [Eh]
    ---------------------

    Doubly Occupied:

       1A    -20.557568     2A    -15.547871     3A    -11.265159
       4A    -11.249764     5A    -11.226582     6A    -11.214259
       7A     -1.357871     8A     -1.183076     9A     -1.055841
      10A     -0.961389    11A     -0.863645    12A     -0.815853
      13A     -0.676582    14A     -0.657678    15A     -0.647315
      16A     -0.632065    17A     -0.582399    18A     -0.557746
      19A     -0.545019    20A     -0.523093    21A     -0.501544
      22A     -0.490312    23A     -0.483167    24A     -0.454135
      25A     -0.387123

  @DF-RHF Final Energy:  -287.28094108781579

   => Energetics <=

    Nuclear Repulsion Energy =            260.2477728598643694
    One-Electron Energy =                -906.1833172402464243
    Two-Electron Energy =                 358.6546032925662075
    Total Energy =                       -287.2809410878157905
  Basis Set: (AUG-CC-PVTZ AUX)
    Blend: AUG-CC-PVTZ-RI
    Molecular point group: c1

    Geometry (in Angstrom), charge = 0, multiplicity = 1:

       Center              X                  Y                   Z               Mass
    ------------   -----------------  -----------------  -----------------  -----------------
         O            0.571412512954     1.629329320136    -0.078220379460    15.994914619570
         N           -2.254753487046    -0.861378679864    -0.099108379460    14.003074004430
         C           -0.000838487046     0.329074320136    -0.276145379460    12.000000000000
         C            0.853521512954    -0.751250679864     0.377956620540    12.000000000000
         C           -1.458228487046     0.328080320136     0.197749620540    12.000000000000
         C            2.287628512954    -0.765374679864    -0.141366379460    12.000000000000
         H            0.013892612954     0.203017820136    -1.266156079460     1.007825032230
         H            0.846697512954    -0.581613679864     1.464971620540     1.007825032230
         H            0.387865512954    -1.730522679864     0.214351620540     1.007825032230
         H           -1.473363487046     0.480382320136     1.285970620540     1.007825032230
         H           -1.953574487046     1.196049320136    -0.249294379460     1.007825032230
         H            2.886621512954    -1.524570679864     0.369372620540     1.007825032230
         H            2.756153512954     0.208863320136     0.008566620540     1.007825032230
         H            2.306794512954    -0.984834679864    -1.213293379460     1.007825032230
         H           -1.845503487046    -1.682416679864     0.341376620540     1.007825032230
         H           -2.252654487046    -1.036663679864    -1.102917379460     1.007825032230
         H            0.558399512954     1.795538320136     0.881917620540     1.007825032230

  Basis Set: AUG-CC-PVTZ
    Blend: AUG-CC-PVTZ
  Basis Set: (AUG-CC-PVTZ AUX)
    Blend: AUG-CC-PVTZ-JKFIT
	 Reference Energy          =    -287.2809410878157905 [Eh]
	 Singles Energy            =      -0.0000000000000000 [Eh]
	 Same-Spin Energy          =      -0.2926598238234280 [Eh]
	 Opposite-Spin Energy      =      -1.0012425869014030 [Eh]
	 Correlation Energy        =      -1.2939024107248311 [Eh]
	 Total Energy              =    -288.5748434985406448 [Eh]

	 ================> DF-SCS-MP2 Energies <==================
	-----------------------------------------------------------
	 SCS Same-Spin Scale       =       0.3333333333333333 [-]
	 SCS Opposite-Spin Scale   =       1.2000000000000000 [-]
	 SCS Same-Spin Energy      =      -0.0975532746078093 [Eh]
	 SCS Opposite-Spin Energy  =      -1.2014911042816836 [Eh]
	 SCS Correlation Energy    =      -1.2990443788894930 [Eh]
	 SCS Total Energy          =    -288.5799854667052955 [Eh]
	-----------------------------------------------------------

  Dipole Moment: [D]
     X:     0.7120      Y:    -1.3172      Z:     0.5723     Total:     1.6029

*** Psi4 exiting successfully. Buy a developer a beer!
