                               Psi4 1.4a3.dev225

  ==> Input File <==

--------------------------------------------------------------------------
#psi4
#
memory 32 gb

molecule  {
0 1
  O        0.5491460     1.6657540    -0.0835270
  N       -2.2770200    -0.8249540    -0.1044150
  C       -0.0897709     0.2886359    -0.3126660
  C        0.8312550    -0.7148260     0.3726500
  C       -1.4804950     0.3645050     0.1924430
  C        2.2653620    -0.7289500    -0.1466730
  H       -0.0068980     0.2268130    -1.3706510
  H        0.8244310    -0.5451890     1.4596650
  H        0.3655990    -1.6940980     0.2090450
  H       -1.4956300     0.5168070     1.2806640
  H       -1.9758410     1.2324740    -0.2546010
  H        2.8643550    -1.4881460     0.3640660
  H        2.7338870     0.2452880     0.0032600
  H        2.2845280    -0.9484100    -1.2186000
  H       -1.8677700    -1.6459920     0.3360700
  H       -2.2749210    -1.0002390    -1.1082240
  H        0.5361330     1.8319630     0.8766110
units angstrom
no_reorient  #important for SAPT in psi4, default
symmetry c1  #important for SAPT in psi4, default
}

set PROPERTIES_ORIGIN ["COM"]
properties('MP2/aug-cc-pvtz', properties = ['dipole'])
--------------------------------------------------------------------------

    Molecular point group: c1
  Charge       = 0
  Multiplicity = 1
  Basis Set: AUG-CC-PVTZ
    Blend: AUG-CC-PVTZ
  Basis Set: (AUG-CC-PVTZ AUX)
    Blend: AUG-CC-PVTZ-JKFIT

    Orbital Energies [Eh]
    ---------------------

    Doubly Occupied:

       1A    -20.545247     2A    -15.548796     3A    -11.280525
       4A    -11.253066     5A    -11.231280     6A    -11.215856
       7A     -1.321952     8A     -1.189158     9A     -1.057323
      10A     -0.967891    11A     -0.866993    12A     -0.804199
      13A     -0.679227    14A     -0.649129    15A     -0.637597
      16A     -0.623897    17A     -0.584758    18A     -0.557722
      19A     -0.538152    20A     -0.520962    21A     -0.503065
      22A     -0.490703    23A     -0.477453    24A     -0.450466
      25A     -0.395545

  @DF-RHF Final Energy:  -287.27571794018991

   => Energetics <=

    Nuclear Repulsion Energy =            259.3252200148925795
    One-Electron Energy =                -904.4199540788376908
    Two-Electron Energy =                 357.8190161237552047
    Total Energy =                       -287.2757179401899066
  Basis Set: (AUG-CC-PVTZ AUX)
    Blend: AUG-CC-PVTZ-RI
    Molecular point group: c1

    Geometry (in Angstrom), charge = 0, multiplicity = 1:

       Center              X                  Y                   Z               Mass
    ------------   -----------------  -----------------  -----------------  -----------------
         O            0.580375994360     1.639825984572    -0.072893585525    15.994914619570
         N           -2.245790005640    -0.850882015428    -0.093781585525    14.003074004430
         C           -0.058540905640     0.262707884572    -0.302032585525    12.000000000000
         C            0.862484994360    -0.740754015428     0.383283414475    12.000000000000
         C           -1.449265005640     0.338576984572     0.203076414475    12.000000000000
         C            2.296591994360    -0.754878015428    -0.136039585525    12.000000000000
         H            0.024331994360     0.200884984572    -1.360017585525     1.007825032230
         H            0.855660994360    -0.571117015428     1.470298414475     1.007825032230
         H            0.396828994360    -1.720026015428     0.219678414475     1.007825032230
         H           -1.464400005640     0.490878984572     1.291297414475     1.007825032230
         H           -1.944611005640     1.206545984572    -0.243967585525     1.007825032230
         H            2.895584994360    -1.514074015428     0.374699414475     1.007825032230
         H            2.765116994360     0.219359984572     0.013893414475     1.007825032230
         H            2.315757994360    -0.974338015428    -1.207966585525     1.007825032230
         H           -1.836540005640    -1.671920015428     0.346703414475     1.007825032230
         H           -2.243691005640    -1.026167015428    -1.097590585525     1.007825032230
         H            0.567362994360     1.806034984572     0.887244414475     1.007825032230

  Basis Set: AUG-CC-PVTZ
    Blend: AUG-CC-PVTZ
  Basis Set: (AUG-CC-PVTZ AUX)
    Blend: AUG-CC-PVTZ-JKFIT
	 Reference Energy          =    -287.2757179401899066 [Eh]
	 Singles Energy            =      -0.0000000000000000 [Eh]
	 Same-Spin Energy          =      -0.2932301367332892 [Eh]
	 Opposite-Spin Energy      =      -1.0037755616923416 [Eh]
	 Correlation Energy        =      -1.2970056984256308 [Eh]
	 Total Energy              =    -288.5727236386155141 [Eh]

	 ================> DF-SCS-MP2 Energies <==================
	-----------------------------------------------------------
	 SCS Same-Spin Scale       =       0.3333333333333333 [-]
	 SCS Opposite-Spin Scale   =       1.2000000000000000 [-]
	 SCS Same-Spin Energy      =      -0.0977433789110964 [Eh]
	 SCS Opposite-Spin Energy  =      -1.2045306740308099 [Eh]
	 SCS Correlation Energy    =      -1.3022740529419063 [Eh]
	 SCS Total Energy          =    -288.5779919931318318 [Eh]
	-----------------------------------------------------------

  Dipole Moment: [D]
     X:     0.5733      Y:    -1.5649      Z:     0.5753     Total:     1.7631

*** Psi4 exiting successfully. Buy a developer a beer!
