                               Psi4 1.4a3.dev225

  ==> Input File <==

--------------------------------------------------------------------------
#psi4
#
memory 32 gb

molecule  {
0 1
  O        0.5491460     1.6657540    -0.0835270
  N       -2.2770200    -0.8249540    -0.1044150
  C       -0.0231050     0.3654990    -0.2814520
  C        0.8312550    -0.7148260     0.3726500
  C       -1.4545370     0.3748284     0.0419860
  C        2.2653620    -0.7289500    -0.1466730
  H       -0.0068980     0.2268130    -1.3706510
  H        0.8244310    -0.5451890     1.4596650
  H        0.3655990    -1.6940980     0.2090450
  H       -1.4956300     0.5168070     1.2806640
  H       -1.9758410     1.2324740    -0.2546010
  H        2.8643550    -1.4881460     0.3640660
  H        2.7338870     0.2452880     0.0032600
  H        2.2845280    -0.9484100    -1.2186000
  H       -1.8677700    -1.6459920     0.3360700
  H       -2.2749210    -1.0002390    -1.1082240
  H        0.5361330     1.8319630     0.8766110
units angstrom
no_reorient  #important for SAPT in psi4, default
symmetry c1  #important for SAPT in psi4, default
}

set PROPERTIES_ORIGIN ["COM"]
properties('MP2/aug-cc-pvtz', properties = ['dipole'])
--------------------------------------------------------------------------

    Molecular point group: c1
  Charge       = 0
  Multiplicity = 1
  Basis Set: AUG-CC-PVTZ
    Blend: AUG-CC-PVTZ
  Basis Set: (AUG-CC-PVTZ AUX)
    Blend: AUG-CC-PVTZ-JKFIT

    Orbital Energies [Eh]
    ---------------------

    Doubly Occupied:

       1A    -20.560888     2A    -15.552638     3A    -11.278495
       4A    -11.258073     5A    -11.230434     6A    -11.215776
       7A     -1.361049     8A     -1.189020     9A     -1.057910
      10A     -0.970145    11A     -0.863377    12A     -0.801995
      13A     -0.683848    14A     -0.659961    15A     -0.646704
      16A     -0.637269    17A     -0.586609    18A     -0.566845
      19A     -0.539929    20A     -0.515045    21A     -0.492617
      22A     -0.489583    23A     -0.475132    24A     -0.440843
      25A     -0.398625

  @DF-RHF Final Energy:  -287.26253384119411

   => Energetics <=

    Nuclear Repulsion Energy =            260.3947011713504480
    One-Electron Energy =                -906.3688532568945675
    Two-Electron Energy =                 358.7116182443500065
    Total Energy =                       -287.2625338411941129
  Basis Set: (AUG-CC-PVTZ AUX)
    Blend: AUG-CC-PVTZ-RI
    Molecular point group: c1

    Geometry (in Angstrom), charge = 0, multiplicity = 1:

       Center              X                  Y                   Z               Mass
    ------------   -----------------  -----------------  -----------------  -----------------
         O            0.567899163484     1.628081594462    -0.056831049353    15.994914619570
         N           -2.258266836516    -0.862626405538    -0.077719049353    14.003074004430
         C           -0.004351836516     0.327826594462    -0.254756049353    12.000000000000
         C            0.850008163484    -0.752498405538     0.399345950647    12.000000000000
         C           -1.435783836516     0.337155994462     0.068681950647    12.000000000000
         C            2.284115163484    -0.766622405538    -0.119977049353    12.000000000000
         H            0.011855163484     0.189140594462    -1.343955049353     1.007825032230
         H            0.843184163484    -0.582861405538     1.486360950647     1.007825032230
         H            0.384352163484    -1.731770405538     0.235740950647     1.007825032230
         H           -1.476876836516     0.479134594462     1.307359950647     1.007825032230
         H           -1.957087836516     1.194801594462    -0.227905049353     1.007825032230
         H            2.883108163484    -1.525818405538     0.390761950647     1.007825032230
         H            2.752640163484     0.207615594462     0.029955950647     1.007825032230
         H            2.303281163484    -0.986082405538    -1.191904049353     1.007825032230
         H           -1.849016836516    -1.683664405538     0.362765950647     1.007825032230
         H           -2.256167836516    -1.037911405538    -1.081528049353     1.007825032230
         H            0.554886163484     1.794290594462     0.903306950647     1.007825032230

  Basis Set: AUG-CC-PVTZ
    Blend: AUG-CC-PVTZ
  Basis Set: (AUG-CC-PVTZ AUX)
    Blend: AUG-CC-PVTZ-JKFIT
	 Reference Energy          =    -287.2625338411941129 [Eh]
	 Singles Energy            =      -0.0000000000000000 [Eh]
	 Same-Spin Energy          =      -0.2938256775859027 [Eh]
	 Opposite-Spin Energy      =      -1.0037734284962876 [Eh]
	 Correlation Energy        =      -1.2975991060821903 [Eh]
	 Total Energy              =    -288.5601329472763155 [Eh]

	 ================> DF-SCS-MP2 Energies <==================
	-----------------------------------------------------------
	 SCS Same-Spin Scale       =       0.3333333333333333 [-]
	 SCS Opposite-Spin Scale   =       1.2000000000000000 [-]
	 SCS Same-Spin Energy      =      -0.0979418925286342 [Eh]
	 SCS Opposite-Spin Energy  =      -1.2045281141955451 [Eh]
	 SCS Correlation Energy    =      -1.3024700067241792 [Eh]
	 SCS Total Energy          =    -288.5650038479183195 [Eh]
	-----------------------------------------------------------

  Dipole Moment: [D]
     X:     0.7350      Y:    -1.3733      Z:     0.4429     Total:     1.6194

*** Psi4 exiting successfully. Buy a developer a beer!
