                               Psi4 1.4a3.dev225

  ==> Input File <==

--------------------------------------------------------------------------
#psi4
#
memory 32 gb

molecule  {
0 1
  O        0.5491460     1.6657540    -0.0835270
  N       -2.2770200    -0.8249540    -0.1044150
  C       -0.0231050     0.3654990    -0.2814520
  C        0.8037020    -0.5967239     0.2688088
  C       -1.4804950     0.3645050     0.1924430
  C        2.2653620    -0.7289500    -0.1466730
  H       -0.0068980     0.2268130    -1.3706510
  H        0.8244310    -0.5451890     1.4596650
  H        0.3655990    -1.6940980     0.2090450
  H       -1.4956300     0.5168070     1.2806640
  H       -1.9758410     1.2324740    -0.2546010
  H        2.8643550    -1.4881460     0.3640660
  H        2.7338870     0.2452880     0.0032600
  H        2.2845280    -0.9484100    -1.2186000
  H       -1.8677700    -1.6459920     0.3360700
  H       -2.2749210    -1.0002390    -1.1082240
  H        0.5361330     1.8319630     0.8766110
units angstrom
no_reorient  #important for SAPT in psi4, default
symmetry c1  #important for SAPT in psi4, default
}

set PROPERTIES_ORIGIN ["COM"]
properties('MP2/aug-cc-pvtz', properties = ['dipole'])
--------------------------------------------------------------------------

    Molecular point group: c1
  Charge       = 0
  Multiplicity = 1
  Basis Set: AUG-CC-PVTZ
    Blend: AUG-CC-PVTZ
  Basis Set: (AUG-CC-PVTZ AUX)
    Blend: AUG-CC-PVTZ-JKFIT

    Orbital Energies [Eh]
    ---------------------

    Doubly Occupied:

       1A    -20.558119     2A    -15.548034     3A    -11.272556
       4A    -11.253528     5A    -11.237920     6A    -11.217732
       7A     -1.362716     8A     -1.184433     9A     -1.072083
      10A     -0.963911    11A     -0.875151    12A     -0.795763
      13A     -0.677153    14A     -0.661018    15A     -0.647934
      16A     -0.642397    17A     -0.579405    18A     -0.560187
      19A     -0.543739    20A     -0.529786    21A     -0.501889
      22A     -0.480543    23A     -0.461299    24A     -0.452736
      25A     -0.390224

  @DF-RHF Final Energy:  -287.25687652938507

   => Energetics <=

    Nuclear Repulsion Energy =            261.7046603068636728
    One-Electron Energy =                -908.9825633383753711
    Two-Electron Energy =                 360.0210265021265741
    Total Energy =                       -287.2568765293850674
  Basis Set: (AUG-CC-PVTZ AUX)
    Blend: AUG-CC-PVTZ-RI
    Molecular point group: c1

    Geometry (in Angstrom), charge = 0, multiplicity = 1:

       Center              X                  Y                   Z               Mass
    ------------   -----------------  -----------------  -----------------  -----------------
         O            0.575107321389     1.613563347963    -0.063110394671    15.994914619570
         N           -2.251058678611    -0.877144652037    -0.083998394671    14.003074004430
         C            0.002856321389     0.313308347963    -0.261035394671    12.000000000000
         C            0.829663321389    -0.648914552037     0.289225405329    12.000000000000
         C           -1.454533678611     0.312314347963     0.212859605329    12.000000000000
         C            2.291323321389    -0.781140652037    -0.126256394671    12.000000000000
         H            0.019063321389     0.174622347963    -1.350234394671     1.007825032230
         H            0.850392321389    -0.597379652037     1.480081605329     1.007825032230
         H            0.391560321389    -1.746288652037     0.229461605329     1.007825032230
         H           -1.469668678611     0.464616347963     1.301080605329     1.007825032230
         H           -1.949879678611     1.180283347963    -0.234184394671     1.007825032230
         H            2.890316321389    -1.540336652037     0.384482605329     1.007825032230
         H            2.759848321389     0.193097347963     0.023676605329     1.007825032230
         H            2.310489321389    -1.000600652037    -1.198183394671     1.007825032230
         H           -1.841808678611    -1.698182652037     0.356486605329     1.007825032230
         H           -2.248959678611    -1.052429652037    -1.087807394671     1.007825032230
         H            0.562094321389     1.779772347963     0.897027605329     1.007825032230

  Basis Set: AUG-CC-PVTZ
    Blend: AUG-CC-PVTZ
  Basis Set: (AUG-CC-PVTZ AUX)
    Blend: AUG-CC-PVTZ-JKFIT
	 Reference Energy          =    -287.2568765293850674 [Eh]
	 Singles Energy            =      -0.0000000000000000 [Eh]
	 Same-Spin Energy          =      -0.2946830351096568 [Eh]
	 Opposite-Spin Energy      =      -1.0044487298527323 [Eh]
	 Correlation Energy        =      -1.2991317649623890 [Eh]
	 Total Energy              =    -288.5560082943474640 [Eh]

	 ================> DF-SCS-MP2 Energies <==================
	-----------------------------------------------------------
	 SCS Same-Spin Scale       =       0.3333333333333333 [-]
	 SCS Opposite-Spin Scale   =       1.2000000000000000 [-]
	 SCS Same-Spin Energy      =      -0.0982276783698856 [Eh]
	 SCS Opposite-Spin Energy  =      -1.2053384758232786 [Eh]
	 SCS Correlation Energy    =      -1.3035661541931642 [Eh]
	 SCS Total Energy          =    -288.5604426835782306 [Eh]
	-----------------------------------------------------------

  Dipole Moment: [D]
     X:     0.7480      Y:    -1.3419      Z:     0.5721     Total:     1.6394

*** Psi4 exiting successfully. Buy a developer a beer!
