                               Psi4 1.4a3.dev225

  ==> Input File <==

--------------------------------------------------------------------------
#psi4
#
memory 32 gb

molecule  {
0 1
  O        0.5491460     1.6657540    -0.0835270
  N       -2.2770200    -0.8249540    -0.1044150
  C       -0.0231050     0.3654990    -0.2814520
  C        0.8312550    -0.7148260     0.3726500
  C       -1.4234327     0.3859048     0.3408253
  C        2.2653620    -0.7289500    -0.1466730
  H       -0.0068980     0.2268130    -1.3706510
  H        0.8244310    -0.5451890     1.4596650
  H        0.3655990    -1.6940980     0.2090450
  H       -1.4956300     0.5168070     1.2806640
  H       -1.9758410     1.2324740    -0.2546010
  H        2.8643550    -1.4881460     0.3640660
  H        2.7338870     0.2452880     0.0032600
  H        2.2845280    -0.9484100    -1.2186000
  H       -1.8677700    -1.6459920     0.3360700
  H       -2.2749210    -1.0002390    -1.1082240
  H        0.5361330     1.8319630     0.8766110
units angstrom
no_reorient  #important for SAPT in psi4, default
symmetry c1  #important for SAPT in psi4, default
}

set PROPERTIES_ORIGIN ["COM"]
properties('MP2/aug-cc-pvtz', properties = ['dipole'])
--------------------------------------------------------------------------

    Molecular point group: c1
  Charge       = 0
  Multiplicity = 1
  Basis Set: AUG-CC-PVTZ
    Blend: AUG-CC-PVTZ
  Basis Set: (AUG-CC-PVTZ AUX)
    Blend: AUG-CC-PVTZ-JKFIT

    Orbital Energies [Eh]
    ---------------------

    Doubly Occupied:

       1A    -20.558140     2A    -15.545182     3A    -11.282324
       4A    -11.251212     5A    -11.227084     6A    -11.214320
       7A     -1.359925     8A     -1.160410     9A     -1.054853
      10A     -0.963012    11A     -0.870846    12A     -0.813097
      13A     -0.670434    14A     -0.660829    15A     -0.643168
      16A     -0.626015    17A     -0.588463    18A     -0.555093
      19A     -0.539531    20A     -0.535857    21A     -0.490424
      22A     -0.487849    23A     -0.479330    24A     -0.450615
      25A     -0.383870

  @DF-RHF Final Energy:  -287.25377242877994

   => Energetics <=

    Nuclear Repulsion Energy =            259.4253000320112506
    One-Electron Energy =                -904.5343806453985280
    Two-Electron Energy =                 357.8553081846073383
    Total Energy =                       -287.2537724287799392
  Basis Set: (AUG-CC-PVTZ AUX)
    Blend: AUG-CC-PVTZ-RI
    Molecular point group: c1

    Geometry (in Angstrom), charge = 0, multiplicity = 1:

       Center              X                  Y                   Z               Mass
    ------------   -----------------  -----------------  -----------------  -----------------
         O            0.563709282788     1.626589556559    -0.097085966337    15.994914619570
         N           -2.262456717212    -0.864118443441    -0.117973966337    14.003074004430
         C           -0.008541717212     0.326334556559    -0.295010966337    12.000000000000
         C            0.845818282788    -0.753990443441     0.359091033663    12.000000000000
         C           -1.408869417212     0.346740356559     0.327266333663    12.000000000000
         C            2.279925282788    -0.768114443441    -0.160231966337    12.000000000000
         H            0.007665282788     0.187648556559    -1.384209966337     1.007825032230
         H            0.838994282788    -0.584353443441     1.446106033663     1.007825032230
         H            0.380162282788    -1.733262443441     0.195486033663     1.007825032230
         H           -1.481066717212     0.477642556559     1.267105033663     1.007825032230
         H           -1.961277717212     1.193309556559    -0.268159966337     1.007825032230
         H            2.878918282788    -1.527310443441     0.350507033663     1.007825032230
         H            2.748450282788     0.206123556559    -0.010298966337     1.007825032230
         H            2.299091282788    -0.987574443441    -1.232158966337     1.007825032230
         H           -1.853206717212    -1.685156443441     0.322511033663     1.007825032230
         H           -2.260357717212    -1.039403443441    -1.121782966337     1.007825032230
         H            0.550696282788     1.792798556559     0.863052033663     1.007825032230

  Basis Set: AUG-CC-PVTZ
    Blend: AUG-CC-PVTZ
  Basis Set: (AUG-CC-PVTZ AUX)
    Blend: AUG-CC-PVTZ-JKFIT
	 Reference Energy          =    -287.2537724287799392 [Eh]
	 Singles Energy            =      -0.0000000000000000 [Eh]
	 Same-Spin Energy          =      -0.2928771750548231 [Eh]
	 Opposite-Spin Energy      =      -1.0035442822297425 [Eh]
	 Correlation Energy        =      -1.2964214572845656 [Eh]
	 Total Energy              =    -288.5501938860645055 [Eh]

	 ================> DF-SCS-MP2 Energies <==================
	-----------------------------------------------------------
	 SCS Same-Spin Scale       =       0.3333333333333333 [-]
	 SCS Opposite-Spin Scale   =       1.2000000000000000 [-]
	 SCS Same-Spin Energy      =      -0.0976257250182744 [Eh]
	 SCS Opposite-Spin Energy  =      -1.2042531386756909 [Eh]
	 SCS Correlation Energy    =      -1.3018788636939653 [Eh]
	 SCS Total Energy          =    -288.5556512924738968 [Eh]
	-----------------------------------------------------------

  Dipole Moment: [D]
     X:     0.8693      Y:    -1.1910      Z:     0.7399     Total:     1.6498

*** Psi4 exiting successfully. Buy a developer a beer!
