                               Psi4 1.4a3.dev225

  ==> Input File <==

--------------------------------------------------------------------------
#psi4
#
memory 32 gb

molecule  {
0 1
  O        0.5491460     1.6657540    -0.0835270
  N       -2.2770200    -0.8249540    -0.1044150
  C       -0.0231050     0.3654990    -0.2814520
  C        0.8312550    -0.7148260     0.3726500
  C       -1.4804950     0.3645050     0.1924430
  C        2.2653620    -0.7289500    -0.1466730
  H       -0.0068980     0.2268130    -1.3706510
  H        0.8244310    -0.5451890     1.4596650
  H        0.3655990    -1.6940980     0.2090450
  H       -1.4956300     0.5168070     1.2806640
  H       -2.0210864     1.3117551    -0.2954344
  H        2.8643550    -1.4881460     0.3640660
  H        2.7338870     0.2452880     0.0032600
  H        2.2845280    -0.9484100    -1.2186000
  H       -1.8677700    -1.6459920     0.3360700
  H       -2.2749210    -1.0002390    -1.1082240
  H        0.5361330     1.8319630     0.8766110
units angstrom
no_reorient  #important for SAPT in psi4, default
symmetry c1  #important for SAPT in psi4, default
}

set PROPERTIES_ORIGIN ["COM"]
properties('MP2/aug-cc-pvtz', properties = ['dipole'])
--------------------------------------------------------------------------

    Molecular point group: c1
  Charge       = 0
  Multiplicity = 1
  Basis Set: AUG-CC-PVTZ
    Blend: AUG-CC-PVTZ
  Basis Set: (AUG-CC-PVTZ AUX)
    Blend: AUG-CC-PVTZ-JKFIT

    Orbital Energies [Eh]
    ---------------------

    Doubly Occupied:

       1A    -20.558916     2A    -15.549071     3A    -11.279254
       4A    -11.262490     5A    -11.228542     6A    -11.214921
       7A     -1.358499     8A     -1.182925     9A     -1.054992
      10A     -0.955855    11A     -0.857715    12A     -0.804828
      13A     -0.672523    14A     -0.658301    15A     -0.644729
      16A     -0.632691    17A     -0.580346    18A     -0.551869
      19A     -0.542083    20A     -0.521759    21A     -0.495152
      22A     -0.489010    23A     -0.479719    24A     -0.452820
      25A     -0.387800

  @DF-RHF Final Energy:  -287.27988488613784

   => Energetics <=

    Nuclear Repulsion Energy =            259.2591801832227816
    One-Electron Energy =                -904.2445115895325216
    Two-Electron Energy =                 357.7054465201719609
    Total Energy =                       -287.2798848861378360
  Basis Set: (AUG-CC-PVTZ AUX)
    Blend: AUG-CC-PVTZ-RI
    Molecular point group: c1

    Geometry (in Angstrom), charge = 0, multiplicity = 1:

       Center              X                  Y                   Z               Mass
    ------------   -----------------  -----------------  -----------------  -----------------
         O            0.571907685668     1.628575277853    -0.076636287221    15.994914619570
         N           -2.254258314332    -0.862132722147    -0.097524287221    14.003074004430
         C           -0.000343314332     0.328320277853    -0.274561287221    12.000000000000
         C            0.854016685668    -0.752004722147     0.379540712779    12.000000000000
         C           -1.457733314332     0.327326277853     0.199333712779    12.000000000000
         C            2.288123685668    -0.766128722147    -0.139782287221    12.000000000000
         H            0.015863685668     0.189634277853    -1.363760287221     1.007825032230
         H            0.847192685668    -0.582367722147     1.466555712779     1.007825032230
         H            0.388360685668    -1.731276722147     0.215935712779     1.007825032230
         H           -1.472868314332     0.479628277853     1.287554712779     1.007825032230
         H           -1.998324714332     1.274576377853    -0.288543687221     1.007825032230
         H            2.887116685668    -1.525324722147     0.370956712779     1.007825032230
         H            2.756648685668     0.208109277853     0.010150712779     1.007825032230
         H            2.307289685668    -0.985588722147    -1.211709287221     1.007825032230
         H           -1.845008314332    -1.683170722147     0.342960712779     1.007825032230
         H           -2.252159314332    -1.037417722147    -1.101333287221     1.007825032230
         H            0.558894685668     1.794784277853     0.883501712779     1.007825032230

  Basis Set: AUG-CC-PVTZ
    Blend: AUG-CC-PVTZ
  Basis Set: (AUG-CC-PVTZ AUX)
    Blend: AUG-CC-PVTZ-JKFIT
	 Reference Energy          =    -287.2798848861378360 [Eh]
	 Singles Energy            =      -0.0000000000000000 [Eh]
	 Same-Spin Energy          =      -0.2928670078527826 [Eh]
	 Opposite-Spin Energy      =      -1.0026185345984826 [Eh]
	 Correlation Energy        =      -1.2954855424512652 [Eh]
	 Total Energy              =    -288.5753704285891104 [Eh]

	 ================> DF-SCS-MP2 Energies <==================
	-----------------------------------------------------------
	 SCS Same-Spin Scale       =       0.3333333333333333 [-]
	 SCS Opposite-Spin Scale   =       1.2000000000000000 [-]
	 SCS Same-Spin Energy      =      -0.0976223359509275 [Eh]
	 SCS Opposite-Spin Energy  =      -1.2031422415181792 [Eh]
	 SCS Correlation Energy    =      -1.3007645774691068 [Eh]
	 SCS Total Energy          =    -288.5806494636069601 [Eh]
	-----------------------------------------------------------

  Dipole Moment: [D]
     X:     0.7550      Y:    -1.3625      Z:     0.6413     Total:     1.6846

*** Psi4 exiting successfully. Buy a developer a beer!
