                               Psi4 1.4a3.dev225

  ==> Input File <==

--------------------------------------------------------------------------
#psi4
#
memory 32 gb

molecule  {
0 1
  O        0.5491460     1.6657540    -0.0835270
  N       -2.2770200    -0.8249540    -0.1044150
  C       -0.0231050     0.3654990    -0.2814520
  C        0.8312550    -0.7148260     0.3726500
  C       -1.4804950     0.3645050     0.1924430
  C        2.2653620    -0.7289500    -0.1466730
  H       -0.0068980     0.2268130    -1.3706510
  H        0.8244310    -0.5451890     1.4596650
  H        0.3655990    -1.6940980     0.2090450
  H       -1.4956300     0.5168070     1.2806640
  H       -1.9758410     1.2324740    -0.2546010
  H        2.8643550    -1.4881460     0.3640660
  H        2.7338870     0.2452880     0.0032600
  H        2.2845280    -0.9484100    -1.2186000
  H       -1.8677700    -1.6459920     0.3360700
  H       -2.2749210    -1.0002390    -1.1082240
  H        0.5358659     1.8353741     0.8963161
units angstrom
no_reorient  #important for SAPT in psi4, default
symmetry c1  #important for SAPT in psi4, default
}

set PROPERTIES_ORIGIN ["COM"]
properties('MP2/aug-cc-pvtz', properties = ['dipole'])
--------------------------------------------------------------------------

    Molecular point group: c1
  Charge       = 0
  Multiplicity = 1
  Basis Set: AUG-CC-PVTZ
    Blend: AUG-CC-PVTZ
  Basis Set: (AUG-CC-PVTZ AUX)
    Blend: AUG-CC-PVTZ-JKFIT

    Orbital Energies [Eh]
    ---------------------

    Doubly Occupied:

       1A    -20.560892     2A    -15.547690     3A    -11.278049
       4A    -11.250627     5A    -11.227508     6A    -11.214233
       7A     -1.354483     8A     -1.182731     9A     -1.053726
      10A     -0.957560    11A     -0.862625    12A     -0.803575
      13A     -0.676294    14A     -0.655240    15A     -0.644073
      16A     -0.631688    17A     -0.580742    18A     -0.555549
      19A     -0.542493    20A     -0.520831    21A     -0.501883
      22A     -0.488290    23A     -0.480828    24A     -0.453010
      25A     -0.387524

  @DF-RHF Final Energy:  -287.28494692802212

   => Energetics <=

    Nuclear Repulsion Energy =            259.5979523286363815
    One-Electron Energy =                -904.9415095042086250
    Two-Electron Energy =                 358.0586102475500638
    Total Energy =                       -287.2849469280221228
  Basis Set: (AUG-CC-PVTZ AUX)
    Blend: AUG-CC-PVTZ-RI
    Molecular point group: c1

    Geometry (in Angstrom), charge = 0, multiplicity = 1:

       Center              X                  Y                   Z               Mass
    ------------   -----------------  -----------------  -----------------  -----------------
         O            0.571398837569     1.629433609656    -0.077321170836    15.994914619570
         N           -2.254767162431    -0.861274390344    -0.098209170836    14.003074004430
         C           -0.000852162431     0.329178609656    -0.275246170836    12.000000000000
         C            0.853507837569    -0.751146390344     0.378855829164    12.000000000000
         C           -1.458242162431     0.328184609656     0.198648829164    12.000000000000
         C            2.287614837569    -0.765270390344    -0.140467170836    12.000000000000
         H            0.015354837569     0.190492609656    -1.364445170836     1.007825032230
         H            0.846683837569    -0.581509390344     1.465870829164     1.007825032230
         H            0.387851837569    -1.730418390344     0.215250829164     1.007825032230
         H           -1.473377162431     0.480486609656     1.286869829164     1.007825032230
         H           -1.953588162431     1.196153609656    -0.248395170836     1.007825032230
         H            2.886607837569    -1.524466390344     0.370271829164     1.007825032230
         H            2.756139837569     0.208967609656     0.009465829164     1.007825032230
         H            2.306780837569    -0.984730390344    -1.212394170836     1.007825032230
         H           -1.845517162431    -1.682312390344     0.342275829164     1.007825032230
         H           -2.252668162431    -1.036559390344    -1.102018170836     1.007825032230
         H            0.558118737569     1.799053709656     0.902521929164     1.007825032230

  Basis Set: AUG-CC-PVTZ
    Blend: AUG-CC-PVTZ
  Basis Set: (AUG-CC-PVTZ AUX)
    Blend: AUG-CC-PVTZ-JKFIT
	 Reference Energy          =    -287.2849469280221228 [Eh]
	 Singles Energy            =      -0.0000000000000000 [Eh]
	 Same-Spin Energy          =      -0.2930113134762760 [Eh]
	 Opposite-Spin Energy      =      -1.0024399755543982 [Eh]
	 Correlation Energy        =      -1.2954512890306742 [Eh]
	 Total Energy              =    -288.5803982170527888 [Eh]

	 ================> DF-SCS-MP2 Energies <==================
	-----------------------------------------------------------
	 SCS Same-Spin Scale       =       0.3333333333333333 [-]
	 SCS Opposite-Spin Scale   =       1.2000000000000000 [-]
	 SCS Same-Spin Energy      =      -0.0976704378254253 [Eh]
	 SCS Opposite-Spin Energy  =      -1.2029279706652778 [Eh]
	 SCS Correlation Energy    =      -1.3005984084907032 [Eh]
	 SCS Total Energy          =    -288.5855453365128369 [Eh]
	-----------------------------------------------------------

  Dipole Moment: [D]
     X:     0.7213      Y:    -1.2940      Z:     0.6377     Total:     1.6128

*** Psi4 exiting successfully. Buy a developer a beer!
