                               Psi4 1.4a3.dev225

  ==> Input File <==

--------------------------------------------------------------------------
#psi4
#
memory 32 gb

molecule  {
0 1
  O        0.5491460     1.6657540    -0.0835270
  N       -2.2770200    -0.8249540    -0.1044150
  C       -0.0231050     0.3654990    -0.2814520
  C        0.8583785    -0.7937268     0.4387843
  C       -1.4804950     0.3645050     0.1924430
  C        2.2653620    -0.7289500    -0.1466730
  H       -0.0068980     0.2268130    -1.3706510
  H        0.8244310    -0.5451890     1.4596650
  H        0.3655990    -1.6940980     0.2090450
  H       -1.4956300     0.5168070     1.2806640
  H       -1.9758410     1.2324740    -0.2546010
  H        2.8643550    -1.4881460     0.3640660
  H        2.7338870     0.2452880     0.0032600
  H        2.2845280    -0.9484100    -1.2186000
  H       -1.8677700    -1.6459920     0.3360700
  H       -2.2749210    -1.0002390    -1.1082240
  H        0.5361330     1.8319630     0.8766110
units angstrom
no_reorient  #important for SAPT in psi4, default
symmetry c1  #important for SAPT in psi4, default
}

set PROPERTIES_ORIGIN ["COM"]
properties('MP2/aug-cc-pvtz', properties = ['dipole'])
--------------------------------------------------------------------------

    Molecular point group: c1
  Charge       = 0
  Multiplicity = 1
  Basis Set: AUG-CC-PVTZ
    Blend: AUG-CC-PVTZ
  Basis Set: (AUG-CC-PVTZ AUX)
    Blend: AUG-CC-PVTZ-JKFIT

    Orbital Energies [Eh]
    ---------------------

    Doubly Occupied:

       1A    -20.559896     2A    -15.547652     3A    -11.281000
       4A    -11.249529     5A    -11.224251     6A    -11.213908
       7A     -1.357073     8A     -1.182092     9A     -1.047088
      10A     -0.955472    11A     -0.858770    12A     -0.809620
      13A     -0.675767    14A     -0.656820    15A     -0.648291
      16A     -0.623898    17A     -0.584191    18A     -0.553690
      19A     -0.544926    20A     -0.520431    21A     -0.506810
      22A     -0.503283    23A     -0.483148    24A     -0.433457
      25A     -0.383543

  @DF-RHF Final Energy:  -287.27710779114631

   => Energetics <=

    Nuclear Repulsion Energy =            258.4150427160200252
    One-Electron Energy =                -902.5750877235616372
    Two-Electron Energy =                 356.8829372163953053
    Total Energy =                       -287.2771077911463067
  Basis Set: (AUG-CC-PVTZ AUX)
    Blend: AUG-CC-PVTZ-RI
    Molecular point group: c1

    Geometry (in Angstrom), charge = 0, multiplicity = 1:

       Center              X                  Y                   Z               Mass
    ------------   -----------------  -----------------  -----------------  -----------------
         O            0.567742165707     1.640100471376    -0.086006813053    15.994914619570
         N           -2.258423834293    -0.850607528624    -0.106894813053    14.003074004430
         C           -0.004508834293     0.339845471376    -0.283931813053    12.000000000000
         C            0.876974665707    -0.819380328624     0.436304486947    12.000000000000
         C           -1.461898834293     0.338851471376     0.189963186947    12.000000000000
         C            2.283958165707    -0.754603528624    -0.149152813053    12.000000000000
         H            0.011698165707     0.201159471376    -1.373130813053     1.007825032230
         H            0.843027165707    -0.570842528624     1.457185186947     1.007825032230
         H            0.384195165707    -1.719751528624     0.206565186947     1.007825032230
         H           -1.477033834293     0.491153471376     1.278184186947     1.007825032230
         H           -1.957244834293     1.206820471376    -0.257080813053     1.007825032230
         H            2.882951165707    -1.513799528624     0.361586186947     1.007825032230
         H            2.752483165707     0.219634471376     0.000780186947     1.007825032230
         H            2.303124165707    -0.974063528624    -1.221079813053     1.007825032230
         H           -1.849173834293    -1.671645528624     0.333590186947     1.007825032230
         H           -2.256324834293    -1.025892528624    -1.110703813053     1.007825032230
         H            0.554729165707     1.806309471376     0.874131186947     1.007825032230

  Basis Set: AUG-CC-PVTZ
    Blend: AUG-CC-PVTZ
  Basis Set: (AUG-CC-PVTZ AUX)
    Blend: AUG-CC-PVTZ-JKFIT
	 Reference Energy          =    -287.2771077911463067 [Eh]
	 Singles Energy            =      -0.0000000000000000 [Eh]
	 Same-Spin Energy          =      -0.2925928195668611 [Eh]
	 Opposite-Spin Energy      =      -1.0021289482517610 [Eh]
	 Correlation Energy        =      -1.2947217678186220 [Eh]
	 Total Energy              =    -288.5718295589649074 [Eh]

	 ================> DF-SCS-MP2 Energies <==================
	-----------------------------------------------------------
	 SCS Same-Spin Scale       =       0.3333333333333333 [-]
	 SCS Opposite-Spin Scale   =       1.2000000000000000 [-]
	 SCS Same-Spin Energy      =      -0.0975309398556204 [Eh]
	 SCS Opposite-Spin Energy  =      -1.2025547379021131 [Eh]
	 SCS Correlation Energy    =      -1.3000856777577334 [Eh]
	 SCS Total Energy          =    -288.5771934689040563 [Eh]
	-----------------------------------------------------------

  Dipole Moment: [D]
     X:     0.7014      Y:    -1.2496      Z:     0.6325     Total:     1.5664

*** Psi4 exiting successfully. Buy a developer a beer!
