                               Psi4 1.4a3.dev225

  ==> Input File <==

--------------------------------------------------------------------------
#psi4
#
memory 32 gb

molecule  {
0 1
  O        0.5491460     1.6657540    -0.0835270
  N       -2.2770200    -0.8249540    -0.1044150
  C       -0.0231050     0.3654990    -0.2814520
  C        0.8312550    -0.7148260     0.3726500
  C       -1.4804950     0.3645050     0.1924430
  C        2.2653620    -0.7289500    -0.1466730
  H       -0.0068980     0.2268130    -1.3706510
  H        0.8244310    -0.5451890     1.4596650
  H        0.3655990    -1.6940980     0.2090450
  H       -1.4956300     0.5168070     1.2806640
  H       -1.9758410     1.2324740    -0.2546010
  H        2.8643550    -1.4881460     0.3640660
  H        2.7338870     0.2452880     0.0032600
  H        2.2845280    -0.9484100    -1.2186000
  H       -1.8677700    -1.6459920     0.3360700
  H       -2.2749210    -1.0002390    -1.1082240
  H        0.5361330     1.8319630     0.8766110
units angstrom
no_reorient  #important for SAPT in psi4, default
symmetry c1  #important for SAPT in psi4, default
}

set PROPERTIES_ORIGIN ["COM"]
properties('MP2/aug-cc-pvtz', properties = ['dipole'])
--------------------------------------------------------------------------

    Molecular point group: c1
  Charge       = 0
  Multiplicity = 1
  Basis Set: AUG-CC-PVTZ
    Blend: AUG-CC-PVTZ
  Basis Set: (AUG-CC-PVTZ AUX)
    Blend: AUG-CC-PVTZ-JKFIT

    Orbital Energies [Eh]
    ---------------------

    Doubly Occupied:

       1A    -20.559023     2A    -15.547776     3A    -11.278170
       4A    -11.250727     5A    -11.227610     6A    -11.214314
       7A     -1.358594     8A     -1.182902     9A     -1.054247
      10A     -0.958135    11A     -0.862791    12A     -0.805174
      13A     -0.676442    14A     -0.658134    15A     -0.644378
      16A     -0.632159    17A     -0.580891    18A     -0.555751
      19A     -0.543513    20A     -0.521006    21A     -0.502070
      22A     -0.488403    23A     -0.481174    24A     -0.453342
      25A     -0.387674

  @DF-RHF Final Energy:  -287.28654827796845

   => Energetics <=

    Nuclear Repulsion Energy =            259.7114825388621853
    One-Electron Energy =                -905.1472611225240144
    Two-Electron Energy =                 358.1492303056934361
    Total Energy =                       -287.2865482779684498
  Basis Set: (AUG-CC-PVTZ AUX)
    Blend: AUG-CC-PVTZ-RI
    Molecular point group: c1

    Geometry (in Angstrom), charge = 0, multiplicity = 1:

       Center              X                  Y                   Z               Mass
    ------------   -----------------  -----------------  -----------------  -----------------
         O            0.571395815815     1.629472200082    -0.077098243275    15.994914619570
         N           -2.254770184185    -0.861235799918    -0.097986243275    14.003074004430
         C           -0.000855184185     0.329217200082    -0.275023243275    12.000000000000
         C            0.853504815815    -0.751107799918     0.379078756725    12.000000000000
         C           -1.458245184185     0.328223200082     0.198871756725    12.000000000000
         C            2.287611815815    -0.765231799918    -0.140244243275    12.000000000000
         H            0.015351815815     0.190531200082    -1.364222243275     1.007825032230
         H            0.846680815815    -0.581470799918     1.466093756725     1.007825032230
         H            0.387848815815    -1.730379799918     0.215473756725     1.007825032230
         H           -1.473380184185     0.480525200082     1.287092756725     1.007825032230
         H           -1.953591184185     1.196192200082    -0.248172243275     1.007825032230
         H            2.886604815815    -1.524427799918     0.370494756725     1.007825032230
         H            2.756136815815     0.209006200082     0.009688756725     1.007825032230
         H            2.306777815815    -0.984691799918    -1.212171243275     1.007825032230
         H           -1.845520184185    -1.682273799918     0.342498756725     1.007825032230
         H           -2.252671184185    -1.036520799918    -1.101795243275     1.007825032230
         H            0.558382815815     1.795681200082     0.883039756725     1.007825032230

  Basis Set: AUG-CC-PVTZ
    Blend: AUG-CC-PVTZ
  Basis Set: (AUG-CC-PVTZ AUX)
    Blend: AUG-CC-PVTZ-JKFIT
	 Reference Energy          =    -287.2865482779684498 [Eh]
	 Singles Energy            =      -0.0000000000000000 [Eh]
	 Same-Spin Energy          =      -0.2927738538100860 [Eh]
	 Opposite-Spin Energy      =      -1.0018121533274607 [Eh]
	 Correlation Energy        =      -1.2945860071375466 [Eh]
	 Total Energy              =    -288.5811342851059749 [Eh]

	 ================> DF-SCS-MP2 Energies <==================
	-----------------------------------------------------------
	 SCS Same-Spin Scale       =       0.3333333333333333 [-]
	 SCS Opposite-Spin Scale   =       1.2000000000000000 [-]
	 SCS Same-Spin Energy      =      -0.0975912846033620 [Eh]
	 SCS Opposite-Spin Energy  =      -1.2021745839929527 [Eh]
	 SCS Correlation Energy    =      -1.2997658685963147 [Eh]
	 SCS Total Energy          =    -288.5863141465647459 [Eh]
	-----------------------------------------------------------

  Dipole Moment: [D]
     X:     0.7196      Y:    -1.3007      Z:     0.6274     Total:     1.6135

*** Psi4 exiting successfully. Buy a developer a beer!
