                               Psi4 1.4a3.dev225

  ==> Input File <==

--------------------------------------------------------------------------
#psi4
#
memory 32 gb

molecule  {
0 1
  O        0.5491460     1.6657540    -0.0835270
  N       -2.3732165    -0.7321094    -0.1788716
  C       -0.0231050     0.3654990    -0.2814520
  C        0.8312550    -0.7148260     0.3726500
  C       -1.4804950     0.3645050     0.1924430
  C        2.2653620    -0.7289500    -0.1466730
  H       -0.0068980     0.2268130    -1.3706510
  H        0.8244310    -0.5451890     1.4596650
  H        0.3655990    -1.6940980     0.2090450
  H       -1.4956300     0.5168070     1.2806640
  H       -1.9758410     1.2324740    -0.2546010
  H        2.8643550    -1.4881460     0.3640660
  H        2.7338870     0.2452880     0.0032600
  H        2.2845280    -0.9484100    -1.2186000
  H       -1.8677700    -1.6459920     0.3360700
  H       -2.2749210    -1.0002390    -1.1082240
  H        0.5361330     1.8319630     0.8766110
units angstrom
no_reorient  #important for SAPT in psi4, default
symmetry c1  #important for SAPT in psi4, default
}

set PROPERTIES_ORIGIN ["COM"]
properties('MP2/aug-cc-pvtz', properties = ['dipole'])
--------------------------------------------------------------------------

    Molecular point group: c1
  Charge       = 0
  Multiplicity = 1
  Basis Set: AUG-CC-PVTZ
    Blend: AUG-CC-PVTZ
  Basis Set: (AUG-CC-PVTZ AUX)
    Blend: AUG-CC-PVTZ-JKFIT

    Orbital Energies [Eh]
    ---------------------

    Doubly Occupied:

       1A    -20.561169     2A    -15.562054     3A    -11.281266
       4A    -11.251245     5A    -11.229494     6A    -11.215616
       7A     -1.360497     8A     -1.180830     9A     -1.056272
      10A     -0.958287    11A     -0.863039    12A     -0.807893
      13A     -0.666802    14A     -0.659536    15A     -0.646128
      16A     -0.626475    17A     -0.582694    18A     -0.554957
      19A     -0.534239    20A     -0.524496    21A     -0.497188
      22A     -0.489978    23A     -0.475898    24A     -0.456392
      25A     -0.396969

  @DF-RHF Final Energy:  -287.26357757440167

   => Energetics <=

    Nuclear Repulsion Energy =            258.8329509433752946
    One-Electron Energy =                -903.3142261184766539
    Two-Electron Energy =                 357.2176976006996938
    Total Energy =                       -287.2635775744016655
  Basis Set: (AUG-CC-PVTZ AUX)
    Blend: AUG-CC-PVTZ-RI
    Molecular point group: c1

    Geometry (in Angstrom), charge = 0, multiplicity = 1:

       Center              X                  Y                   Z               Mass
    ------------   -----------------  -----------------  -----------------  -----------------
         O            0.586516889645     1.614878009531    -0.065394452122    15.994914619570
         N           -2.335845610355    -0.782985390469    -0.160739052122    14.003074004430
         C            0.014265889645     0.314623009531    -0.263319452122    12.000000000000
         C            0.868625889645    -0.765701990469     0.390782547878    12.000000000000
         C           -1.443124110355     0.313629009531     0.210575547878    12.000000000000
         C            2.302732889645    -0.779825990469    -0.128540452122    12.000000000000
         H            0.030472889645     0.175937009531    -1.352518452122     1.007825032230
         H            0.861801889645    -0.596064990469     1.477797547878     1.007825032230
         H            0.402969889645    -1.744973990469     0.227177547878     1.007825032230
         H           -1.458259110355     0.465931009531     1.298796547878     1.007825032230
         H           -1.938470110355     1.181598009531    -0.236468452122     1.007825032230
         H            2.901725889645    -1.539021990469     0.382198547878     1.007825032230
         H            2.771257889645     0.194412009531     0.021392547878     1.007825032230
         H            2.321898889645    -0.999285990469    -1.200467452122     1.007825032230
         H           -1.830399110355    -1.696867990469     0.354202547878     1.007825032230
         H           -2.237550110355    -1.051114990469    -1.090091452122     1.007825032230
         H            0.573503889645     1.781087009531     0.894743547878     1.007825032230

  Basis Set: AUG-CC-PVTZ
    Blend: AUG-CC-PVTZ
  Basis Set: (AUG-CC-PVTZ AUX)
    Blend: AUG-CC-PVTZ-JKFIT
	 Reference Energy          =    -287.2635775744016655 [Eh]
	 Singles Energy            =      -0.0000000000000000 [Eh]
	 Same-Spin Energy          =      -0.2934691585326387 [Eh]
	 Opposite-Spin Energy      =      -1.0047070146326278 [Eh]
	 Correlation Energy        =      -1.2981761731652666 [Eh]
	 Total Energy              =    -288.5617537475669110 [Eh]

	 ================> DF-SCS-MP2 Energies <==================
	-----------------------------------------------------------
	 SCS Same-Spin Scale       =       0.3333333333333333 [-]
	 SCS Opposite-Spin Scale   =       1.2000000000000000 [-]
	 SCS Same-Spin Energy      =      -0.0978230528442129 [Eh]
	 SCS Opposite-Spin Energy  =      -1.2056484175591533 [Eh]
	 SCS Correlation Energy    =      -1.3034714704033663 [Eh]
	 SCS Total Energy          =    -288.5670490448050600 [Eh]
	-----------------------------------------------------------

  Dipole Moment: [D]
     X:     0.9538      Y:    -1.3429      Z:     0.6839     Total:     1.7835

*** Psi4 exiting successfully. Buy a developer a beer!
