                               Psi4 1.4a3.dev225

  ==> Input File <==

--------------------------------------------------------------------------
#psi4
#
memory 32 gb

molecule  {
0 1
  O        0.5491460     1.6657540    -0.0835270
  N       -2.2770200    -0.8249540    -0.1044150
  C       -0.0231050     0.3654990    -0.2814520
  C        0.8312550    -0.7148260     0.3726500
  C       -1.4804950     0.3645050     0.1924430
  C        2.2653620    -0.7289500    -0.1466730
  H       -0.0068980     0.2268130    -1.3706510
  H        0.8244310    -0.5451890     1.4596650
  H        0.3868304    -1.6494484     0.2165045
  H       -1.4956300     0.5168070     1.2806640
  H       -1.9758410     1.2324740    -0.2546010
  H        2.8643550    -1.4881460     0.3640660
  H        2.7338870     0.2452880     0.0032600
  H        2.2845280    -0.9484100    -1.2186000
  H       -1.8677700    -1.6459920     0.3360700
  H       -2.2749210    -1.0002390    -1.1082240
  H        0.5361330     1.8319630     0.8766110
units angstrom
no_reorient  #important for SAPT in psi4, default
symmetry c1  #important for SAPT in psi4, default
}

set PROPERTIES_ORIGIN ["COM"]
properties('MP2/aug-cc-pvtz', properties = ['dipole'])
--------------------------------------------------------------------------

    Molecular point group: c1
  Charge       = 0
  Multiplicity = 1
  Basis Set: AUG-CC-PVTZ
    Blend: AUG-CC-PVTZ
  Basis Set: (AUG-CC-PVTZ AUX)
    Blend: AUG-CC-PVTZ-JKFIT

    Orbital Energies [Eh]
    ---------------------

    Doubly Occupied:

       1A    -20.558419     2A    -15.548162     3A    -11.277689
       4A    -11.250711     5A    -11.221240     6A    -11.213769
       7A     -1.358051     8A     -1.183200     9A     -1.056492
      10A     -0.957992    11A     -0.864134    12A     -0.807296
      13A     -0.677830    14A     -0.657993    15A     -0.647511
      16A     -0.632366    17A     -0.581126    18A     -0.555805
      19A     -0.543475    20A     -0.520822    21A     -0.502857
      22A     -0.490874    23A     -0.481612    24A     -0.453046
      25A     -0.387855

  @DF-RHF Final Energy:  -287.28568924291108

   => Energetics <=

    Nuclear Repulsion Energy =            259.9393412906023286
    One-Electron Energy =                -905.5894085331306087
    Two-Electron Energy =                 358.3643779996172043
    Total Energy =                       -287.2856892429110758
  Basis Set: (AUG-CC-PVTZ AUX)
    Blend: AUG-CC-PVTZ-RI
    Molecular point group: c1

    Geometry (in Angstrom), charge = 0, multiplicity = 1:

       Center              X                  Y                   Z               Mass
    ------------   -----------------  -----------------  -----------------  -----------------
         O            0.571155620932     1.628967070628    -0.077182634024    15.994914619570
         N           -2.255010379068    -0.861740929372    -0.098070634024    14.003074004430
         C           -0.001095379068     0.328712070628    -0.275107634024    12.000000000000
         C            0.853264620932    -0.751612929372     0.378994365976    12.000000000000
         C           -1.458485379068     0.327718070628     0.198787365976    12.000000000000
         C            2.287371620932    -0.765736929372    -0.140328634024    12.000000000000
         H            0.015111620932     0.190026070628    -1.364306634024     1.007825032230
         H            0.846440620932    -0.581975929372     1.466009365976     1.007825032230
         H            0.408840020932    -1.686235329372     0.222848865976     1.007825032230
         H           -1.473620379068     0.480020070628     1.287008365976     1.007825032230
         H           -1.953831379068     1.195687070628    -0.248256634024     1.007825032230
         H            2.886364620932    -1.524932929372     0.370410365976     1.007825032230
         H            2.755896620932     0.208501070628     0.009604365976     1.007825032230
         H            2.306537620932    -0.985196929372    -1.212255634024     1.007825032230
         H           -1.845760379068    -1.682778929372     0.342414365976     1.007825032230
         H           -2.252911379068    -1.037025929372    -1.101879634024     1.007825032230
         H            0.558142620932     1.795176070628     0.882955365976     1.007825032230

  Basis Set: AUG-CC-PVTZ
    Blend: AUG-CC-PVTZ
  Basis Set: (AUG-CC-PVTZ AUX)
    Blend: AUG-CC-PVTZ-JKFIT
	 Reference Energy          =    -287.2856892429110758 [Eh]
	 Singles Energy            =      -0.0000000000000000 [Eh]
	 Same-Spin Energy          =      -0.2927356198920192 [Eh]
	 Opposite-Spin Energy      =      -1.0014861721622923 [Eh]
	 Correlation Energy        =      -1.2942217920543115 [Eh]
	 Total Energy              =    -288.5799110349653915 [Eh]

	 ================> DF-SCS-MP2 Energies <==================
	-----------------------------------------------------------
	 SCS Same-Spin Scale       =       0.3333333333333333 [-]
	 SCS Opposite-Spin Scale   =       1.2000000000000000 [-]
	 SCS Same-Spin Energy      =      -0.0975785399640064 [Eh]
	 SCS Opposite-Spin Energy  =      -1.2017834065947508 [Eh]
	 SCS Correlation Energy    =      -1.2993619465587571 [Eh]
	 SCS Total Energy          =    -288.5850511894698229 [Eh]
	-----------------------------------------------------------

  Dipole Moment: [D]
     X:     0.6985      Y:    -1.3303      Z:     0.6288     Total:     1.6288

*** Psi4 exiting successfully. Buy a developer a beer!
