                               Psi4 1.4a3.dev225

  ==> Input File <==

--------------------------------------------------------------------------
#psi4
#
memory 32 gb

molecule  {
0 1
  O        0.5491460     1.6657540    -0.0835270
  N       -2.2770200    -0.8249540    -0.1044150
  C       -0.0231050     0.3654990    -0.2814520
  C        0.8312550    -0.7148260     0.3726500
  C       -1.4804950     0.3645050     0.1924430
  C        2.2653620    -0.7289500    -0.1466730
  H       -0.0068980     0.2268130    -1.3706510
  H        0.8241209    -0.5374796     1.5090661
  H        0.3655990    -1.6940980     0.2090450
  H       -1.4956300     0.5168070     1.2806640
  H       -1.9758410     1.2324740    -0.2546010
  H        2.8643550    -1.4881460     0.3640660
  H        2.7338870     0.2452880     0.0032600
  H        2.2845280    -0.9484100    -1.2186000
  H       -1.8677700    -1.6459920     0.3360700
  H       -2.2749210    -1.0002390    -1.1082240
  H        0.5361330     1.8319630     0.8766110
units angstrom
no_reorient  #important for SAPT in psi4, default
symmetry c1  #important for SAPT in psi4, default
}

set PROPERTIES_ORIGIN ["COM"]
properties('MP2/aug-cc-pvtz', properties = ['dipole'])
--------------------------------------------------------------------------

    Molecular point group: c1
  Charge       = 0
  Multiplicity = 1
  Basis Set: AUG-CC-PVTZ
    Blend: AUG-CC-PVTZ
  Basis Set: (AUG-CC-PVTZ AUX)
    Blend: AUG-CC-PVTZ-JKFIT

    Orbital Energies [Eh]
    ---------------------

    Doubly Occupied:

       1A    -20.559028     2A    -15.547872     3A    -11.278838
       4A    -11.250753     5A    -11.233947     6A    -11.215006
       7A     -1.358621     8A     -1.182972     9A     -1.052734
      10A     -0.958392    11A     -0.862053    12A     -0.802439
      13A     -0.676441    14A     -0.657874    15A     -0.643124
      16A     -0.631429    17A     -0.579538    18A     -0.555957
      19A     -0.543665    20A     -0.520912    21A     -0.502325
      22A     -0.484495    23A     -0.481225    24A     -0.453316
      25A     -0.387838

  @DF-RHF Final Energy:  -287.28454847882313

   => Energetics <=

    Nuclear Repulsion Energy =            259.4886483156382155
    One-Electron Energy =                -904.7048031975831464
    Two-Electron Energy =                 357.9316064031218048
    Total Energy =                       -287.2845484788231261
  Basis Set: (AUG-CC-PVTZ AUX)
    Blend: AUG-CC-PVTZ-RI
    Molecular point group: c1

    Geometry (in Angstrom), charge = 0, multiplicity = 1:

       Center              X                  Y                   Z               Mass
    ------------   -----------------  -----------------  -----------------  -----------------
         O            0.571399324036     1.629384982167    -0.077657127356    15.994914619570
         N           -2.254766675964    -0.861323017833    -0.098545127356    14.003074004430
         C           -0.000851675964     0.329129982167    -0.275582127356    12.000000000000
         C            0.853508324036    -0.751195017833     0.378519872644    12.000000000000
         C           -1.458241675964     0.328135982167     0.198312872644    12.000000000000
         C            2.287615324036    -0.765319017833    -0.140803127356    12.000000000000
         H            0.015355324036     0.190443982167    -1.364781127356     1.007825032230
         H            0.846374224036    -0.573848617833     1.514935972644     1.007825032230
         H            0.387852324036    -1.730467017833     0.214914872644     1.007825032230
         H           -1.473376675964     0.480437982167     1.286533872644     1.007825032230
         H           -1.953587675964     1.196104982167    -0.248731127356     1.007825032230
         H            2.886608324036    -1.524515017833     0.369935872644     1.007825032230
         H            2.756140324036     0.208918982167     0.009129872644     1.007825032230
         H            2.306781324036    -0.984779017833    -1.212730127356     1.007825032230
         H           -1.845516675964    -1.682361017833     0.341939872644     1.007825032230
         H           -2.252667675964    -1.036608017833    -1.102354127356     1.007825032230
         H            0.558386324036     1.795593982167     0.882480872644     1.007825032230

  Basis Set: AUG-CC-PVTZ
    Blend: AUG-CC-PVTZ
  Basis Set: (AUG-CC-PVTZ AUX)
    Blend: AUG-CC-PVTZ-JKFIT
	 Reference Energy          =    -287.2845484788231261 [Eh]
	 Singles Energy            =      -0.0000000000000000 [Eh]
	 Same-Spin Energy          =      -0.2927835485164207 [Eh]
	 Opposite-Spin Energy      =      -1.0021263131715530 [Eh]
	 Correlation Energy        =      -1.2949098616879737 [Eh]
	 Total Energy              =    -288.5794583405111098 [Eh]

	 ================> DF-SCS-MP2 Energies <==================
	-----------------------------------------------------------
	 SCS Same-Spin Scale       =       0.3333333333333333 [-]
	 SCS Opposite-Spin Scale   =       1.2000000000000000 [-]
	 SCS Same-Spin Energy      =      -0.0975945161721402 [Eh]
	 SCS Opposite-Spin Energy  =      -1.2025515758058636 [Eh]
	 SCS Correlation Energy    =      -1.3001460919780039 [Eh]
	 SCS Total Energy          =    -288.5846945708011049 [Eh]
	-----------------------------------------------------------

  Dipole Moment: [D]
     X:     0.7263      Y:    -1.3047      Z:     0.5866     Total:     1.6043

*** Psi4 exiting successfully. Buy a developer a beer!
