                               Psi4 1.4a3.dev225

  ==> Input File <==

--------------------------------------------------------------------------
#psi4
#
memory 32 gb

molecule  {
0 1
  O        0.5491460     1.6657540    -0.0835270
  N       -2.2770200    -0.8249540    -0.1044150
  C       -0.0231050     0.3654990    -0.2814520
  C        0.8312550    -0.7148260     0.3726500
  C       -1.5026702     0.3503699     0.2910412
  C        2.2653620    -0.7289500    -0.1466730
  H       -0.0068980     0.2268130    -1.3706510
  H        0.8244310    -0.5451890     1.4596650
  H        0.3655990    -1.6940980     0.2090450
  H       -1.4956300     0.5168070     1.2806640
  H       -1.9758410     1.2324740    -0.2546010
  H        2.8643550    -1.4881460     0.3640660
  H        2.7338870     0.2452880     0.0032600
  H        2.2845280    -0.9484100    -1.2186000
  H       -1.8677700    -1.6459920     0.3360700
  H       -2.2749210    -1.0002390    -1.1082240
  H        0.5361330     1.8319630     0.8766110
units angstrom
no_reorient  #important for SAPT in psi4, default
symmetry c1  #important for SAPT in psi4, default
}

set PROPERTIES_ORIGIN ["COM"]
properties('MP2/aug-cc-pvtz', properties = ['dipole'])
--------------------------------------------------------------------------

    Molecular point group: c1
  Charge       = 0
  Multiplicity = 1
  Basis Set: AUG-CC-PVTZ
    Blend: AUG-CC-PVTZ
  Basis Set: (AUG-CC-PVTZ AUX)
    Blend: AUG-CC-PVTZ-JKFIT

    Orbital Energies [Eh]
    ---------------------

    Doubly Occupied:

       1A    -20.558048     2A    -15.546592     3A    -11.279661
       4A    -11.249927     5A    -11.226082     6A    -11.213391
       7A     -1.357038     8A     -1.180640     9A     -1.052342
      10A     -0.952330    11A     -0.866440    12A     -0.807970
      13A     -0.675535    14A     -0.656363    15A     -0.643243
      16A     -0.627269    17A     -0.587407    18A     -0.557456
      19A     -0.543030    20A     -0.530982    21A     -0.496156
      22A     -0.487705    23A     -0.481523    24A     -0.453320
      25A     -0.376278

  @DF-RHF Final Energy:  -287.27452883869188

   => Energetics <=

    Nuclear Repulsion Energy =            259.1410901960858837
    One-Electron Energy =                -904.0177783101447631
    Two-Electron Energy =                 357.6021592753670006
    Total Energy =                       -287.2745288386918787
  Basis Set: (AUG-CC-PVTZ AUX)
    Blend: AUG-CC-PVTZ-RI
    Molecular point group: c1

    Geometry (in Angstrom), charge = 0, multiplicity = 1:

       Center              X                  Y                   Z               Mass
    ------------   -----------------  -----------------  -----------------  -----------------
         O            0.574382908996     1.631376257805    -0.090379837616    15.994914619570
         N           -2.251783091004    -0.859331742195    -0.111267837616    14.003074004430
         C            0.002131908996     0.331121257805    -0.288304837616    12.000000000000
         C            0.856491908996    -0.749203742195     0.365797162384    12.000000000000
         C           -1.477433291004     0.315992157805     0.284188362384    12.000000000000
         C            2.290598908996    -0.763327742195    -0.153525837616    12.000000000000
         H            0.018338908996     0.192435257805    -1.377503837616     1.007825032230
         H            0.849667908996    -0.579566742195     1.452812162384     1.007825032230
         H            0.390835908996    -1.728475742195     0.202192162384     1.007825032230
         H           -1.470393091004     0.482429257805     1.273811162384     1.007825032230
         H           -1.950604091004     1.198096257805    -0.261453837616     1.007825032230
         H            2.889591908996    -1.522523742195     0.357213162384     1.007825032230
         H            2.759123908996     0.210910257805    -0.003592837616     1.007825032230
         H            2.309764908996    -0.982787742195    -1.225452837616     1.007825032230
         H           -1.842533091004    -1.680369742195     0.329217162384     1.007825032230
         H           -2.249684091004    -1.034616742195    -1.115076837616     1.007825032230
         H            0.561369908996     1.797585257805     0.869758162384     1.007825032230

  Basis Set: AUG-CC-PVTZ
    Blend: AUG-CC-PVTZ
  Basis Set: (AUG-CC-PVTZ AUX)
    Blend: AUG-CC-PVTZ-JKFIT
	 Reference Energy          =    -287.2745288386918787 [Eh]
	 Singles Energy            =      -0.0000000000000000 [Eh]
	 Same-Spin Energy          =      -0.2926750530818778 [Eh]
	 Opposite-Spin Energy      =      -1.0021309986379643 [Eh]
	 Correlation Energy        =      -1.2948060517198421 [Eh]
	 Total Energy              =    -288.5693348904117101 [Eh]

	 ================> DF-SCS-MP2 Energies <==================
	-----------------------------------------------------------
	 SCS Same-Spin Scale       =       0.3333333333333333 [-]
	 SCS Opposite-Spin Scale   =       1.2000000000000000 [-]
	 SCS Same-Spin Energy      =      -0.0975583510272926 [Eh]
	 SCS Opposite-Spin Energy  =      -1.2025571983655572 [Eh]
	 SCS Correlation Energy    =      -1.3001155493928498 [Eh]
	 SCS Total Energy          =    -288.5746443880847210 [Eh]
	-----------------------------------------------------------

  Dipole Moment: [D]
     X:     0.7077      Y:    -1.2906      Z:     0.7037     Total:     1.6315

*** Psi4 exiting successfully. Buy a developer a beer!
