                               Psi4 1.4a3.dev225

  ==> Input File <==

--------------------------------------------------------------------------
#psi4
#
memory 32 gb

molecule  {
0 1
  O        0.5491460     1.6657540    -0.0835270
  N       -2.2770200    -0.8249540    -0.1044150
  C       -0.0231050     0.3654990    -0.2814520
  C        0.8312550    -0.7148260     0.3726500
  C       -1.5280444     0.3644726     0.2079045
  C        2.2653620    -0.7289500    -0.1466730
  H       -0.0068980     0.2268130    -1.3706510
  H        0.8244310    -0.5451890     1.4596650
  H        0.3655990    -1.6940980     0.2090450
  H       -1.4956300     0.5168070     1.2806640
  H       -1.9758410     1.2324740    -0.2546010
  H        2.8643550    -1.4881460     0.3640660
  H        2.7338870     0.2452880     0.0032600
  H        2.2845280    -0.9484100    -1.2186000
  H       -1.8677700    -1.6459920     0.3360700
  H       -2.2749210    -1.0002390    -1.1082240
  H        0.5361330     1.8319630     0.8766110
units angstrom
no_reorient  #important for SAPT in psi4, default
symmetry c1  #important for SAPT in psi4, default
}

set PROPERTIES_ORIGIN ["COM"]
properties('MP2/aug-cc-pvtz', properties = ['dipole'])
--------------------------------------------------------------------------

    Molecular point group: c1
  Charge       = 0
  Multiplicity = 1
  Basis Set: AUG-CC-PVTZ
    Blend: AUG-CC-PVTZ
  Basis Set: (AUG-CC-PVTZ AUX)
    Blend: AUG-CC-PVTZ-JKFIT

    Orbital Energies [Eh]
    ---------------------

    Doubly Occupied:

       1A    -20.558140     2A    -15.547058     3A    -11.278141
       4A    -11.250058     5A    -11.226901     6A    -11.213809
       7A     -1.356710     8A     -1.187400     9A     -1.052165
      10A     -0.951204    11A     -0.864413    12A     -0.804539
      13A     -0.679082    14A     -0.654891    15A     -0.643132
      16A     -0.631353    17A     -0.581583    18A     -0.559747
      19A     -0.543501    20A     -0.523266    21A     -0.504904
      22A     -0.487698    23A     -0.480610    24A     -0.453846
      25A     -0.378079

  @DF-RHF Final Energy:  -287.28494710877726

   => Energetics <=

    Nuclear Repulsion Energy =            259.1941322432240895
    One-Electron Energy =                -904.1336973035153051
    Two-Electron Energy =                 357.6546179515139556
    Total Energy =                       -287.2849471087772599
  Basis Set: (AUG-CC-PVTZ AUX)
    Blend: AUG-CC-PVTZ-RI
    Molecular point group: c1

    Geometry (in Angstrom), charge = 0, multiplicity = 1:

       Center              X                  Y                   Z               Mass
    ------------   -----------------  -----------------  -----------------  -----------------
         O            0.577800920999     1.629476564499    -0.079180972685    15.994914619570
         N           -2.248365079001    -0.861231435501    -0.100068972685    14.003074004430
         C            0.005549920999     0.329221564499    -0.277105972685    12.000000000000
         C            0.859909920999    -0.751103435501     0.376996027315    12.000000000000
         C           -1.499389479001     0.328195164499     0.212250527315    12.000000000000
         C            2.294016920999    -0.765227435501    -0.142326972685    12.000000000000
         H            0.021756920999     0.190535564499    -1.366304972685     1.007825032230
         H            0.853085920999    -0.581466435501     1.464011027315     1.007825032230
         H            0.394253920999    -1.730375435501     0.213391027315     1.007825032230
         H           -1.466975079001     0.480529564499     1.285010027315     1.007825032230
         H           -1.947186079001     1.196196564499    -0.250254972685     1.007825032230
         H            2.893009920999    -1.524423435501     0.368412027315     1.007825032230
         H            2.762541920999     0.209010564499     0.007606027315     1.007825032230
         H            2.313182920999    -0.984687435501    -1.214253972685     1.007825032230
         H           -1.839115079001    -1.682269435501     0.340416027315     1.007825032230
         H           -2.246266079001    -1.036516435501    -1.103877972685     1.007825032230
         H            0.564787920999     1.795685564499     0.880957027315     1.007825032230

  Basis Set: AUG-CC-PVTZ
    Blend: AUG-CC-PVTZ
  Basis Set: (AUG-CC-PVTZ AUX)
    Blend: AUG-CC-PVTZ-JKFIT
	 Reference Energy          =    -287.2849471087772599 [Eh]
	 Singles Energy            =      -0.0000000000000000 [Eh]
	 Same-Spin Energy          =      -0.2926667642663442 [Eh]
	 Opposite-Spin Energy      =      -1.0015793486845506 [Eh]
	 Correlation Energy        =      -1.2942461129508946 [Eh]
	 Total Energy              =    -288.5791932217281328 [Eh]

	 ================> DF-SCS-MP2 Energies <==================
	-----------------------------------------------------------
	 SCS Same-Spin Scale       =       0.3333333333333333 [-]
	 SCS Opposite-Spin Scale   =       1.2000000000000000 [-]
	 SCS Same-Spin Energy      =      -0.0975555880887814 [Eh]
	 SCS Opposite-Spin Energy  =      -1.2018952184214606 [Eh]
	 SCS Correlation Energy    =      -1.2994508065102419 [Eh]
	 SCS Total Energy          =    -288.5843979152875249 [Eh]
	-----------------------------------------------------------

  Dipole Moment: [D]
     X:     0.6624      Y:    -1.3129      Z:     0.6384     Total:     1.6031

*** Psi4 exiting successfully. Buy a developer a beer!
