                               Psi4 1.4a3.dev225

  ==> Input File <==

--------------------------------------------------------------------------
#psi4
#
memory 32 gb

molecule  {
0 1
  O        0.5491460     1.6657540    -0.0835270
  N       -2.2770200    -0.8249540    -0.1044150
  C       -0.0231050     0.3654990    -0.2814520
  C        0.8312550    -0.7148260     0.3726500
  C       -1.4708566     0.3694027     0.1425712
  C        2.2653620    -0.7289500    -0.1466730
  H       -0.0068980     0.2268130    -1.3706510
  H        0.8244310    -0.5451890     1.4596650
  H        0.3655990    -1.6940980     0.2090450
  H       -1.4956300     0.5168070     1.2806640
  H       -1.9758410     1.2324740    -0.2546010
  H        2.8643550    -1.4881460     0.3640660
  H        2.7338870     0.2452880     0.0032600
  H        2.2845280    -0.9484100    -1.2186000
  H       -1.8677700    -1.6459920     0.3360700
  H       -2.2749210    -1.0002390    -1.1082240
  H        0.5361330     1.8319630     0.8766110
units angstrom
no_reorient  #important for SAPT in psi4, default
symmetry c1  #important for SAPT in psi4, default
}

set PROPERTIES_ORIGIN ["COM"]
properties('MP2/aug-cc-pvtz', properties = ['dipole'])
--------------------------------------------------------------------------

    Molecular point group: c1
  Charge       = 0
  Multiplicity = 1
  Basis Set: AUG-CC-PVTZ
    Blend: AUG-CC-PVTZ
  Basis Set: (AUG-CC-PVTZ AUX)
    Blend: AUG-CC-PVTZ-JKFIT

    Orbital Energies [Eh]
    ---------------------

    Doubly Occupied:

       1A    -20.559591     2A    -15.548996     3A    -11.277902
       4A    -11.252328     5A    -11.228488     6A    -11.214794
       7A     -1.359401     8A     -1.184566     9A     -1.055355
      10A     -0.961854    11A     -0.862429    12A     -0.803830
      13A     -0.678237    14A     -0.658584    15A     -0.645030
      16A     -0.634364    17A     -0.581704    18A     -0.559630
      19A     -0.541539    20A     -0.515144    21A     -0.501001
      22A     -0.488722    23A     -0.479852    24A     -0.451806
      25A     -0.392503

  @DF-RHF Final Energy:  -287.28331532990569

   => Energetics <=

    Nuclear Repulsion Energy =            259.9670973852039424
    One-Electron Energy =                -905.6255305974389103
    Two-Electron Energy =                 358.3751178823292776
    Total Energy =                       -287.2833153299056903
  Basis Set: (AUG-CC-PVTZ AUX)
    Blend: AUG-CC-PVTZ-RI
    Molecular point group: c1

    Geometry (in Angstrom), charge = 0, multiplicity = 1:

       Center              X                  Y                   Z               Mass
    ------------   -----------------  -----------------  -----------------  -----------------
         O            0.570097482591     1.628812459188    -0.070380300994    15.994914619570
         N           -2.256068517409    -0.861895540812    -0.091268300994    14.003074004430
         C           -0.002153517409     0.328557459188    -0.268305300994    12.000000000000
         C            0.852206482591    -0.751767540812     0.385796699006    12.000000000000
         C           -1.449905117409     0.332461159188     0.155717899006    12.000000000000
         C            2.286313482591    -0.765891540812    -0.133526300994    12.000000000000
         H            0.014053482591     0.189871459188    -1.357504300994     1.007825032230
         H            0.845382482591    -0.582130540812     1.472811699006     1.007825032230
         H            0.386550482591    -1.731039540812     0.222191699006     1.007825032230
         H           -1.474678517409     0.479865459188     1.293810699006     1.007825032230
         H           -1.954889517409     1.195532459188    -0.241454300994     1.007825032230
         H            2.885306482591    -1.525087540812     0.377212699006     1.007825032230
         H            2.754838482591     0.208346459188     0.016406699006     1.007825032230
         H            2.305479482591    -0.985351540812    -1.205453300994     1.007825032230
         H           -1.846818517409    -1.682933540812     0.349216699006     1.007825032230
         H           -2.253969517409    -1.037180540812    -1.095077300994     1.007825032230
         H            0.557084482591     1.795021459188     0.889757699006     1.007825032230

  Basis Set: AUG-CC-PVTZ
    Blend: AUG-CC-PVTZ
  Basis Set: (AUG-CC-PVTZ AUX)
    Blend: AUG-CC-PVTZ-JKFIT
	 Reference Energy          =    -287.2833153299056903 [Eh]
	 Singles Energy            =      -0.0000000000000000 [Eh]
	 Same-Spin Energy          =      -0.2930114552585363 [Eh]
	 Opposite-Spin Energy      =      -1.0021663029262613 [Eh]
	 Correlation Energy        =      -1.2951777581847976 [Eh]
	 Total Energy              =    -288.5784930880905108 [Eh]

	 ================> DF-SCS-MP2 Energies <==================
	-----------------------------------------------------------
	 SCS Same-Spin Scale       =       0.3333333333333333 [-]
	 SCS Opposite-Spin Scale   =       1.2000000000000000 [-]
	 SCS Same-Spin Energy      =      -0.0976704850861788 [Eh]
	 SCS Opposite-Spin Energy  =      -1.2025995635115134 [Eh]
	 SCS Correlation Energy    =      -1.3002700485976921 [Eh]
	 SCS Total Energy          =    -288.5835853785033578 [Eh]
	-----------------------------------------------------------

  Dipole Moment: [D]
     X:     0.7252      Y:    -1.3174      Z:     0.5751     Total:     1.6100

*** Psi4 exiting successfully. Buy a developer a beer!
