                               Psi4 1.4a3.dev225

  ==> Input File <==

--------------------------------------------------------------------------
#psi4
#
memory 32 gb

molecule  {
0 1
  O        0.5491460     1.6657540    -0.0835270
  N       -2.2770200    -0.8249540    -0.1044150
  C       -0.0231050     0.3654990    -0.2814520
  C        0.7752224    -0.6439737     0.3297512
  C       -1.4804950     0.3645050     0.1924430
  C        2.2653620    -0.7289500    -0.1466730
  H       -0.0068980     0.2268130    -1.3706510
  H        0.8244310    -0.5451890     1.4596650
  H        0.3655990    -1.6940980     0.2090450
  H       -1.4956300     0.5168070     1.2806640
  H       -1.9758410     1.2324740    -0.2546010
  H        2.8643550    -1.4881460     0.3640660
  H        2.7338870     0.2452880     0.0032600
  H        2.2845280    -0.9484100    -1.2186000
  H       -1.8677700    -1.6459920     0.3360700
  H       -2.2749210    -1.0002390    -1.1082240
  H        0.5361330     1.8319630     0.8766110
units angstrom
no_reorient  #important for SAPT in psi4, default
symmetry c1  #important for SAPT in psi4, default
}

set PROPERTIES_ORIGIN ["COM"]
properties('MP2/aug-cc-pvtz', properties = ['dipole'])
--------------------------------------------------------------------------

    Molecular point group: c1
  Charge       = 0
  Multiplicity = 1
  Basis Set: AUG-CC-PVTZ
    Blend: AUG-CC-PVTZ
  Basis Set: (AUG-CC-PVTZ AUX)
    Blend: AUG-CC-PVTZ-JKFIT

    Orbital Energies [Eh]
    ---------------------

    Doubly Occupied:

       1A    -20.558922     2A    -15.547683     3A    -11.274021
       4A    -11.251203     5A    -11.231702     6A    -11.217110
       7A     -1.361136     8A     -1.183799     9A     -1.062068
      10A     -0.958135    11A     -0.869660    12A     -0.802220
      13A     -0.677310    14A     -0.660396    15A     -0.646168
      16A     -0.639448    17A     -0.577069    18A     -0.555871
      19A     -0.543061    20A     -0.524631    21A     -0.496367
      22A     -0.476125    23A     -0.474410    24A     -0.466707
      25A     -0.388468

  @DF-RHF Final Energy:  -287.27522692065128

   => Energetics <=

    Nuclear Repulsion Energy =            260.9270521401343217
    One-Electron Energy =                -907.5171760847864562
    Two-Electron Energy =                 359.3148970240007998
    Total Energy =                       -287.2752269206512779
  Basis Set: (AUG-CC-PVTZ AUX)
    Blend: AUG-CC-PVTZ-RI
    Molecular point group: c1

    Geometry (in Angstrom), charge = 0, multiplicity = 1:

       Center              X                  Y                   Z               Mass
    ------------   -----------------  -----------------  -----------------  -----------------
         O            0.578943643900     1.619928095760    -0.071319593571    15.994914619570
         N           -2.247222356100    -0.870779904240    -0.092207593571    14.003074004430
         C            0.006692643900     0.319673095760    -0.269244593571    12.000000000000
         C            0.805020043900    -0.689799604240     0.341958606429    12.000000000000
         C           -1.450697356100     0.318679095760     0.204650406429    12.000000000000
         C            2.295159643900    -0.774775904240    -0.134465593571    12.000000000000
         H            0.022899643900     0.180987095760    -1.358443593571     1.007825032230
         H            0.854228643900    -0.591014904240     1.471872406429     1.007825032230
         H            0.395396643900    -1.739923904240     0.221252406429     1.007825032230
         H           -1.465832356100     0.470981095760     1.292871406429     1.007825032230
         H           -1.946043356100     1.186648095760    -0.242393593571     1.007825032230
         H            2.894152643900    -1.533971904240     0.376273406429     1.007825032230
         H            2.763684643900     0.199462095760     0.015467406429     1.007825032230
         H            2.314325643900    -0.994235904240    -1.206392593571     1.007825032230
         H           -1.837972356100    -1.691817904240     0.348277406429     1.007825032230
         H           -2.245123356100    -1.046064904240    -1.096016593571     1.007825032230
         H            0.565930643900     1.786137095760     0.888818406429     1.007825032230

  Basis Set: AUG-CC-PVTZ
    Blend: AUG-CC-PVTZ
  Basis Set: (AUG-CC-PVTZ AUX)
    Blend: AUG-CC-PVTZ-JKFIT
	 Reference Energy          =    -287.2752269206512779 [Eh]
	 Singles Energy            =      -0.0000000000000000 [Eh]
	 Same-Spin Energy          =      -0.2936685507571636 [Eh]
	 Opposite-Spin Energy      =      -1.0029711885799033 [Eh]
	 Correlation Energy        =      -1.2966397393370670 [Eh]
	 Total Energy              =    -288.5718666599883591 [Eh]

	 ================> DF-SCS-MP2 Energies <==================
	-----------------------------------------------------------
	 SCS Same-Spin Scale       =       0.3333333333333333 [-]
	 SCS Opposite-Spin Scale   =       1.2000000000000000 [-]
	 SCS Same-Spin Energy      =      -0.0978895169190545 [Eh]
	 SCS Opposite-Spin Energy  =      -1.2035654262958839 [Eh]
	 SCS Correlation Energy    =      -1.3014549432149385 [Eh]
	 SCS Total Energy          =    -288.5766818638662130 [Eh]
	-----------------------------------------------------------

  Dipole Moment: [D]
     X:     0.7343      Y:    -1.3367      Z:     0.6207     Total:     1.6466

*** Psi4 exiting successfully. Buy a developer a beer!
