                               Psi4 1.4a3.dev225

  ==> Input File <==

--------------------------------------------------------------------------
#psi4
#
memory 32 gb

molecule  {
0 1
  O        0.5491460     1.6657540    -0.0835270
  N       -2.2770200    -0.8249540    -0.1044150
  C       -0.0231050     0.3654990    -0.2814520
  C        0.8312550    -0.7148260     0.3726500
  C       -1.4804950     0.3645050     0.1924430
  C        2.3123725    -0.7294130    -0.1636966
  H       -0.0068980     0.2268130    -1.3706510
  H        0.8244310    -0.5451890     1.4596650
  H        0.3655990    -1.6940980     0.2090450
  H       -1.4956300     0.5168070     1.2806640
  H       -1.9758410     1.2324740    -0.2546010
  H        2.8643550    -1.4881460     0.3640660
  H        2.7338870     0.2452880     0.0032600
  H        2.2845280    -0.9484100    -1.2186000
  H       -1.8677700    -1.6459920     0.3360700
  H       -2.2749210    -1.0002390    -1.1082240
  H        0.5361330     1.8319630     0.8766110
units angstrom
no_reorient  #important for SAPT in psi4, default
symmetry c1  #important for SAPT in psi4, default
}

set PROPERTIES_ORIGIN ["COM"]
properties('MP2/aug-cc-pvtz', properties = ['dipole'])
--------------------------------------------------------------------------

    Molecular point group: c1
  Charge       = 0
  Multiplicity = 1
  Basis Set: AUG-CC-PVTZ
    Blend: AUG-CC-PVTZ
  Basis Set: (AUG-CC-PVTZ AUX)
    Blend: AUG-CC-PVTZ-JKFIT

    Orbital Energies [Eh]
    ---------------------

    Doubly Occupied:

       1A    -20.558850     2A    -15.547604     3A    -11.278003
       4A    -11.250592     5A    -11.229306     6A    -11.212809
       7A     -1.358315     8A     -1.182701     9A     -1.047630
      10A     -0.957303    11A     -0.865788    12A     -0.805008
      13A     -0.675626    14A     -0.657402    15A     -0.643085
      16A     -0.631340    17A     -0.581982    18A     -0.557798
      19A     -0.542553    20A     -0.525672    21A     -0.494823
      22A     -0.494052    23A     -0.476692    24A     -0.454397
      25A     -0.387233

  @DF-RHF Final Energy:  -287.28481963535506

   => Energetics <=

    Nuclear Repulsion Energy =            259.0291777616594118
    One-Electron Energy =                -903.7948677845672592
    Two-Electron Energy =                 357.4808703875527840
    Total Energy =                       -287.2848196353550634
  Basis Set: (AUG-CC-PVTZ AUX)
    Blend: AUG-CC-PVTZ-RI
    Molecular point group: c1

    Geometry (in Angstrom), charge = 0, multiplicity = 1:

       Center              X                  Y                   Z               Mass
    ------------   -----------------  -----------------  -----------------  -----------------
         O            0.565063302739     1.629534568139    -0.074805092392    15.994914619570
         N           -2.261102697261    -0.861173431861    -0.095693092392    14.003074004430
         C           -0.007187697261     0.329279568139    -0.272730092392    12.000000000000
         C            0.847172302739    -0.751045431861     0.381371907608    12.000000000000
         C           -1.464577697261     0.328285568139     0.201164907608    12.000000000000
         C            2.328289802739    -0.765632431861    -0.154974692392    12.000000000000
         H            0.009019302739     0.190593568139    -1.361929092392     1.007825032230
         H            0.840348302739    -0.581408431861     1.468386907608     1.007825032230
         H            0.381516302739    -1.730317431861     0.217766907608     1.007825032230
         H           -1.479712697261     0.480587568139     1.289385907608     1.007825032230
         H           -1.959923697261     1.196254568139    -0.245879092392     1.007825032230
         H            2.880272302739    -1.524365431861     0.372787907608     1.007825032230
         H            2.749804302739     0.209068568139     0.011981907608     1.007825032230
         H            2.300445302739    -0.984629431861    -1.209878092392     1.007825032230
         H           -1.851852697261    -1.682211431861     0.344791907608     1.007825032230
         H           -2.259003697261    -1.036458431861    -1.099502092392     1.007825032230
         H            0.552050302739     1.795743568139     0.885332907608     1.007825032230

  Basis Set: AUG-CC-PVTZ
    Blend: AUG-CC-PVTZ
  Basis Set: (AUG-CC-PVTZ AUX)
    Blend: AUG-CC-PVTZ-JKFIT
	 Reference Energy          =    -287.2848196353550634 [Eh]
	 Singles Energy            =      -0.0000000000000000 [Eh]
	 Same-Spin Energy          =      -0.2925539442034450 [Eh]
	 Opposite-Spin Energy      =      -1.0017236151925268 [Eh]
	 Correlation Energy        =      -1.2942775593959719 [Eh]
	 Total Energy              =    -288.5790971947510570 [Eh]

	 ================> DF-SCS-MP2 Energies <==================
	-----------------------------------------------------------
	 SCS Same-Spin Scale       =       0.3333333333333333 [-]
	 SCS Opposite-Spin Scale   =       1.2000000000000000 [-]
	 SCS Same-Spin Energy      =      -0.0975179814011483 [Eh]
	 SCS Opposite-Spin Energy  =      -1.2020683382310322 [Eh]
	 SCS Correlation Energy    =      -1.2995863196321806 [Eh]
	 SCS Total Energy          =    -288.5844059549872327 [Eh]
	-----------------------------------------------------------

  Dipole Moment: [D]
     X:     0.7218      Y:    -1.3051      Z:     0.6244     Total:     1.6168

*** Psi4 exiting successfully. Buy a developer a beer!
