                               Psi4 1.4a3.dev225

  ==> Input File <==

--------------------------------------------------------------------------
#psi4
#
memory 32 gb

molecule  {
0 1
  O        0.5491460     1.6657540    -0.0835270
  N       -2.2770200    -0.8249540    -0.1044150
  C       -0.0231050     0.3654990    -0.2814520
  C        0.8312550    -0.7148260     0.3726500
  C       -1.5349776     0.2831456     0.1721378
  C        2.2653620    -0.7289500    -0.1466730
  H       -0.0068980     0.2268130    -1.3706510
  H        0.8244310    -0.5451890     1.4596650
  H        0.3655990    -1.6940980     0.2090450
  H       -1.4956300     0.5168070     1.2806640
  H       -1.9758410     1.2324740    -0.2546010
  H        2.8643550    -1.4881460     0.3640660
  H        2.7338870     0.2452880     0.0032600
  H        2.2845280    -0.9484100    -1.2186000
  H       -1.8677700    -1.6459920     0.3360700
  H       -2.2749210    -1.0002390    -1.1082240
  H        0.5361330     1.8319630     0.8766110
units angstrom
no_reorient  #important for SAPT in psi4, default
symmetry c1  #important for SAPT in psi4, default
}

set PROPERTIES_ORIGIN ["COM"]
properties('MP2/aug-cc-pvtz', properties = ['dipole'])
--------------------------------------------------------------------------

    Molecular point group: c1
  Charge       = 0
  Multiplicity = 1
  Basis Set: AUG-CC-PVTZ
    Blend: AUG-CC-PVTZ
  Basis Set: (AUG-CC-PVTZ AUX)
    Blend: AUG-CC-PVTZ-JKFIT

    Orbital Energies [Eh]
    ---------------------

    Doubly Occupied:

       1A    -20.560282     2A    -15.550574     3A    -11.276878
       4A    -11.254095     5A    -11.225880     6A    -11.212872
       7A     -1.356869     8A     -1.216871     9A     -1.052408
      10A     -0.947924    11A     -0.858084    12A     -0.803072
      13A     -0.686667    14A     -0.662824    15A     -0.644932
      16A     -0.639062    17A     -0.584703    18A     -0.563279
      19A     -0.539664    20A     -0.519645    21A     -0.493663
      22A     -0.488018    23A     -0.481319    24A     -0.450183
      25A     -0.376037

  @DF-RHF Final Energy:  -287.27511601407923

   => Energetics <=

    Nuclear Repulsion Energy =            259.8826801184663395
    One-Electron Energy =                -905.4239802767367564
    Two-Electron Energy =                 358.2661841441911292
    Total Energy =                       -287.2751160140792308
  Basis Set: (AUG-CC-PVTZ AUX)
    Blend: AUG-CC-PVTZ-RI
    Molecular point group: c1

    Geometry (in Angstrom), charge = 0, multiplicity = 1:

       Center              X                  Y                   Z               Mass
    ------------   -----------------  -----------------  -----------------  -----------------
         O            0.578734852348     1.640431655190    -0.074363047000    15.994914619570
         N           -2.247431147652    -0.850276344810    -0.095251047000    14.003074004430
         C            0.006483852348     0.340176655190    -0.272288047000    12.000000000000
         C            0.860843852348    -0.740148344810     0.381813953000    12.000000000000
         C           -1.505388747652     0.257823255190     0.181301753000    12.000000000000
         C            2.294950852348    -0.754272344810    -0.137509047000    12.000000000000
         H            0.022690852348     0.201490655190    -1.361487047000     1.007825032230
         H            0.854019852348    -0.570511344810     1.468828953000     1.007825032230
         H            0.395187852348    -1.719420344810     0.218208953000     1.007825032230
         H           -1.466041147652     0.491484655190     1.289827953000     1.007825032230
         H           -1.946252147652     1.207151655190    -0.245437047000     1.007825032230
         H            2.893943852348    -1.513468344810     0.373229953000     1.007825032230
         H            2.763475852348     0.219965655190     0.012423953000     1.007825032230
         H            2.314116852348    -0.973732344810    -1.209436047000     1.007825032230
         H           -1.838181147652    -1.671314344810     0.345233953000     1.007825032230
         H           -2.245332147652    -1.025561344810    -1.099060047000     1.007825032230
         H            0.565721852348     1.806640655190     0.885774953000     1.007825032230

  Basis Set: AUG-CC-PVTZ
    Blend: AUG-CC-PVTZ
  Basis Set: (AUG-CC-PVTZ AUX)
    Blend: AUG-CC-PVTZ-JKFIT
	 Reference Energy          =    -287.2751160140792308 [Eh]
	 Singles Energy            =      -0.0000000000000000 [Eh]
	 Same-Spin Energy          =      -0.2936148899406687 [Eh]
	 Opposite-Spin Energy      =      -1.0023275644560292 [Eh]
	 Correlation Energy        =      -1.2959424543966980 [Eh]
	 Total Energy              =    -288.5710584684759397 [Eh]

	 ================> DF-SCS-MP2 Energies <==================
	-----------------------------------------------------------
	 SCS Same-Spin Scale       =       0.3333333333333333 [-]
	 SCS Opposite-Spin Scale   =       1.2000000000000000 [-]
	 SCS Same-Spin Energy      =      -0.0978716299802229 [Eh]
	 SCS Opposite-Spin Energy  =      -1.2027930773472351 [Eh]
	 SCS Correlation Energy    =      -1.3006647073274580 [Eh]
	 SCS Total Energy          =    -288.5757807214067157 [Eh]
	-----------------------------------------------------------

  Dipole Moment: [D]
     X:     0.5312      Y:    -1.4987      Z:     0.5722     Total:     1.6899

*** Psi4 exiting successfully. Buy a developer a beer!
