                               Psi4 1.4a3.dev225

  ==> Input File <==

--------------------------------------------------------------------------
#psi4
#
memory 32 gb

molecule  {
0 1
  O        0.5491460     1.6657540    -0.0835270
  N       -2.2770200    -0.8249540    -0.1044150
  C       -0.0231050     0.3654990    -0.2814520
  C        0.8312550    -0.7148260     0.3726500
  C       -1.4804950     0.3645050     0.1924430
  C        2.2653620    -0.7289500    -0.1466730
  H       -0.0068980     0.2268130    -1.3706510
  H        0.8244310    -0.5451890     1.4596650
  H        0.3655990    -1.6940980     0.2090450
  H       -1.4956300     0.5168070     1.2806640
  H       -1.9758410     1.2324740    -0.2546010
  H        2.8643550    -1.4881460     0.3640660
  H        2.7338870     0.2452880     0.0032600
  H        2.2845280    -0.9484100    -1.2186000
  H       -1.8677700    -1.6459920     0.3360700
  H       -2.2749210    -1.0002390    -1.1082240
  H        0.5368007     1.8234351     0.8273481
units angstrom
no_reorient  #important for SAPT in psi4, default
symmetry c1  #important for SAPT in psi4, default
}

set PROPERTIES_ORIGIN ["COM"]
properties('MP2/aug-cc-pvtz', properties = ['dipole'])
--------------------------------------------------------------------------

    Molecular point group: c1
  Charge       = 0
  Multiplicity = 1
  Basis Set: AUG-CC-PVTZ
    Blend: AUG-CC-PVTZ
  Basis Set: (AUG-CC-PVTZ AUX)
    Blend: AUG-CC-PVTZ-JKFIT

    Orbital Energies [Eh]
    ---------------------

    Doubly Occupied:

       1A    -20.554039     2A    -15.548005     3A    -11.278517
       4A    -11.250993     5A    -11.227877     6A    -11.214525
       7A     -1.370204     8A     -1.183355     9A     -1.055677
      10A     -0.959713    11A     -0.863246    12A     -0.809528
      13A     -0.676894    14A     -0.665546    15A     -0.645071
      16A     -0.633172    17A     -0.581286    18A     -0.556276
      19A     -0.545878    20A     -0.521484    21A     -0.502578
      22A     -0.488700    23A     -0.482048    24A     -0.454202
      25A     -0.388078

  @DF-RHF Final Energy:  -287.28725855502626

   => Energetics <=

    Nuclear Repulsion Energy =            260.0115538080953002
    One-Electron Energy =                -905.6838429772340078
    Two-Electron Energy =                 358.3850306141124520
    Total Energy =                       -287.2872585550262556
  Basis Set: (AUG-CC-PVTZ AUX)
    Blend: AUG-CC-PVTZ-RI
    Molecular point group: c1

    Geometry (in Angstrom), charge = 0, multiplicity = 1:

       Center              X                  Y                   Z               Mass
    ------------   -----------------  -----------------  -----------------  -----------------
         O            0.571388261998     1.629568677843    -0.076540922678    15.994914619570
         N           -2.254777738002    -0.861139322157    -0.097428922678    14.003074004430
         C           -0.000862738002     0.329313677843    -0.274465922678    12.000000000000
         C            0.853497261998    -0.751011322157     0.379636077322    12.000000000000
         C           -1.458252738002     0.328319677843     0.199429077322    12.000000000000
         C            2.287604261998    -0.765135322157    -0.139686922678    12.000000000000
         H            0.015344261998     0.190627677843    -1.363664922678     1.007825032230
         H            0.846673261998    -0.581374322157     1.466651077322     1.007825032230
         H            0.387841261998    -1.730283322157     0.216031077322     1.007825032230
         H           -1.473387738002     0.480621677843     1.287650077322     1.007825032230
         H           -1.953598738002     1.196288677843    -0.247614922678     1.007825032230
         H            2.886597261998    -1.524331322157     0.371052077322     1.007825032230
         H            2.756129261998     0.209102677843     0.010246077322     1.007825032230
         H            2.306770261998    -0.984595322157    -1.211613922678     1.007825032230
         H           -1.845527738002    -1.682177322157     0.343056077322     1.007825032230
         H           -2.252678738002    -1.036424322157    -1.101237922678     1.007825032230
         H            0.559042961998     1.787249777843     0.834334177322     1.007825032230

  Basis Set: AUG-CC-PVTZ
    Blend: AUG-CC-PVTZ
  Basis Set: (AUG-CC-PVTZ AUX)
    Blend: AUG-CC-PVTZ-JKFIT
	 Reference Energy          =    -287.2872585550262556 [Eh]
	 Singles Energy            =      -0.0000000000000000 [Eh]
	 Same-Spin Energy          =      -0.2921697498462301 [Eh]
	 Opposite-Spin Energy      =      -1.0002921889595162 [Eh]
	 Correlation Energy        =      -1.2924619388057463 [Eh]
	 Total Energy              =    -288.5797204938319851 [Eh]

	 ================> DF-SCS-MP2 Energies <==================
	-----------------------------------------------------------
	 SCS Same-Spin Scale       =       0.3333333333333333 [-]
	 SCS Opposite-Spin Scale   =       1.2000000000000000 [-]
	 SCS Same-Spin Energy      =      -0.0973899166154100 [Eh]
	 SCS Opposite-Spin Energy  =      -1.2003506267514195 [Eh]
	 SCS Correlation Energy    =      -1.2977405433668294 [Eh]
	 SCS Total Energy          =    -288.5849990983930979 [Eh]
	-----------------------------------------------------------

  Dipole Moment: [D]
     X:     0.7149      Y:    -1.3192      Z:     0.6001     Total:     1.6160

*** Psi4 exiting successfully. Buy a developer a beer!
