                               Psi4 1.4a3.dev225

  ==> Input File <==

--------------------------------------------------------------------------
#psi4
#
memory 32 gb

molecule  {
0 1
  O        0.5491460     1.6657540    -0.0835270
  N       -2.2770200    -0.8249540    -0.1044150
  C       -0.0231050     0.3654990    -0.2814520
  C        0.8312550    -0.7148260     0.3726500
  C       -1.2902976     0.3646347     0.1305971
  C        2.2653620    -0.7289500    -0.1466730
  H       -0.0068980     0.2268130    -1.3706510
  H        0.8244310    -0.5451890     1.4596650
  H        0.3655990    -1.6940980     0.2090450
  H       -1.4956300     0.5168070     1.2806640
  H       -1.9758410     1.2324740    -0.2546010
  H        2.8643550    -1.4881460     0.3640660
  H        2.7338870     0.2452880     0.0032600
  H        2.2845280    -0.9484100    -1.2186000
  H       -1.8677700    -1.6459920     0.3360700
  H       -2.2749210    -1.0002390    -1.1082240
  H        0.5361330     1.8319630     0.8766110
units angstrom
no_reorient  #important for SAPT in psi4, default
symmetry c1  #important for SAPT in psi4, default
}

set PROPERTIES_ORIGIN ["COM"]
properties('MP2/aug-cc-pvtz', properties = ['dipole'])
--------------------------------------------------------------------------

    Molecular point group: c1
  Charge       = 0
  Multiplicity = 1
  Basis Set: AUG-CC-PVTZ
    Blend: AUG-CC-PVTZ
  Basis Set: (AUG-CC-PVTZ AUX)
    Blend: AUG-CC-PVTZ-JKFIT

    Orbital Energies [Eh]
    ---------------------

    Doubly Occupied:

       1A    -20.562235     2A    -15.553544     3A    -11.272496
       4A    -11.258074     5A    -11.230541     6A    -11.216022
       7A     -1.367444     8A     -1.169695     9A     -1.067695
      10A     -0.992690    11A     -0.857983    12A     -0.803854
      13A     -0.681637    14A     -0.666991    15A     -0.646088
      16A     -0.640280    17A     -0.585002    18A     -0.553419
      19A     -0.540658    20A     -0.498202    21A     -0.494539
      22A     -0.487875    23A     -0.477174    24A     -0.439307
      25A     -0.414021

  @DF-RHF Final Energy:  -287.23698872619201

   => Energetics <=

    Nuclear Repulsion Energy =            262.0476726606584066
    One-Electron Energy =                -909.6143963575225371
    Two-Electron Energy =                 360.3297349706720638
    Total Energy =                       -287.2369887261920098
  Basis Set: (AUG-CC-PVTZ AUX)
    Blend: AUG-CC-PVTZ-RI
    Molecular point group: c1

    Geometry (in Angstrom), charge = 0, multiplicity = 1:

       Center              X                  Y                   Z               Mass
    ------------   -----------------  -----------------  -----------------  -----------------
         O            0.545775422020     1.629454728943    -0.068767339106    15.994914619570
         N           -2.280390577980    -0.861253271057    -0.089655339106    14.003074004430
         C           -0.026475577980     0.329199728943    -0.266692339106    12.000000000000
         C            0.827884422020    -0.751125271057     0.387409660894    12.000000000000
         C           -1.293668177980     0.328335428943     0.145356760894    12.000000000000
         C            2.261991422020    -0.765249271057    -0.131913339106    12.000000000000
         H           -0.010268577980     0.190513728943    -1.355891339106     1.007825032230
         H            0.821060422020    -0.581488271057     1.474424660894     1.007825032230
         H            0.362228422020    -1.730397271057     0.223804660894     1.007825032230
         H           -1.499000577980     0.480507728943     1.295423660894     1.007825032230
         H           -1.979211577980     1.196174728943    -0.239841339106     1.007825032230
         H            2.860984422020    -1.524445271057     0.378825660894     1.007825032230
         H            2.730516422020     0.208988728943     0.018019660894     1.007825032230
         H            2.281157422020    -0.984709271057    -1.203840339106     1.007825032230
         H           -1.871140577980    -1.682291271057     0.350829660894     1.007825032230
         H           -2.278291577980    -1.036538271057    -1.093464339106     1.007825032230
         H            0.532762422020     1.795663728943     0.891370660894     1.007825032230

  Basis Set: AUG-CC-PVTZ
    Blend: AUG-CC-PVTZ
  Basis Set: (AUG-CC-PVTZ AUX)
    Blend: AUG-CC-PVTZ-JKFIT
	 Reference Energy          =    -287.2369887261920098 [Eh]
	 Singles Energy            =      -0.0000000000000000 [Eh]
	 Same-Spin Energy          =      -0.2956942587868980 [Eh]
	 Opposite-Spin Energy      =      -1.0070632470593244 [Eh]
	 Correlation Energy        =      -1.3027575058462224 [Eh]
	 Total Energy              =    -288.5397462320382260 [Eh]

	 ================> DF-SCS-MP2 Energies <==================
	-----------------------------------------------------------
	 SCS Same-Spin Scale       =       0.3333333333333333 [-]
	 SCS Opposite-Spin Scale   =       1.2000000000000000 [-]
	 SCS Same-Spin Energy      =      -0.0985647529289660 [Eh]
	 SCS Opposite-Spin Energy  =      -1.2084758964711892 [Eh]
	 SCS Correlation Energy    =      -1.3070406494001552 [Eh]
	 SCS Total Energy          =    -288.5440293755921743 [Eh]
	-----------------------------------------------------------

  Dipole Moment: [D]
     X:     0.9010      Y:    -1.3090      Z:     0.5606     Total:     1.6850

*** Psi4 exiting successfully. Buy a developer a beer!
