                               Psi4 1.4a3.dev225

  ==> Input File <==

--------------------------------------------------------------------------
#psi4
#
memory 32 gb

molecule  {
0 1
  O        0.5491460     1.6657540    -0.0835270
  N       -2.2770200    -0.8249540    -0.1044150
  C        0.0118100     0.4019793    -0.2646399
  C        0.8312550    -0.7148260     0.3726500
  C       -1.4804950     0.3645050     0.1924430
  C        2.2653620    -0.7289500    -0.1466730
  H       -0.0068980     0.2268130    -1.3706510
  H        0.8244310    -0.5451890     1.4596650
  H        0.3655990    -1.6940980     0.2090450
  H       -1.4956300     0.5168070     1.2806640
  H       -1.9758410     1.2324740    -0.2546010
  H        2.8643550    -1.4881460     0.3640660
  H        2.7338870     0.2452880     0.0032600
  H        2.2845280    -0.9484100    -1.2186000
  H       -1.8677700    -1.6459920     0.3360700
  H       -2.2749210    -1.0002390    -1.1082240
  H        0.5361330     1.8319630     0.8766110
units angstrom
no_reorient  #important for SAPT in psi4, default
symmetry c1  #important for SAPT in psi4, default
}

set PROPERTIES_ORIGIN ["COM"]
properties('MP2/aug-cc-pvtz', properties = ['dipole'])
--------------------------------------------------------------------------

    Molecular point group: c1
  Charge       = 0
  Multiplicity = 1
  Basis Set: AUG-CC-PVTZ
    Blend: AUG-CC-PVTZ
  Basis Set: (AUG-CC-PVTZ AUX)
    Blend: AUG-CC-PVTZ-JKFIT

    Orbital Energies [Eh]
    ---------------------

    Doubly Occupied:

       1A    -20.565412     2A    -15.547412     3A    -11.278516
       4A    -11.249492     5A    -11.226290     6A    -11.213682
       7A     -1.379801     8A     -1.180203     9A     -1.053097
      10A     -0.952882    11A     -0.860994    12A     -0.807919
      13A     -0.676189    14A     -0.664307    15A     -0.648553
      16A     -0.636605    17A     -0.580747    18A     -0.559138
      19A     -0.541950    20A     -0.522340    21A     -0.503580
      22A     -0.489490    23A     -0.476428    24A     -0.450547
      25A     -0.381717

  @DF-RHF Final Energy:  -287.28434063019762

   => Energetics <=

    Nuclear Repulsion Energy =            259.9399930568548029
    One-Electron Energy =                -905.5540900865795493
    Two-Electron Energy =                 358.3297563995270707
    Total Energy =                       -287.2843406301976188
  Basis Set: (AUG-CC-PVTZ AUX)
    Blend: AUG-CC-PVTZ-RI
    Molecular point group: c1

    Geometry (in Angstrom), charge = 0, multiplicity = 1:

       Center              X                  Y                   Z               Mass
    ------------   -----------------  -----------------  -----------------  -----------------
         O            0.566692617720     1.624558149460    -0.079362904214    15.994914619570
         N           -2.259473382280    -0.866149850540    -0.100250904214    14.003074004430
         C            0.029356617720     0.360783449460    -0.260475804214    12.000000000000
         C            0.848801617720    -0.756021850540     0.376814095786    12.000000000000
         C           -1.462948382280     0.323309149460     0.196607095786    12.000000000000
         C            2.282908617720    -0.770145850540    -0.142508904214    12.000000000000
         H            0.010648617720     0.185617149460    -1.366486904214     1.007825032230
         H            0.841977617720    -0.586384850540     1.463829095786     1.007825032230
         H            0.383145617720    -1.735293850540     0.213209095786     1.007825032230
         H           -1.478083382280     0.475611149460     1.284828095786     1.007825032230
         H           -1.958294382280     1.191278149460    -0.250436904214     1.007825032230
         H            2.881901617720    -1.529341850540     0.368230095786     1.007825032230
         H            2.751433617720     0.204092149460     0.007424095786     1.007825032230
         H            2.302074617720    -0.989605850540    -1.214435904214     1.007825032230
         H           -1.850223382280    -1.687187850540     0.340234095786     1.007825032230
         H           -2.257374382280    -1.041434850540    -1.104059904214     1.007825032230
         H            0.553679617720     1.790767149460     0.880775095786     1.007825032230

  Basis Set: AUG-CC-PVTZ
    Blend: AUG-CC-PVTZ
  Basis Set: (AUG-CC-PVTZ AUX)
    Blend: AUG-CC-PVTZ-JKFIT
	 Reference Energy          =    -287.2843406301976188 [Eh]
	 Singles Energy            =      -0.0000000000000000 [Eh]
	 Same-Spin Energy          =      -0.2928590748311742 [Eh]
	 Opposite-Spin Energy      =      -1.0013961121798405 [Eh]
	 Correlation Energy        =      -1.2942551870110148 [Eh]
	 Total Energy              =    -288.5785958172086225 [Eh]

	 ================> DF-SCS-MP2 Energies <==================
	-----------------------------------------------------------
	 SCS Same-Spin Scale       =       0.3333333333333333 [-]
	 SCS Opposite-Spin Scale   =       1.2000000000000000 [-]
	 SCS Same-Spin Energy      =      -0.0976196916103914 [Eh]
	 SCS Opposite-Spin Energy  =      -1.2016753346158084 [Eh]
	 SCS Correlation Energy    =      -1.2992950262261997 [Eh]
	 SCS Total Energy          =    -288.5836356564238372 [Eh]
	-----------------------------------------------------------

  Dipole Moment: [D]
     X:     0.7966      Y:    -1.1675      Z:     0.6601     Total:     1.5599

*** Psi4 exiting successfully. Buy a developer a beer!
