                               Psi4 1.4a3.dev225

  ==> Input File <==

--------------------------------------------------------------------------
#psi4
#
memory 32 gb

molecule  {
0 1
  O        0.5491460     1.6657540    -0.0835270
  N       -2.2770200    -0.8249540    -0.1044150
  C       -0.0231050     0.3654990    -0.2814520
  C        0.8312550    -0.7148260     0.3726500
  C       -1.4804950     0.3645050     0.1924430
  C        2.2653620    -0.7289500    -0.1466730
  H       -0.0068980     0.2268130    -1.3706510
  H        0.8238107    -0.5297702     1.5584672
  H        0.3655990    -1.6940980     0.2090450
  H       -1.4956300     0.5168070     1.2806640
  H       -1.9758410     1.2324740    -0.2546010
  H        2.8643550    -1.4881460     0.3640660
  H        2.7338870     0.2452880     0.0032600
  H        2.2845280    -0.9484100    -1.2186000
  H       -1.8677700    -1.6459920     0.3360700
  H       -2.2749210    -1.0002390    -1.1082240
  H        0.5361330     1.8319630     0.8766110
units angstrom
no_reorient  #important for SAPT in psi4, default
symmetry c1  #important for SAPT in psi4, default
}

set PROPERTIES_ORIGIN ["COM"]
properties('MP2/aug-cc-pvtz', properties = ['dipole'])
--------------------------------------------------------------------------

    Molecular point group: c1
  Charge       = 0
  Multiplicity = 1
  Basis Set: AUG-CC-PVTZ
    Blend: AUG-CC-PVTZ
  Basis Set: (AUG-CC-PVTZ AUX)
    Blend: AUG-CC-PVTZ-JKFIT

    Orbital Energies [Eh]
    ---------------------

    Doubly Occupied:

       1A    -20.559059     2A    -15.547986     3A    -11.279577
       4A    -11.250798     5A    -11.240104     6A    -11.215771
       7A     -1.358679     8A     -1.183067     9A     -1.051656
      10A     -0.958710    11A     -0.861603    12A     -0.800091
      13A     -0.676527    14A     -0.657786    15A     -0.642324
      16A     -0.630533    17A     -0.578273    18A     -0.556209
      19A     -0.543860    20A     -0.520930    21A     -0.502728
      22A     -0.482545    23A     -0.479035    24A     -0.453069
      25A     -0.388029

  @DF-RHF Final Energy:  -287.28035746766432

   => Energetics <=

    Nuclear Repulsion Energy =            259.2769852722660175
    One-Electron Energy =                -904.2767866986170020
    Two-Electron Energy =                 357.7194439586867247
    Total Energy =                       -287.2803574676643166
  Basis Set: (AUG-CC-PVTZ AUX)
    Blend: AUG-CC-PVTZ-RI
    Molecular point group: c1

    Geometry (in Angstrom), charge = 0, multiplicity = 1:

       Center              X                  Y                   Z               Mass
    ------------   -----------------  -----------------  -----------------  -----------------
         O            0.571402833388     1.629297764252    -0.078216011437    15.994914619570
         N           -2.254763166612    -0.861410235748    -0.099104011437    14.003074004430
         C           -0.000848166612     0.329042764252    -0.276141011437    12.000000000000
         C            0.853511833388    -0.751282235748     0.377960988563    12.000000000000
         C           -1.458238166612     0.328048764252     0.197753988563    12.000000000000
         C            2.287618833388    -0.765406235748    -0.141362011437    12.000000000000
         H            0.015358833388     0.190356764252    -1.365340011437     1.007825032230
         H            0.846067533388    -0.566226435748     1.563778188563     1.007825032230
         H            0.387855833388    -1.730554235748     0.214355988563     1.007825032230
         H           -1.473373166612     0.480350764252     1.285974988563     1.007825032230
         H           -1.953584166612     1.196017764252    -0.249290011437     1.007825032230
         H            2.886611833388    -1.524602235748     0.369376988563     1.007825032230
         H            2.756143833388     0.208831764252     0.008570988563     1.007825032230
         H            2.306784833388    -0.984866235748    -1.213289011437     1.007825032230
         H           -1.845513166612    -1.682448235748     0.341380988563     1.007825032230
         H           -2.252664166612    -1.036695235748    -1.102913011437     1.007825032230
         H            0.558389833388     1.795506764252     0.881921988563     1.007825032230

  Basis Set: AUG-CC-PVTZ
    Blend: AUG-CC-PVTZ
  Basis Set: (AUG-CC-PVTZ AUX)
    Blend: AUG-CC-PVTZ-JKFIT
	 Reference Energy          =    -287.2803574676643166 [Eh]
	 Singles Energy            =      -0.0000000000000000 [Eh]
	 Same-Spin Energy          =      -0.2927927755262175 [Eh]
	 Opposite-Spin Energy      =      -1.0024792207616349 [Eh]
	 Correlation Energy        =      -1.2952719962878523 [Eh]
	 Total Energy              =    -288.5756294639521684 [Eh]

	 ================> DF-SCS-MP2 Energies <==================
	-----------------------------------------------------------
	 SCS Same-Spin Scale       =       0.3333333333333333 [-]
	 SCS Opposite-Spin Scale   =       1.2000000000000000 [-]
	 SCS Same-Spin Energy      =      -0.0975975918420725 [Eh]
	 SCS Opposite-Spin Energy  =      -1.2029750649139619 [Eh]
	 SCS Correlation Energy    =      -1.3005726567560343 [Eh]
	 SCS Total Energy          =    -288.5809301244203766 [Eh]
	-----------------------------------------------------------

  Dipole Moment: [D]
     X:     0.7330      Y:    -1.3088      Z:     0.5413     Total:     1.5947

*** Psi4 exiting successfully. Buy a developer a beer!
