                               Psi4 1.4a3.dev225

  ==> Input File <==

--------------------------------------------------------------------------
#psi4
#
memory 32 gb

molecule  {
0 1
  O        0.5491460     1.6657540    -0.0835270
  N       -2.2770200    -0.8249540    -0.1044150
  C       -0.0231050     0.3654990    -0.2814520
  C        0.8312550    -0.7148260     0.3726500
  C       -1.4804950     0.3645050     0.1924430
  C        2.2653620    -0.7289500    -0.1466730
  H       -0.0068980     0.2268130    -1.3706510
  H        0.8244310    -0.5451890     1.4596650
  H        0.3443676    -1.7387476     0.2015855
  H       -1.4956300     0.5168070     1.2806640
  H       -1.9758410     1.2324740    -0.2546010
  H        2.8643550    -1.4881460     0.3640660
  H        2.7338870     0.2452880     0.0032600
  H        2.2845280    -0.9484100    -1.2186000
  H       -1.8677700    -1.6459920     0.3360700
  H       -2.2749210    -1.0002390    -1.1082240
  H        0.5361330     1.8319630     0.8766110
units angstrom
no_reorient  #important for SAPT in psi4, default
symmetry c1  #important for SAPT in psi4, default
}

set PROPERTIES_ORIGIN ["COM"]
properties('MP2/aug-cc-pvtz', properties = ['dipole'])
--------------------------------------------------------------------------

    Molecular point group: c1
  Charge       = 0
  Multiplicity = 1
  Basis Set: AUG-CC-PVTZ
    Blend: AUG-CC-PVTZ
  Basis Set: (AUG-CC-PVTZ AUX)
    Blend: AUG-CC-PVTZ-JKFIT

    Orbital Energies [Eh]
    ---------------------

    Doubly Occupied:

       1A    -20.559699     2A    -15.547359     3A    -11.278715
       4A    -11.250759     5A    -11.233835     6A    -11.214929
       7A     -1.359203     8A     -1.182591     9A     -1.052511
      10A     -0.958330    11A     -0.861794    12A     -0.803393
      13A     -0.675397    14A     -0.658395    15A     -0.641574
      16A     -0.631662    17A     -0.580693    18A     -0.555734
      19A     -0.543597    20A     -0.521242    21A     -0.501791
      22A     -0.486233    23A     -0.479692    24A     -0.453611
      25A     -0.387467

  @DF-RHF Final Energy:  -287.28439081344783

   => Energetics <=

    Nuclear Repulsion Energy =            259.4966672855663319
    One-Electron Energy =                -904.7217047150971894
    Two-Electron Energy =                 357.9406466160830291
    Total Energy =                       -287.2843908134478284
  Basis Set: (AUG-CC-PVTZ AUX)
    Blend: AUG-CC-PVTZ-RI
    Molecular point group: c1

    Geometry (in Angstrom), charge = 0, multiplicity = 1:

       Center              X                  Y                   Z               Mass
    ------------   -----------------  -----------------  -----------------  -----------------
         O            0.571636010699     1.629977329535    -0.077013852527    15.994914619570
         N           -2.254529989301    -0.860730670465    -0.097901852527    14.003074004430
         C           -0.000614989301     0.329722329535    -0.274938852527    12.000000000000
         C            0.853745010699    -0.750602670465     0.379163147473    12.000000000000
         C           -1.458004989301     0.328728329535     0.198956147473    12.000000000000
         C            2.287852010699    -0.764726670465    -0.140159852527    12.000000000000
         H            0.015592010699     0.191036329535    -1.364137852527     1.007825032230
         H            0.846921010699    -0.580965670465     1.466178147473     1.007825032230
         H            0.366857610699    -1.774524270465     0.208098647473     1.007825032230
         H           -1.473139989301     0.481030329535     1.287177147473     1.007825032230
         H           -1.953350989301     1.196697329535    -0.248087852527     1.007825032230
         H            2.886845010699    -1.523922670465     0.370579147473     1.007825032230
         H            2.756377010699     0.209511329535     0.009773147473     1.007825032230
         H            2.307018010699    -0.984186670465    -1.212086852527     1.007825032230
         H           -1.845279989301    -1.681768670465     0.342583147473     1.007825032230
         H           -2.252430989301    -1.036015670465    -1.101710852527     1.007825032230
         H            0.558623010699     1.796186329535     0.883124147473     1.007825032230

  Basis Set: AUG-CC-PVTZ
    Blend: AUG-CC-PVTZ
  Basis Set: (AUG-CC-PVTZ AUX)
    Blend: AUG-CC-PVTZ-JKFIT
	 Reference Energy          =    -287.2843908134478284 [Eh]
	 Singles Energy            =      -0.0000000000000000 [Eh]
	 Same-Spin Energy          =      -0.2928190628779261 [Eh]
	 Opposite-Spin Energy      =      -1.0022011100875439 [Eh]
	 Correlation Energy        =      -1.2950201729654700 [Eh]
	 Total Energy              =    -288.5794109864132793 [Eh]

	 ================> DF-SCS-MP2 Energies <==================
	-----------------------------------------------------------
	 SCS Same-Spin Scale       =       0.3333333333333333 [-]
	 SCS Opposite-Spin Scale   =       1.2000000000000000 [-]
	 SCS Same-Spin Energy      =      -0.0976063542926420 [Eh]
	 SCS Opposite-Spin Energy  =      -1.2026413321050526 [Eh]
	 SCS Correlation Energy    =      -1.3002476863976946 [Eh]
	 SCS Total Energy          =    -288.5846384998455392 [Eh]
	-----------------------------------------------------------

  Dipole Moment: [D]
     X:     0.7430      Y:    -1.2667      Z:     0.6260     Total:     1.5964

*** Psi4 exiting successfully. Buy a developer a beer!
