                               Psi4 1.4a3.dev225

  ==> Input File <==

--------------------------------------------------------------------------
#psi4
#
memory 32 gb

molecule  {
0 1
  O        0.5491460     1.6657540    -0.0835270
  N       -2.2770200    -0.8249540    -0.1044150
  C       -0.0231050     0.3654990    -0.2814520
  C        0.8312550    -0.7148260     0.3726500
  C       -1.4911038     0.3581581     0.2419531
  C        2.2653620    -0.7289500    -0.1466730
  H       -0.0068980     0.2268130    -1.3706510
  H        0.8244310    -0.5451890     1.4596650
  H        0.3655990    -1.6940980     0.2090450
  H       -1.4956300     0.5168070     1.2806640
  H       -1.9758410     1.2324740    -0.2546010
  H        2.8643550    -1.4881460     0.3640660
  H        2.7338870     0.2452880     0.0032600
  H        2.2845280    -0.9484100    -1.2186000
  H       -1.8677700    -1.6459920     0.3360700
  H       -2.2749210    -1.0002390    -1.1082240
  H        0.5361330     1.8319630     0.8766110
units angstrom
no_reorient  #important for SAPT in psi4, default
symmetry c1  #important for SAPT in psi4, default
}

set PROPERTIES_ORIGIN ["COM"]
properties('MP2/aug-cc-pvtz', properties = ['dipole'])
--------------------------------------------------------------------------

    Molecular point group: c1
  Charge       = 0
  Multiplicity = 1
  Basis Set: AUG-CC-PVTZ
    Blend: AUG-CC-PVTZ
  Basis Set: (AUG-CC-PVTZ AUX)
    Blend: AUG-CC-PVTZ-JKFIT

    Orbital Energies [Eh]
    ---------------------

    Doubly Occupied:

       1A    -20.558508     2A    -15.546973     3A    -11.278771
       4A    -11.249937     5A    -11.226806     6A    -11.213846
       7A     -1.357805     8A     -1.181599     9A     -1.053244
      10A     -0.954897    11A     -0.864046    12A     -0.806621
      13A     -0.675568    14A     -0.657430    15A     -0.643756
      16A     -0.629742    17A     -0.582294    18A     -0.554110
      19A     -0.545323    20A     -0.527458    21A     -0.499824
      22A     -0.488101    23A     -0.481611    24A     -0.453618
      25A     -0.382221

  @DF-RHF Final Energy:  -287.28390035806336

   => Energetics <=

    Nuclear Repulsion Energy =            259.4345446474819710
    One-Electron Energy =                -904.6086727558820257
    Two-Electron Energy =                 357.8902277503366918
    Total Energy =                       -287.2839003580633630
  Basis Set: (AUG-CC-PVTZ AUX)
    Blend: AUG-CC-PVTZ-RI
    Molecular point group: c1

    Geometry (in Angstrom), charge = 0, multiplicity = 1:

       Center              X                  Y                   Z               Mass
    ------------   -----------------  -----------------  -----------------  -----------------
         O            0.572824866021     1.630327154342    -0.083767463038    15.994914619570
         N           -2.253341133979    -0.860380845658    -0.104655463038    14.003074004430
         C            0.000573866021     0.330072154342    -0.281692463038    12.000000000000
         C            0.854933866021    -0.750252845658     0.372409536962    12.000000000000
         C           -1.467424933979     0.322731254342     0.241712636962    12.000000000000
         C            2.289040866021    -0.764376845658    -0.146913463038    12.000000000000
         H            0.016780866021     0.191386154342    -1.370891463038     1.007825032230
         H            0.848109866021    -0.580615845658     1.459424536962     1.007825032230
         H            0.389277866021    -1.729524845658     0.208804536962     1.007825032230
         H           -1.471951133979     0.481380154342     1.280423536962     1.007825032230
         H           -1.952162133979     1.197047154342    -0.254841463038     1.007825032230
         H            2.888033866021    -1.523572845658     0.363825536962     1.007825032230
         H            2.757565866021     0.209861154342     0.003019536962     1.007825032230
         H            2.308206866021    -0.983836845658    -1.218840463038     1.007825032230
         H           -1.844091133979    -1.681418845658     0.335829536962     1.007825032230
         H           -2.251242133979    -1.035665845658    -1.108464463038     1.007825032230
         H            0.559811866021     1.796536154342     0.876370536962     1.007825032230

  Basis Set: AUG-CC-PVTZ
    Blend: AUG-CC-PVTZ
  Basis Set: (AUG-CC-PVTZ AUX)
    Blend: AUG-CC-PVTZ-JKFIT
	 Reference Energy          =    -287.2839003580633630 [Eh]
	 Singles Energy            =      -0.0000000000000000 [Eh]
	 Same-Spin Energy          =      -0.2926591712461770 [Eh]
	 Opposite-Spin Energy      =      -1.0017922439967704 [Eh]
	 Correlation Energy        =      -1.2944514152429474 [Eh]
	 Total Energy              =    -288.5783517733063377 [Eh]

	 ================> DF-SCS-MP2 Energies <==================
	-----------------------------------------------------------
	 SCS Same-Spin Scale       =       0.3333333333333333 [-]
	 SCS Opposite-Spin Scale   =       1.2000000000000000 [-]
	 SCS Same-Spin Energy      =      -0.0975530570820590 [Eh]
	 SCS Opposite-Spin Energy  =      -1.2021506927961243 [Eh]
	 SCS Correlation Energy    =      -1.2997037498781834 [Eh]
	 SCS Total Energy          =    -288.5836041079415395 [Eh]
	-----------------------------------------------------------

  Dipole Moment: [D]
     X:     0.7138      Y:    -1.2917      Z:     0.6702     Total:     1.6209

*** Psi4 exiting successfully. Buy a developer a beer!
