                               Psi4 1.4a3.dev225

  ==> Input File <==

--------------------------------------------------------------------------
#psi4
#
memory 32 gb

molecule  {
0 1
  O        0.5491460     1.6657540    -0.0835270
  N       -2.2770200    -0.8249540    -0.1044150
  C       -0.0231050     0.3654990    -0.2814520
  C        0.8312550    -0.7148260     0.3726500
  C       -1.4755537     0.3671354     0.1675485
  C        2.2653620    -0.7289500    -0.1466730
  H       -0.0068980     0.2268130    -1.3706510
  H        0.8244310    -0.5451890     1.4596650
  H        0.3655990    -1.6940980     0.2090450
  H       -1.4956300     0.5168070     1.2806640
  H       -1.9758410     1.2324740    -0.2546010
  H        2.8643550    -1.4881460     0.3640660
  H        2.7338870     0.2452880     0.0032600
  H        2.2845280    -0.9484100    -1.2186000
  H       -1.8677700    -1.6459920     0.3360700
  H       -2.2749210    -1.0002390    -1.1082240
  H        0.5361330     1.8319630     0.8766110
units angstrom
no_reorient  #important for SAPT in psi4, default
symmetry c1  #important for SAPT in psi4, default
}

set PROPERTIES_ORIGIN ["COM"]
properties('MP2/aug-cc-pvtz', properties = ['dipole'])
--------------------------------------------------------------------------

    Molecular point group: c1
  Charge       = 0
  Multiplicity = 1
  Basis Set: AUG-CC-PVTZ
    Blend: AUG-CC-PVTZ
  Basis Set: (AUG-CC-PVTZ AUX)
    Blend: AUG-CC-PVTZ-JKFIT

    Orbital Energies [Eh]
    ---------------------

    Doubly Occupied:

       1A    -20.559300     2A    -15.548334     3A    -11.277992
       4A    -11.251424     5A    -11.228040     6A    -11.214553
       7A     -1.358996     8A     -1.183688     9A     -1.054788
      10A     -0.959945    11A     -0.862515    12A     -0.804478
      13A     -0.677230    14A     -0.658374    15A     -0.644702
      16A     -0.633298    17A     -0.581093    18A     -0.557633
      19A     -0.542389    20A     -0.517573    21A     -0.502130
      22A     -0.488556    23A     -0.480649    24A     -0.452795
      25A     -0.390179

  @DF-RHF Final Energy:  -287.28561441991752

   => Energetics <=

    Nuclear Repulsion Energy =            259.8422631820765787
    One-Electron Energy =                -905.3944465505040853
    Two-Electron Energy =                 358.2665689485099278
    Total Energy =                       -287.2856144199175219
  Basis Set: (AUG-CC-PVTZ AUX)
    Blend: AUG-CC-PVTZ-RI
    Molecular point group: c1

    Geometry (in Angstrom), charge = 0, multiplicity = 1:

       Center              X                  Y                   Z               Mass
    ------------   -----------------  -----------------  -----------------  -----------------
         O            0.570730201817     1.629117874082    -0.073744848890    15.994914619570
         N           -2.255435798183    -0.861590125918    -0.094632848890    14.003074004430
         C           -0.001520798183     0.328862874082    -0.271669848890    12.000000000000
         C            0.852839201817    -0.751462125918     0.382432151110    12.000000000000
         C           -1.453969498183     0.330499274082     0.177330651110    12.000000000000
         C            2.286946201817    -0.765586125918    -0.136890848890    12.000000000000
         H            0.014686201817     0.190176874082    -1.360868848890     1.007825032230
         H            0.846015201817    -0.581825125918     1.469447151110     1.007825032230
         H            0.387183201817    -1.730734125918     0.218827151110     1.007825032230
         H           -1.474045798183     0.480170874082     1.290446151110     1.007825032230
         H           -1.954256798183     1.195837874082    -0.244818848890     1.007825032230
         H            2.885939201817    -1.524782125918     0.373848151110     1.007825032230
         H            2.755471201817     0.208651874082     0.013042151110     1.007825032230
         H            2.306112201817    -0.985046125918    -1.208817848890     1.007825032230
         H           -1.846185798183    -1.682628125918     0.345852151110     1.007825032230
         H           -2.253336798183    -1.036875125918    -1.098441848890     1.007825032230
         H            0.557717201817     1.795326874082     0.886393151110     1.007825032230

  Basis Set: AUG-CC-PVTZ
    Blend: AUG-CC-PVTZ
  Basis Set: (AUG-CC-PVTZ AUX)
    Blend: AUG-CC-PVTZ-JKFIT
	 Reference Energy          =    -287.2856144199175219 [Eh]
	 Singles Energy            =      -0.0000000000000000 [Eh]
	 Same-Spin Energy          =      -0.2928777707164588 [Eh]
	 Opposite-Spin Energy      =      -1.0019490732614755 [Eh]
	 Correlation Energy        =      -1.2948268439779342 [Eh]
	 Total Energy              =    -288.5804412638954659 [Eh]

	 ================> DF-SCS-MP2 Energies <==================
	-----------------------------------------------------------
	 SCS Same-Spin Scale       =       0.3333333333333333 [-]
	 SCS Opposite-Spin Scale   =       1.2000000000000000 [-]
	 SCS Same-Spin Energy      =      -0.0976259235721529 [Eh]
	 SCS Opposite-Spin Energy  =      -1.2023388879137706 [Eh]
	 SCS Correlation Energy    =      -1.2999648114859235 [Eh]
	 SCS Total Energy          =    -288.5855792314034716 [Eh]
	-----------------------------------------------------------

  Dipole Moment: [D]
     X:     0.7224      Y:    -1.3081      Z:     0.6024     Total:     1.6112

*** Psi4 exiting successfully. Buy a developer a beer!
