                               Psi4 1.4a3.dev225

  ==> Input File <==

--------------------------------------------------------------------------
#psi4
#
memory 32 gb

molecule  {
0 1
  O        0.5491460     1.6657540    -0.0835270
  N       -2.2770200    -0.8249540    -0.1044150
  C       -0.1214407     0.2483467    -0.3270298
  C        0.8312550    -0.7148260     0.3726500
  C       -1.4804950     0.3645050     0.1924430
  C        2.2653620    -0.7289500    -0.1466730
  H       -0.0068980     0.2268130    -1.3706510
  H        0.8244310    -0.5451890     1.4596650
  H        0.3655990    -1.6940980     0.2090450
  H       -1.4956300     0.5168070     1.2806640
  H       -1.9758410     1.2324740    -0.2546010
  H        2.8643550    -1.4881460     0.3640660
  H        2.7338870     0.2452880     0.0032600
  H        2.2845280    -0.9484100    -1.2186000
  H       -1.8677700    -1.6459920     0.3360700
  H       -2.2749210    -1.0002390    -1.1082240
  H        0.5361330     1.8319630     0.8766110
units angstrom
no_reorient  #important for SAPT in psi4, default
symmetry c1  #important for SAPT in psi4, default
}

set PROPERTIES_ORIGIN ["COM"]
properties('MP2/aug-cc-pvtz', properties = ['dipole'])
--------------------------------------------------------------------------

    Molecular point group: c1
  Charge       = 0
  Multiplicity = 1
  Basis Set: AUG-CC-PVTZ
    Blend: AUG-CC-PVTZ
  Basis Set: (AUG-CC-PVTZ AUX)
    Blend: AUG-CC-PVTZ-JKFIT

    Orbital Energies [Eh]
    ---------------------

    Doubly Occupied:

       1A    -20.537522     2A    -15.549653     3A    -11.283188
       4A    -11.254359     5A    -11.233584     6A    -11.216735
       7A     -1.305986     8A     -1.192818     9A     -1.059164
      10A     -0.972260    11A     -0.869378    12A     -0.805172
      13A     -0.681304    14A     -0.648371    15A     -0.634509
      16A     -0.619408    17A     -0.587407    18A     -0.560194
      19A     -0.537012    20A     -0.519961    21A     -0.504930
      22A     -0.492452    23A     -0.471012    24A     -0.445013
      25A     -0.397769

  @DF-RHF Final Energy:  -287.26422695292428

   => Energetics <=

    Nuclear Repulsion Energy =            259.1576956352311640
    One-Electron Energy =                -904.0855213291297332
    Two-Electron Energy =                 357.6635987409742370
    Total Energy =                       -287.2642269529242753
  Basis Set: (AUG-CC-PVTZ AUX)
    Blend: AUG-CC-PVTZ-RI
    Molecular point group: c1

    Geometry (in Angstrom), charge = 0, multiplicity = 1:

       Center              X                  Y                   Z               Mass
    ------------   -----------------  -----------------  -----------------  -----------------
         O            0.584642050296     1.645253110126    -0.070958720946    15.994914619570
         N           -2.241523949704    -0.845454889874    -0.091846720946    14.003074004430
         C           -0.085944649704     0.227845810126    -0.314461520946    12.000000000000
         C            0.866751050296    -0.735326889874     0.385218279054    12.000000000000
         C           -1.444998949704     0.344004110126     0.205011279054    12.000000000000
         C            2.300858050296    -0.749450889874    -0.134104720946    12.000000000000
         H            0.028598050296     0.206312110126    -1.358082720946     1.007825032230
         H            0.859927050296    -0.565689889874     1.472233279054     1.007825032230
         H            0.401095050296    -1.714598889874     0.221613279054     1.007825032230
         H           -1.460133949704     0.496306110126     1.293232279054     1.007825032230
         H           -1.940344949704     1.211973110126    -0.242032720946     1.007825032230
         H            2.899851050296    -1.508646889874     0.376634279054     1.007825032230
         H            2.769383050296     0.224787110126     0.015828279054     1.007825032230
         H            2.320024050296    -0.968910889874    -1.206031720946     1.007825032230
         H           -1.832273949704    -1.666492889874     0.348638279054     1.007825032230
         H           -2.239424949704    -1.020739889874    -1.095655720946     1.007825032230
         H            0.571629050296     1.811462110126     0.889179279054     1.007825032230

  Basis Set: AUG-CC-PVTZ
    Blend: AUG-CC-PVTZ
  Basis Set: (AUG-CC-PVTZ AUX)
    Blend: AUG-CC-PVTZ-JKFIT
	 Reference Energy          =    -287.2642269529242753 [Eh]
	 Singles Energy            =      -0.0000000000000000 [Eh]
	 Same-Spin Energy          =      -0.2937422966403467 [Eh]
	 Opposite-Spin Energy      =      -1.0052217242527517 [Eh]
	 Correlation Energy        =      -1.2989640208930984 [Eh]
	 Total Energy              =    -288.5631909738173704 [Eh]

	 ================> DF-SCS-MP2 Energies <==================
	-----------------------------------------------------------
	 SCS Same-Spin Scale       =       0.3333333333333333 [-]
	 SCS Opposite-Spin Scale   =       1.2000000000000000 [-]
	 SCS Same-Spin Energy      =      -0.0979140988801156 [Eh]
	 SCS Opposite-Spin Energy  =      -1.2062660691033020 [Eh]
	 SCS Correlation Energy    =      -1.3041801679834175 [Eh]
	 SCS Total Energy          =    -288.5684071209076933 [Eh]
	-----------------------------------------------------------

  Dipole Moment: [D]
     X:     0.4969      Y:    -1.7002      Z:     0.5545     Total:     1.8561

*** Psi4 exiting successfully. Buy a developer a beer!
