                               Psi4 1.4a3.dev225

  ==> Input File <==

--------------------------------------------------------------------------
#psi4
#
memory 32 gb

molecule  {
0 1
  O        0.5491460     1.6657540    -0.0835270
  N       -2.2770200    -0.8249540    -0.1044150
  C       -0.0231050     0.3654990    -0.2814520
  C        0.8312550    -0.7148260     0.3726500
  C       -1.4804950     0.3645050     0.1924430
  C        2.0773201    -0.7270980    -0.0785787
  H       -0.0068980     0.2268130    -1.3706510
  H        0.8244310    -0.5451890     1.4596650
  H        0.3655990    -1.6940980     0.2090450
  H       -1.4956300     0.5168070     1.2806640
  H       -1.9758410     1.2324740    -0.2546010
  H        2.8643550    -1.4881460     0.3640660
  H        2.7338870     0.2452880     0.0032600
  H        2.2845280    -0.9484100    -1.2186000
  H       -1.8677700    -1.6459920     0.3360700
  H       -2.2749210    -1.0002390    -1.1082240
  H        0.5361330     1.8319630     0.8766110
units angstrom
no_reorient  #important for SAPT in psi4, default
symmetry c1  #important for SAPT in psi4, default
}

set PROPERTIES_ORIGIN ["COM"]
properties('MP2/aug-cc-pvtz', properties = ['dipole'])
--------------------------------------------------------------------------

    Molecular point group: c1
  Charge       = 0
  Multiplicity = 1
  Basis Set: AUG-CC-PVTZ
    Blend: AUG-CC-PVTZ
  Basis Set: (AUG-CC-PVTZ AUX)
    Blend: AUG-CC-PVTZ-JKFIT

    Orbital Energies [Eh]
    ---------------------

    Doubly Occupied:

       1A    -20.560291     2A    -15.548868     3A    -11.280119
       4A    -11.251795     5A    -11.227211     6A    -11.218763
       7A     -1.360454     8A     -1.184293     9A     -1.095839
      10A     -0.963524    11A     -0.849917    12A     -0.803445
      13A     -0.682196    14A     -0.662548    15A     -0.653793
      16A     -0.639588    17A     -0.592584    18A     -0.571703
      19A     -0.545468    20A     -0.525986    21A     -0.501300
      22A     -0.484957    23A     -0.446903    24A     -0.438372
      25A     -0.388129

  @DF-RHF Final Energy:  -287.23663304743792

   => Energetics <=

    Nuclear Repulsion Energy =            262.7271858771673010
    One-Electron Energy =                -910.9715499070886153
    Two-Electron Energy =                 361.0077309824834515
    Total Energy =                       -287.2366330474379197
  Basis Set: (AUG-CC-PVTZ AUX)
    Blend: AUG-CC-PVTZ-RI
    Molecular point group: c1

    Geometry (in Angstrom), charge = 0, multiplicity = 1:

       Center              X                  Y                   Z               Mass
    ------------   -----------------  -----------------  -----------------  -----------------
         O            0.596725854648     1.629222727853    -0.086270833338    15.994914619570
         N           -2.229440145352    -0.861485272147    -0.107158833338    14.003074004430
         C            0.024474854648     0.328967727853    -0.284195833338    12.000000000000
         C            0.878834854648    -0.751357272147     0.369906166662    12.000000000000
         C           -1.432915145352     0.327973727853     0.189699166662    12.000000000000
         C            2.124899954648    -0.763629272147    -0.081322533338    12.000000000000
         H            0.040681854648     0.190281727853    -1.373394833338     1.007825032230
         H            0.872010854648    -0.581720272147     1.456921166662     1.007825032230
         H            0.413178854648    -1.730629272147     0.206301166662     1.007825032230
         H           -1.448050145352     0.480275727853     1.277920166662     1.007825032230
         H           -1.928261145352     1.195942727853    -0.257344833338     1.007825032230
         H            2.911934854648    -1.524677272147     0.361322166662     1.007825032230
         H            2.781466854648     0.208756727853     0.000516166662     1.007825032230
         H            2.332107854648    -0.984941272147    -1.221343833338     1.007825032230
         H           -1.820190145352    -1.682523272147     0.333326166662     1.007825032230
         H           -2.227341145352    -1.036770272147    -1.110967833338     1.007825032230
         H            0.583712854648     1.795431727853     0.873867166662     1.007825032230

  Basis Set: AUG-CC-PVTZ
    Blend: AUG-CC-PVTZ
  Basis Set: (AUG-CC-PVTZ AUX)
    Blend: AUG-CC-PVTZ-JKFIT
	 Reference Energy          =    -287.2366330474379197 [Eh]
	 Singles Energy            =      -0.0000000000000000 [Eh]
	 Same-Spin Energy          =      -0.2955855151972900 [Eh]
	 Opposite-Spin Energy      =      -1.0055665428228258 [Eh]
	 Correlation Energy        =      -1.3011520580201159 [Eh]
	 Total Energy              =    -288.5377851054580560 [Eh]

	 ================> DF-SCS-MP2 Energies <==================
	-----------------------------------------------------------
	 SCS Same-Spin Scale       =       0.3333333333333333 [-]
	 SCS Opposite-Spin Scale   =       1.2000000000000000 [-]
	 SCS Same-Spin Energy      =      -0.0985285050657633 [Eh]
	 SCS Opposite-Spin Energy  =      -1.2066798513873909 [Eh]
	 SCS Correlation Energy    =      -1.3052083564531543 [Eh]
	 SCS Total Energy          =    -288.5418414038910555 [Eh]
	-----------------------------------------------------------

  Dipole Moment: [D]
     X:     0.6297      Y:    -1.2661      Z:     0.6629     Total:     1.5617

*** Psi4 exiting successfully. Buy a developer a beer!
