                               Psi4 1.4a3.dev225

  ==> Input File <==

--------------------------------------------------------------------------
#psi4
#
memory 32 gb

molecule  {
0 1
  O        0.5491460     1.6657540    -0.0835270
  N       -2.2770200    -0.8249540    -0.1044150
  C       -0.0231050     0.3654990    -0.2814520
  C        0.8312550    -0.7148260     0.3726500
  C       -1.3853963     0.3645699     0.1615200
  C        2.2653620    -0.7289500    -0.1466730
  H       -0.0068980     0.2268130    -1.3706510
  H        0.8244310    -0.5451890     1.4596650
  H        0.3655990    -1.6940980     0.2090450
  H       -1.4956300     0.5168070     1.2806640
  H       -1.9758410     1.2324740    -0.2546010
  H        2.8643550    -1.4881460     0.3640660
  H        2.7338870     0.2452880     0.0032600
  H        2.2845280    -0.9484100    -1.2186000
  H       -1.8677700    -1.6459920     0.3360700
  H       -2.2749210    -1.0002390    -1.1082240
  H        0.5361330     1.8319630     0.8766110
units angstrom
no_reorient  #important for SAPT in psi4, default
symmetry c1  #important for SAPT in psi4, default
}

set PROPERTIES_ORIGIN ["COM"]
properties('MP2/aug-cc-pvtz', properties = ['dipole'])
--------------------------------------------------------------------------

    Molecular point group: c1
  Charge       = 0
  Multiplicity = 1
  Basis Set: AUG-CC-PVTZ
    Blend: AUG-CC-PVTZ
  Basis Set: (AUG-CC-PVTZ AUX)
    Blend: AUG-CC-PVTZ-JKFIT

    Orbital Energies [Eh]
    ---------------------

    Doubly Occupied:

       1A    -20.560613     2A    -15.550184     3A    -11.276411
       4A    -11.253731     5A    -11.228996     6A    -11.215198
       7A     -1.362622     8A     -1.175076     9A     -1.059576
      10A     -0.974406    11A     -0.859845    12A     -0.805393
      13A     -0.675323    14A     -0.664113    15A     -0.645873
      16A     -0.635801    17A     -0.582116    18A     -0.550893
      19A     -0.542324    20A     -0.510574    21A     -0.497649
      22A     -0.489606    23A     -0.480456    24A     -0.449577
      25A     -0.403231

  @DF-RHF Final Energy:  -287.27478319881089

   => Energetics <=

    Nuclear Repulsion Energy =            260.8139430637940563
    One-Electron Energy =                -907.2782740565608037
    Two-Electron Energy =                 359.1895477939557964
    Total Energy =                       -287.2747831988108942
  Basis Set: (AUG-CC-PVTZ AUX)
    Blend: AUG-CC-PVTZ-RI
    Molecular point group: c1

    Geometry (in Angstrom), charge = 0, multiplicity = 1:

       Center              X                  Y                   Z               Mass
    ------------   -----------------  -----------------  -----------------  -----------------
         O            0.558585618918     1.629463457777    -0.072932784455    15.994914619570
         N           -2.267580381082    -0.861244542223    -0.093820784455    14.003074004430
         C           -0.013665381082     0.329208457777    -0.270857784455    12.000000000000
         C            0.840694618918    -0.751116542223     0.383244215545    12.000000000000
         C           -1.375956681082     0.328279357777     0.172114215545    12.000000000000
         C            2.274801618918    -0.765240542223    -0.136078784455    12.000000000000
         H            0.002541618918     0.190522457777    -1.360056784455     1.007825032230
         H            0.833870618918    -0.581479542223     1.470259215545     1.007825032230
         H            0.375038618918    -1.730388542223     0.219639215545     1.007825032230
         H           -1.486190381082     0.480516457777     1.291258215545     1.007825032230
         H           -1.966401381082     1.196183457777    -0.244006784455     1.007825032230
         H            2.873794618918    -1.524436542223     0.374660215545     1.007825032230
         H            2.743326618918     0.208997457777     0.013854215545     1.007825032230
         H            2.293967618918    -0.984700542223    -1.208005784455     1.007825032230
         H           -1.858330381082    -1.682282542223     0.346664215545     1.007825032230
         H           -2.265481381082    -1.036529542223    -1.097629784455     1.007825032230
         H            0.545572618918     1.795672457777     0.887205215545     1.007825032230

  Basis Set: AUG-CC-PVTZ
    Blend: AUG-CC-PVTZ
  Basis Set: (AUG-CC-PVTZ AUX)
    Blend: AUG-CC-PVTZ-JKFIT
	 Reference Energy          =    -287.2747831988108942 [Eh]
	 Singles Energy            =      -0.0000000000000000 [Eh]
	 Same-Spin Energy          =      -0.2936968576868118 [Eh]
	 Opposite-Spin Energy      =      -1.0035211106065249 [Eh]
	 Correlation Energy        =      -1.2972179682933367 [Eh]
	 Total Energy              =    -288.5720011671042471 [Eh]

	 ================> DF-SCS-MP2 Energies <==================
	-----------------------------------------------------------
	 SCS Same-Spin Scale       =       0.3333333333333333 [-]
	 SCS Opposite-Spin Scale   =       1.2000000000000000 [-]
	 SCS Same-Spin Energy      =      -0.0978989525622706 [Eh]
	 SCS Opposite-Spin Energy  =      -1.2042253327278298 [Eh]
	 SCS Correlation Energy    =      -1.3021242852901005 [Eh]
	 SCS Total Energy          =    -288.5769074841010138 [Eh]
	-----------------------------------------------------------

  Dipole Moment: [D]
     X:     0.8162      Y:    -1.2935      Z:     0.5994     Total:     1.6427

*** Psi4 exiting successfully. Buy a developer a beer!
