                               Psi4 1.4a3.dev225

  ==> Input File <==

--------------------------------------------------------------------------
#psi4
#
memory 32 gb

molecule  {
0 1
  O        0.5491460     1.6657540    -0.0835270
  N       -2.2770200    -0.8249540    -0.1044150
  C       -0.0231050     0.3654990    -0.2814520
  C        0.8312550    -0.7148260     0.3726500
  C       -1.4804950     0.3645050     0.1924430
  C        2.2653620    -0.7289500    -0.1466730
  H       -0.0068980     0.2268130    -1.3706510
  H        0.8244310    -0.5451890     1.4596650
  H        0.3655990    -1.6940980     0.2090450
  H       -1.4956300     0.5168070     1.2806640
  H       -1.9758410     1.2324740    -0.2546010
  H        2.8643550    -1.4881460     0.3640660
  H        2.7338870     0.2452880     0.0032600
  H        2.2845280    -0.9484100    -1.2186000
  H       -1.9482002    -1.4846327     0.2495011
  H       -2.2749210    -1.0002390    -1.1082240
  H        0.5361330     1.8319630     0.8766110
units angstrom
no_reorient  #important for SAPT in psi4, default
symmetry c1  #important for SAPT in psi4, default
}

set PROPERTIES_ORIGIN ["COM"]
properties('MP2/aug-cc-pvtz', properties = ['dipole'])
--------------------------------------------------------------------------

    Molecular point group: c1
  Charge       = 0
  Multiplicity = 1
  Basis Set: AUG-CC-PVTZ
    Blend: AUG-CC-PVTZ
  Basis Set: (AUG-CC-PVTZ AUX)
    Blend: AUG-CC-PVTZ-JKFIT

    Orbital Energies [Eh]
    ---------------------

    Doubly Occupied:

       1A    -20.559334     2A    -15.523460     3A    -11.278646
       4A    -11.250508     5A    -11.228060     6A    -11.214531
       7A     -1.358933     8A     -1.219508     9A     -1.057050
      10A     -0.968105    11A     -0.868892    12A     -0.806433
      13A     -0.708325    14A     -0.659134    15A     -0.646248
      16A     -0.635469    17A     -0.581652    18A     -0.564568
      19A     -0.545011    20A     -0.521535    21A     -0.503326
      22A     -0.488762    23A     -0.484016    24A     -0.453877
      25A     -0.390473

  @DF-RHF Final Energy:  -287.24281129012400

   => Energetics <=

    Nuclear Repulsion Energy =            260.8015499939523352
    One-Electron Energy =                -907.0570118146579262
    Two-Electron Energy =                 359.0126505305815954
    Total Energy =                       -287.2428112901239956
  Basis Set: (AUG-CC-PVTZ AUX)
    Blend: AUG-CC-PVTZ-RI
    Molecular point group: c1

    Geometry (in Angstrom), charge = 0, multiplicity = 1:

       Center              X                  Y                   Z               Mass
    ------------   -----------------  -----------------  -----------------  -----------------
         O            0.572305738031     1.627646711499    -0.076118872774    15.994914619570
         N           -2.253860261969    -0.863061288501    -0.097006872774    14.003074004430
         C            0.000054738031     0.327391711499    -0.274043872774    12.000000000000
         C            0.854414738031    -0.752933288501     0.380058127226    12.000000000000
         C           -1.457335261969     0.326397711499     0.199851127226    12.000000000000
         C            2.288521738031    -0.767057288501    -0.139264872774    12.000000000000
         H            0.016261738031     0.188705711499    -1.363242872774     1.007825032230
         H            0.847590738031    -0.583296288501     1.467073127226     1.007825032230
         H            0.388758738031    -1.732205288501     0.216453127226     1.007825032230
         H           -1.472470261969     0.478699711499     1.288072127226     1.007825032230
         H           -1.952681261969     1.194366711499    -0.247192872774     1.007825032230
         H            2.887514738031    -1.526253288501     0.371474127226     1.007825032230
         H            2.757046738031     0.207180711499     0.010668127226     1.007825032230
         H            2.307687738031    -0.986517288501    -1.211191872774     1.007825032230
         H           -1.925040461969    -1.522739988501     0.256909227226     1.007825032230
         H           -2.251761261969    -1.038346288501    -1.100815872774     1.007825032230
         H            0.559292738031     1.793855711499     0.884019127226     1.007825032230

  Basis Set: AUG-CC-PVTZ
    Blend: AUG-CC-PVTZ
  Basis Set: (AUG-CC-PVTZ AUX)
    Blend: AUG-CC-PVTZ-JKFIT
	 Reference Energy          =    -287.2428112901239956 [Eh]
	 Singles Energy            =      -0.0000000000000000 [Eh]
	 Same-Spin Energy          =      -0.2918570385850235 [Eh]
	 Opposite-Spin Energy      =      -0.9992136010530964 [Eh]
	 Correlation Energy        =      -1.2910706396381200 [Eh]
	 Total Energy              =    -288.5338819297621171 [Eh]

	 ================> DF-SCS-MP2 Energies <==================
	-----------------------------------------------------------
	 SCS Same-Spin Scale       =       0.3333333333333333 [-]
	 SCS Opposite-Spin Scale   =       1.2000000000000000 [-]
	 SCS Same-Spin Energy      =      -0.0972856795283412 [Eh]
	 SCS Opposite-Spin Energy  =      -1.1990563212637158 [Eh]
	 SCS Correlation Energy    =      -1.2963420007920570 [Eh]
	 SCS Total Energy          =    -288.5391532909160333 [Eh]
	-----------------------------------------------------------

  Dipole Moment: [D]
     X:     0.7232      Y:    -1.2665      Z:     0.5822     Total:     1.5703

*** Psi4 exiting successfully. Buy a developer a beer!
