                               Psi4 1.4a3.dev225

  ==> Input File <==

--------------------------------------------------------------------------
#psi4
#
memory 32 gb

molecule  {
0 1
  O        0.5491460     1.6657540    -0.0835270
  N       -2.2770200    -0.8249540    -0.1044150
  C       -0.0231050     0.3654990    -0.2814520
  C        0.8312550    -0.7148260     0.3726500
  C       -1.4804950     0.3645050     0.1924430
  C        2.2653620    -0.7289500    -0.1466730
  H       -0.0061601     0.2204983    -1.4202451
  H        0.8244310    -0.5451890     1.4596650
  H        0.3655990    -1.6940980     0.2090450
  H       -1.4956300     0.5168070     1.2806640
  H       -1.9758410     1.2324740    -0.2546010
  H        2.8643550    -1.4881460     0.3640660
  H        2.7338870     0.2452880     0.0032600
  H        2.2845280    -0.9484100    -1.2186000
  H       -1.8677700    -1.6459920     0.3360700
  H       -2.2749210    -1.0002390    -1.1082240
  H        0.5361330     1.8319630     0.8766110
units angstrom
no_reorient  #important for SAPT in psi4, default
symmetry c1  #important for SAPT in psi4, default
}

set PROPERTIES_ORIGIN ["COM"]
properties('MP2/aug-cc-pvtz', properties = ['dipole'])
--------------------------------------------------------------------------

    Molecular point group: c1
  Charge       = 0
  Multiplicity = 1
  Basis Set: AUG-CC-PVTZ
    Blend: AUG-CC-PVTZ
  Basis Set: (AUG-CC-PVTZ AUX)
    Blend: AUG-CC-PVTZ-JKFIT

    Orbital Energies [Eh]
    ---------------------

    Doubly Occupied:

       1A    -20.559887     2A    -15.547750     3A    -11.284472
       4A    -11.251321     5A    -11.228235     6A    -11.214365
       7A     -1.359155     8A     -1.182876     9A     -1.053816
      10A     -0.957097    11A     -0.862676    12A     -0.800674
      13A     -0.676432    14A     -0.658482    15A     -0.643238
      16A     -0.632200    17A     -0.580415    18A     -0.555147
      19A     -0.542732    20A     -0.519920    21A     -0.502395
      22A     -0.487918    23A     -0.479359    24A     -0.452494
      25A     -0.388019

  @DF-RHF Final Energy:  -287.28440331547324

   => Energetics <=

    Nuclear Repulsion Energy =            259.4641708820635131
    One-Electron Energy =                -904.6549957402613700
    Two-Electron Energy =                 357.9064215427246154
    Total Energy =                       -287.2844033154732415
  Basis Set: (AUG-CC-PVTZ AUX)
    Blend: AUG-CC-PVTZ-RI
    Molecular point group: c1

    Geometry (in Angstrom), charge = 0, multiplicity = 1:

       Center              X                  Y                   Z               Mass
    ------------   -----------------  -----------------  -----------------  -----------------
         O            0.571387467812     1.629543639489    -0.076537175749    15.994914619570
         N           -2.254778532188    -0.861164360511    -0.097425175749    14.003074004430
         C           -0.000863532188     0.329288639489    -0.274462175749    12.000000000000
         C            0.853496467812    -0.751036360511     0.379639824251    12.000000000000
         C           -1.458253532188     0.328294639489     0.199432824251    12.000000000000
         C            2.287603467812    -0.765160360511    -0.139683175749    12.000000000000
         H            0.016081367812     0.184287939489    -1.413255275749     1.007825032230
         H            0.846672467812    -0.581399360511     1.466654824251     1.007825032230
         H            0.387840467812    -1.730308360511     0.216034824251     1.007825032230
         H           -1.473388532188     0.480596639489     1.287653824251     1.007825032230
         H           -1.953599532188     1.196263639489    -0.247611175749     1.007825032230
         H            2.886596467812    -1.524356360511     0.371055824251     1.007825032230
         H            2.756128467812     0.209077639489     0.010249824251     1.007825032230
         H            2.306769467812    -0.984620360511    -1.211610175749     1.007825032230
         H           -1.845528532188    -1.682202360511     0.343059824251     1.007825032230
         H           -2.252679532188    -1.036449360511    -1.101234175749     1.007825032230
         H            0.558374467812     1.795752639489     0.883600824251     1.007825032230

  Basis Set: AUG-CC-PVTZ
    Blend: AUG-CC-PVTZ
  Basis Set: (AUG-CC-PVTZ AUX)
    Blend: AUG-CC-PVTZ-JKFIT
	 Reference Energy          =    -287.2844033154732415 [Eh]
	 Singles Energy            =      -0.0000000000000000 [Eh]
	 Same-Spin Energy          =      -0.2928455369846267 [Eh]
	 Opposite-Spin Energy      =      -1.0021996280098084 [Eh]
	 Correlation Energy        =      -1.2950451649944352 [Eh]
	 Total Energy              =    -288.5794484804677040 [Eh]

	 ================> DF-SCS-MP2 Energies <==================
	-----------------------------------------------------------
	 SCS Same-Spin Scale       =       0.3333333333333333 [-]
	 SCS Opposite-Spin Scale   =       1.2000000000000000 [-]
	 SCS Same-Spin Energy      =      -0.0976151789948756 [Eh]
	 SCS Opposite-Spin Energy  =      -1.2026395536117700 [Eh]
	 SCS Correlation Energy    =      -1.3002547326066456 [Eh]
	 SCS Total Energy          =    -288.5846580480798593 [Eh]
	-----------------------------------------------------------

  Dipole Moment: [D]
     X:     0.7236      Y:    -1.2915      Z:     0.6628     Total:     1.6220

*** Psi4 exiting successfully. Buy a developer a beer!
