                               Psi4 1.4a3.dev225

  ==> Input File <==

--------------------------------------------------------------------------
#psi4
#
memory 32 gb

molecule  {
0 1
  O        0.5491460     1.6657540    -0.0835270
  N       -2.2601089    -0.8391865    -0.0916668
  C       -0.0231050     0.3654990    -0.2814520
  C        0.8312550    -0.7148260     0.3726500
  C       -1.4804950     0.3645050     0.1924430
  C        2.2653620    -0.7289500    -0.1466730
  H       -0.0068980     0.2268130    -1.3706510
  H        0.8244310    -0.5451890     1.4596650
  H        0.3655990    -1.6940980     0.2090450
  H       -1.4956300     0.5168070     1.2806640
  H       -1.9758410     1.2324740    -0.2546010
  H        2.8643550    -1.4881460     0.3640660
  H        2.7338870     0.2452880     0.0032600
  H        2.2845280    -0.9484100    -1.2186000
  H       -1.8677700    -1.6459920     0.3360700
  H       -2.2749210    -1.0002390    -1.1082240
  H        0.5361330     1.8319630     0.8766110
units angstrom
no_reorient  #important for SAPT in psi4, default
symmetry c1  #important for SAPT in psi4, default
}

set PROPERTIES_ORIGIN ["COM"]
properties('MP2/aug-cc-pvtz', properties = ['dipole'])
--------------------------------------------------------------------------

    Molecular point group: c1
  Charge       = 0
  Multiplicity = 1
  Basis Set: AUG-CC-PVTZ
    Blend: AUG-CC-PVTZ
  Basis Set: (AUG-CC-PVTZ AUX)
    Blend: AUG-CC-PVTZ-JKFIT

    Orbital Energies [Eh]
    ---------------------

    Doubly Occupied:

       1A    -20.558694     2A    -15.545673     3A    -11.277723
       4A    -11.250922     5A    -11.227275     6A    -11.214090
       7A     -1.358312     8A     -1.183855     9A     -1.053961
      10A     -0.958497    11A     -0.863133    12A     -0.804816
      13A     -0.679649    14A     -0.657298    15A     -0.644047
      16A     -0.632529    17A     -0.580818    18A     -0.558790
      19A     -0.542301    20A     -0.520202    21A     -0.502566
      22A     -0.488167    23A     -0.481154    24A     -0.452745
      25A     -0.386287

  @DF-RHF Final Energy:  -287.28640935165726

   => Energetics <=

    Nuclear Repulsion Energy =            259.8720841500689858
    One-Electron Energy =                -905.4699756214844228
    Two-Electron Energy =                 358.3114821197581819
    Total Energy =                       -287.2864093516572552
  Basis Set: (AUG-CC-PVTZ AUX)
    Blend: AUG-CC-PVTZ-RI
    Molecular point group: c1

    Geometry (in Angstrom), charge = 0, multiplicity = 1:

       Center              X                  Y                   Z               Mass
    ------------   -----------------  -----------------  -----------------  -----------------
         O            0.568737569500     1.631709398766    -0.079102125676    15.994914619570
         N           -2.240517330500    -0.873231101234    -0.087241925676    14.003074004430
         C           -0.003513430500     0.331454398766    -0.277027125676    12.000000000000
         C            0.850846569500    -0.748870601234     0.377074874324    12.000000000000
         C           -1.460903430500     0.330460398766     0.196867874324    12.000000000000
         C            2.284953569500    -0.762994601234    -0.142248125676    12.000000000000
         H            0.012693569500     0.192768398766    -1.366226125676     1.007825032230
         H            0.844022569500    -0.579233601234     1.464089874324     1.007825032230
         H            0.385190569500    -1.728142601234     0.213469874324     1.007825032230
         H           -1.476038430500     0.482762398766     1.285088874324     1.007825032230
         H           -1.956249430500     1.198429398766    -0.250176125676     1.007825032230
         H            2.883946569500    -1.522190601234     0.368490874324     1.007825032230
         H            2.753478569500     0.211243398766     0.007684874324     1.007825032230
         H            2.304119569500    -0.982454601234    -1.214175125676     1.007825032230
         H           -1.848178430500    -1.680036601234     0.340494874324     1.007825032230
         H           -2.255329430500    -1.034283601234    -1.103799125676     1.007825032230
         H            0.555724569500     1.797918398766     0.881035874324     1.007825032230

  Basis Set: AUG-CC-PVTZ
    Blend: AUG-CC-PVTZ
  Basis Set: (AUG-CC-PVTZ AUX)
    Blend: AUG-CC-PVTZ-JKFIT
	 Reference Energy          =    -287.2864093516572552 [Eh]
	 Singles Energy            =      -0.0000000000000000 [Eh]
	 Same-Spin Energy          =      -0.2927133154691865 [Eh]
	 Opposite-Spin Energy      =      -1.0015533120478590 [Eh]
	 Correlation Energy        =      -1.2942666275170456 [Eh]
	 Total Energy              =    -288.5806759791743161 [Eh]

	 ================> DF-SCS-MP2 Energies <==================
	-----------------------------------------------------------
	 SCS Same-Spin Scale       =       0.3333333333333333 [-]
	 SCS Opposite-Spin Scale   =       1.2000000000000000 [-]
	 SCS Same-Spin Energy      =      -0.0975711051563955 [Eh]
	 SCS Opposite-Spin Energy  =      -1.2018639744574309 [Eh]
	 SCS Correlation Energy    =      -1.2994350796138263 [Eh]
	 SCS Total Energy          =    -288.5858444312710844 [Eh]
	-----------------------------------------------------------

  Dipole Moment: [D]
     X:     0.6775      Y:    -1.2870      Z:     0.6158     Total:     1.5795

*** Psi4 exiting successfully. Buy a developer a beer!
