                               Psi4 1.4a3.dev225

  ==> Input File <==

--------------------------------------------------------------------------
#psi4
#
memory 32 gb

molecule  {
0 1
  O        0.5491460     1.6657540    -0.0835270
  N       -2.2770200    -0.8249540    -0.1044150
  C       -0.0231050     0.3654990    -0.2814520
  C        0.8312550    -0.7148260     0.3726500
  C       -1.4804950     0.3645050     0.1924430
  C        2.2653620    -0.7289500    -0.1466730
  H       -0.0068980     0.2268130    -1.3706510
  H        0.8244310    -0.5451890     1.4596650
  H        0.3655990    -1.6940980     0.2090450
  H       -1.4956300     0.5168070     1.2806640
  H       -1.9848901     1.2483302    -0.2627677
  H        2.8643550    -1.4881460     0.3640660
  H        2.7338870     0.2452880     0.0032600
  H        2.2845280    -0.9484100    -1.2186000
  H       -1.8677700    -1.6459920     0.3360700
  H       -2.2749210    -1.0002390    -1.1082240
  H        0.5361330     1.8319630     0.8766110
units angstrom
no_reorient  #important for SAPT in psi4, default
symmetry c1  #important for SAPT in psi4, default
}

set PROPERTIES_ORIGIN ["COM"]
properties('MP2/aug-cc-pvtz', properties = ['dipole'])
--------------------------------------------------------------------------

    Molecular point group: c1
  Charge       = 0
  Multiplicity = 1
  Basis Set: AUG-CC-PVTZ
    Blend: AUG-CC-PVTZ
  Basis Set: (AUG-CC-PVTZ AUX)
    Blend: AUG-CC-PVTZ-JKFIT

    Orbital Energies [Eh]
    ---------------------

    Doubly Occupied:

       1A    -20.558995     2A    -15.548009     3A    -11.278364
       4A    -11.253137     5A    -11.227777     6A    -11.214424
       7A     -1.358566     8A     -1.182845     9A     -1.054379
      10A     -0.957551    11A     -0.861619    12A     -0.805078
      13A     -0.675522    14A     -0.658162    15A     -0.644435
      16A     -0.632249    17A     -0.580704    18A     -0.554764
      19A     -0.543309    20A     -0.521139    21A     -0.500716
      22A     -0.488511    23A     -0.481019    24A     -0.453272
      25A     -0.387702

  @DF-RHF Final Energy:  -287.28599229375357

   => Energetics <=

    Nuclear Repulsion Energy =            259.6170810844066068
    One-Electron Energy =                -904.9616499281705728
    Two-Electron Energy =                 358.0585765500103435
    Total Energy =                       -287.2859922937535657
  Basis Set: (AUG-CC-PVTZ AUX)
    Blend: AUG-CC-PVTZ-RI
    Molecular point group: c1

    Geometry (in Angstrom), charge = 0, multiplicity = 1:

       Center              X                  Y                   Z               Mass
    ------------   -----------------  -----------------  -----------------  -----------------
         O            0.571498190012     1.629292815862    -0.077005851838    15.994914619570
         N           -2.254667809988    -0.861415184138    -0.097893851838    14.003074004430
         C           -0.000752809988     0.329037815862    -0.274930851838    12.000000000000
         C            0.853607190012    -0.751287184138     0.379171148162    12.000000000000
         C           -1.458142809988     0.328043815862     0.198964148162    12.000000000000
         C            2.287714190012    -0.765411184138    -0.140151851838    12.000000000000
         H            0.015454190012     0.190351815862    -1.364129851838     1.007825032230
         H            0.846783190012    -0.581650184138     1.466186148162     1.007825032230
         H            0.387951190012    -1.730559184138     0.215566148162     1.007825032230
         H           -1.473277809988     0.480345815862     1.287185148162     1.007825032230
         H           -1.962537909988     1.211869015862    -0.256246551838     1.007825032230
         H            2.886707190012    -1.524607184138     0.370587148162     1.007825032230
         H            2.756239190012     0.208826815862     0.009781148162     1.007825032230
         H            2.306880190012    -0.984871184138    -1.212078851838     1.007825032230
         H           -1.845417809988    -1.682453184138     0.342591148162     1.007825032230
         H           -2.252568809988    -1.036700184138    -1.101702851838     1.007825032230
         H            0.558485190012     1.795501815862     0.883132148162     1.007825032230

  Basis Set: AUG-CC-PVTZ
    Blend: AUG-CC-PVTZ
  Basis Set: (AUG-CC-PVTZ AUX)
    Blend: AUG-CC-PVTZ-JKFIT
	 Reference Energy          =    -287.2859922937535657 [Eh]
	 Singles Energy            =      -0.0000000000000000 [Eh]
	 Same-Spin Energy          =      -0.2927907527678347 [Eh]
	 Opposite-Spin Energy      =      -1.0019569785419495 [Eh]
	 Correlation Energy        =      -1.2947477313097842 [Eh]
	 Total Energy              =    -288.5807400250633350 [Eh]

	 ================> DF-SCS-MP2 Energies <==================
	-----------------------------------------------------------
	 SCS Same-Spin Scale       =       0.3333333333333333 [-]
	 SCS Opposite-Spin Scale   =       1.2000000000000000 [-]
	 SCS Same-Spin Energy      =      -0.0975969175892782 [Eh]
	 SCS Opposite-Spin Energy  =      -1.2023483742503394 [Eh]
	 SCS Correlation Energy    =      -1.2999452918396175 [Eh]
	 SCS Total Energy          =    -288.5859375855931717 [Eh]
	-----------------------------------------------------------

  Dipole Moment: [D]
     X:     0.7258      Y:    -1.3117      Z:     0.6297     Total:     1.6260

*** Psi4 exiting successfully. Buy a developer a beer!
