                               Psi4 1.4a3.dev225

  ==> Input File <==

--------------------------------------------------------------------------
#psi4
#
memory 32 gb

molecule  {
0 1
  O        0.5491460     1.6657540    -0.0835270
  N       -2.2770200    -0.8249540    -0.1044150
  C       -0.0231050     0.3654990    -0.2814520
  C        0.8312550    -0.7148260     0.3726500
  C       -1.6706924     0.3643753     0.2542889
  C        2.2653620    -0.7289500    -0.1466730
  H       -0.0068980     0.2268130    -1.3706510
  H        0.8244310    -0.5451890     1.4596650
  H        0.3655990    -1.6940980     0.2090450
  H       -1.4956300     0.5168070     1.2806640
  H       -1.9758410     1.2324740    -0.2546010
  H        2.8643550    -1.4881460     0.3640660
  H        2.7338870     0.2452880     0.0032600
  H        2.2845280    -0.9484100    -1.2186000
  H       -1.8677700    -1.6459920     0.3360700
  H       -2.2749210    -1.0002390    -1.1082240
  H        0.5361330     1.8319630     0.8766110
units angstrom
no_reorient  #important for SAPT in psi4, default
symmetry c1  #important for SAPT in psi4, default
}

set PROPERTIES_ORIGIN ["COM"]
properties('MP2/aug-cc-pvtz', properties = ['dipole'])
--------------------------------------------------------------------------

    Molecular point group: c1
  Charge       = 0
  Multiplicity = 1
  Basis Set: AUG-CC-PVTZ
    Blend: AUG-CC-PVTZ
  Basis Set: (AUG-CC-PVTZ AUX)
    Blend: AUG-CC-PVTZ-JKFIT

    Orbital Energies [Eh]
    ---------------------

    Doubly Occupied:

       1A    -20.554849     2A    -15.547323     3A    -11.274409
       4A    -11.252464     5A    -11.224534     6A    -11.211953
       7A     -1.351067     8A     -1.202305     9A     -1.046960
      10A     -0.935026    11A     -0.868955    12A     -0.801251
      13A     -0.689884    14A     -0.649325    15A     -0.638238
      16A     -0.636688    17A     -0.586773    18A     -0.563068
      19A     -0.545539    20A     -0.524679    21A     -0.509397
      22A     -0.485421    23A     -0.479381    24A     -0.452677
      25A     -0.343394

  @DF-RHF Final Energy:  -287.25919099829736

   => Energetics <=

    Nuclear Repulsion Energy =            257.7104417125953546
    One-Electron Energy =                -901.1881423406977092
    Two-Electron Energy =                 356.2185096298050553
    Total Energy =                       -287.2591909982973561
  Basis Set: (AUG-CC-PVTZ AUX)
    Blend: AUG-CC-PVTZ-RI
    Molecular point group: c1

    Geometry (in Angstrom), charge = 0, multiplicity = 1:

       Center              X                  Y                   Z               Mass
    ------------   -----------------  -----------------  -----------------  -----------------
         O            0.597016209610     1.629489671220    -0.085429147444    15.994914619570
         N           -2.229149790390    -0.861218328780    -0.106317147444    14.003074004430
         C            0.024765209610     0.329234671220    -0.283354147444    12.000000000000
         C            0.879125209610    -0.751090328780     0.370747852556    12.000000000000
         C           -1.622822190390     0.328110971220     0.252386752556    12.000000000000
         C            2.313232209610    -0.765214328780    -0.148575147444    12.000000000000
         H            0.040972209610     0.190548671220    -1.372553147444     1.007825032230
         H            0.872301209610    -0.581453328780     1.457762852556     1.007825032230
         H            0.413469209610    -1.730362328780     0.207142852556     1.007825032230
         H           -1.447759790390     0.480542671220     1.278761852556     1.007825032230
         H           -1.927970790390     1.196209671220    -0.256503147444     1.007825032230
         H            2.912225209610    -1.524410328780     0.362163852556     1.007825032230
         H            2.781757209610     0.209023671220     0.001357852556     1.007825032230
         H            2.332398209610    -0.984674328780    -1.220502147444     1.007825032230
         H           -1.819899790390    -1.682256328780     0.334167852556     1.007825032230
         H           -2.227050790390    -1.036503328780    -1.110126147444     1.007825032230
         H            0.584003209610     1.795698671220     0.874708852556     1.007825032230

  Basis Set: AUG-CC-PVTZ
    Blend: AUG-CC-PVTZ
  Basis Set: (AUG-CC-PVTZ AUX)
    Blend: AUG-CC-PVTZ-JKFIT
	 Reference Energy          =    -287.2591909982973561 [Eh]
	 Singles Energy            =      -0.0000000000000000 [Eh]
	 Same-Spin Energy          =      -0.2935510469318465 [Eh]
	 Opposite-Spin Energy      =      -1.0030853274944007 [Eh]
	 Correlation Energy        =      -1.2966363744262472 [Eh]
	 Total Energy              =    -288.5558273727236269 [Eh]

	 ================> DF-SCS-MP2 Energies <==================
	-----------------------------------------------------------
	 SCS Same-Spin Scale       =       0.3333333333333333 [-]
	 SCS Opposite-Spin Scale   =       1.2000000000000000 [-]
	 SCS Same-Spin Energy      =      -0.0978503489772822 [Eh]
	 SCS Opposite-Spin Energy  =      -1.2037023929932809 [Eh]
	 SCS Correlation Energy    =      -1.3015527419705630 [Eh]
	 SCS Total Energy          =    -288.5607437402679238 [Eh]
	-----------------------------------------------------------

  Dipole Moment: [D]
     X:     0.4537      Y:    -1.3847      Z:     0.6603     Total:     1.5998

*** Psi4 exiting successfully. Buy a developer a beer!
