                               Psi4 1.4a3.dev225

  ==> Input File <==

--------------------------------------------------------------------------
#psi4
#
memory 32 gb

molecule  {
0 1
  O        0.5491460     1.6657540    -0.0835270
  N       -2.2770200    -0.8249540    -0.1044150
  C       -0.0231050     0.3654990    -0.2814520
  C        0.8312550    -0.7148260     0.3726500
  C       -1.3715299     0.5272238     0.2330534
  C        2.2653620    -0.7289500    -0.1466730
  H       -0.0068980     0.2268130    -1.3706510
  H        0.8244310    -0.5451890     1.4596650
  H        0.3655990    -1.6940980     0.2090450
  H       -1.4956300     0.5168070     1.2806640
  H       -1.9758410     1.2324740    -0.2546010
  H        2.8643550    -1.4881460     0.3640660
  H        2.7338870     0.2452880     0.0032600
  H        2.2845280    -0.9484100    -1.2186000
  H       -1.8677700    -1.6459920     0.3360700
  H       -2.2749210    -1.0002390    -1.1082240
  H        0.5361330     1.8319630     0.8766110
units angstrom
no_reorient  #important for SAPT in psi4, default
symmetry c1  #important for SAPT in psi4, default
}

set PROPERTIES_ORIGIN ["COM"]
properties('MP2/aug-cc-pvtz', properties = ['dipole'])
--------------------------------------------------------------------------

    Molecular point group: c1
  Charge       = 0
  Multiplicity = 1
  Basis Set: AUG-CC-PVTZ
    Blend: AUG-CC-PVTZ
  Basis Set: (AUG-CC-PVTZ AUX)
    Blend: AUG-CC-PVTZ-JKFIT

    Orbital Energies [Eh]
    ---------------------

    Doubly Occupied:

       1A    -20.557930     2A    -15.539152     3A    -11.280887
       4A    -11.253794     5A    -11.231282     6A    -11.217259
       7A     -1.365171     8A     -1.138195     9A     -1.056726
      10A     -0.976713    11A     -0.871081    12A     -0.811495
      13A     -0.677816    14A     -0.657241    15A     -0.640373
      16A     -0.634717    17A     -0.579288    18A     -0.562670
      19A     -0.537658    20A     -0.518553    21A     -0.498513
      22A     -0.490400    23A     -0.475195    24A     -0.455267
      25A     -0.387314

  @DF-RHF Final Energy:  -287.25587346745834

   => Energetics <=

    Nuclear Repulsion Energy =            259.6398299811540369
    One-Electron Energy =                -904.9620283961121459
    Two-Electron Energy =                 358.0663249474998224
    Total Energy =                       -287.2558734674583434
  Basis Set: (AUG-CC-PVTZ AUX)
    Blend: AUG-CC-PVTZ-RI
    Molecular point group: c1

    Geometry (in Angstrom), charge = 0, multiplicity = 1:

       Center              X                  Y                   Z               Mass
    ------------   -----------------  -----------------  -----------------  -----------------
         O            0.556717756221     1.607553289866    -0.082568635826    15.994914619570
         N           -2.269448243779    -0.883154710134    -0.103456635826    14.003074004430
         C           -0.015533243779     0.307298289866    -0.280493635826    12.000000000000
         C            0.838826756221    -0.773026710134     0.373608364174    12.000000000000
         C           -1.363958143779     0.469023089866     0.234011764174    12.000000000000
         C            2.272933756221    -0.787150710134    -0.145714635826    12.000000000000
         H            0.000673756221     0.168612289866    -1.369692635826     1.007825032230
         H            0.832002756221    -0.603389710134     1.460623364174     1.007825032230
         H            0.373170756221    -1.752298710134     0.210003364174     1.007825032230
         H           -1.488058243779     0.458606289866     1.281622364174     1.007825032230
         H           -1.968269243779     1.174273289866    -0.253642635826     1.007825032230
         H            2.871926756221    -1.546346710134     0.365024364174     1.007825032230
         H            2.741458756221     0.187087289866     0.004218364174     1.007825032230
         H            2.292099756221    -1.006610710134    -1.217641635826     1.007825032230
         H           -1.860198243779    -1.704192710134     0.337028364174     1.007825032230
         H           -2.267349243779    -1.058439710134    -1.107265635826     1.007825032230
         H            0.543704756221     1.773762289866     0.877569364174     1.007825032230

  Basis Set: AUG-CC-PVTZ
    Blend: AUG-CC-PVTZ
  Basis Set: (AUG-CC-PVTZ AUX)
    Blend: AUG-CC-PVTZ-JKFIT
	 Reference Energy          =    -287.2558734674583434 [Eh]
	 Singles Energy            =      -0.0000000000000000 [Eh]
	 Same-Spin Energy          =      -0.2934830549544808 [Eh]
	 Opposite-Spin Energy      =      -1.0047723043988734 [Eh]
	 Correlation Energy        =      -1.2982553593533543 [Eh]
	 Total Energy              =    -288.5541288268116773 [Eh]

	 ================> DF-SCS-MP2 Energies <==================
	-----------------------------------------------------------
	 SCS Same-Spin Scale       =       0.3333333333333333 [-]
	 SCS Opposite-Spin Scale   =       1.2000000000000000 [-]
	 SCS Same-Spin Energy      =      -0.0978276849848269 [Eh]
	 SCS Opposite-Spin Energy  =      -1.2057267652786481 [Eh]
	 SCS Correlation Energy    =      -1.3035544502634751 [Eh]
	 SCS Total Energy          =    -288.5594279177217913 [Eh]
	-----------------------------------------------------------

  Dipole Moment: [D]
     X:     1.0664      Y:    -0.9895      Z:     0.6973     Total:     1.6132

*** Psi4 exiting successfully. Buy a developer a beer!
