                               Psi4 1.4a3.dev225

  ==> Input File <==

--------------------------------------------------------------------------
#psi4
#
memory 32 gb

molecule  {
0 1
  O        0.5491460     1.6657540    -0.0835270
  N       -2.2770200    -0.8249540    -0.1044150
  C       -0.0231050     0.3654990    -0.2814520
  C        0.8312550    -0.7148260     0.3726500
  C       -1.4329456     0.3645374     0.1769815
  C        2.2653620    -0.7289500    -0.1466730
  H       -0.0068980     0.2268130    -1.3706510
  H        0.8244310    -0.5451890     1.4596650
  H        0.3655990    -1.6940980     0.2090450
  H       -1.4956300     0.5168070     1.2806640
  H       -1.9758410     1.2324740    -0.2546010
  H        2.8643550    -1.4881460     0.3640660
  H        2.7338870     0.2452880     0.0032600
  H        2.2845280    -0.9484100    -1.2186000
  H       -1.8677700    -1.6459920     0.3360700
  H       -2.2749210    -1.0002390    -1.1082240
  H        0.5361330     1.8319630     0.8766110
units angstrom
no_reorient  #important for SAPT in psi4, default
symmetry c1  #important for SAPT in psi4, default
}

set PROPERTIES_ORIGIN ["COM"]
properties('MP2/aug-cc-pvtz', properties = ['dipole'])
--------------------------------------------------------------------------

    Molecular point group: c1
  Charge       = 0
  Multiplicity = 1
  Basis Set: AUG-CC-PVTZ
    Blend: AUG-CC-PVTZ
  Basis Set: (AUG-CC-PVTZ AUX)
    Blend: AUG-CC-PVTZ-JKFIT

    Orbital Energies [Eh]
    ---------------------

    Doubly Occupied:

       1A    -20.559836     2A    -15.548834     3A    -11.277585
       4A    -11.251993     5A    -11.228300     6A    -11.214773
       7A     -1.360546     8A     -1.178760     9A     -1.056665
      10A     -0.965895    11A     -0.861236    12A     -0.805481
      13A     -0.674937    14A     -0.661461    15A     -0.645305
      16A     -0.633761    17A     -0.581189    18A     -0.552179
      19A     -0.543303    20A     -0.516959    21A     -0.499357
      22A     -0.489055    23A     -0.481260    24A     -0.452055
      25A     -0.396061

  @DF-RHF Final Energy:  -287.28343622002797

   => Energetics <=

    Nuclear Repulsion Energy =            260.2494412701736337
    One-Electron Energy =                -906.1921800064435502
    Two-Electron Energy =                 358.6593025162419508
    Total Energy =                       -287.2834362200279656
  Basis Set: (AUG-CC-PVTZ AUX)
    Blend: AUG-CC-PVTZ-RI
    Molecular point group: c1

    Geometry (in Angstrom), charge = 0, multiplicity = 1:

       Center              X                  Y                   Z               Mass
    ------------   -----------------  -----------------  -----------------  -----------------
         O            0.564990710631     1.629467835665    -0.075015513865    15.994914619570
         N           -2.261175289369    -0.861240164335    -0.095903513865    14.003074004430
         C           -0.007260289369     0.329212835665    -0.272940513865    12.000000000000
         C            0.847099710631    -0.751112164335     0.381161486135    12.000000000000
         C           -1.417100889369     0.328251235665     0.185492986135    12.000000000000
         C            2.281206710631    -0.765236164335    -0.138161513865    12.000000000000
         H            0.008946710631     0.190526835665    -1.362139513865     1.007825032230
         H            0.840275710631    -0.581475164335     1.468176486135     1.007825032230
         H            0.381443710631    -1.730384164335     0.217556486135     1.007825032230
         H           -1.479785289369     0.480520835665     1.289175486135     1.007825032230
         H           -1.959996289369     1.196187835665    -0.246089513865     1.007825032230
         H            2.880199710631    -1.524432164335     0.372577486135     1.007825032230
         H            2.749731710631     0.209001835665     0.011771486135     1.007825032230
         H            2.300372710631    -0.984696164335    -1.210088513865     1.007825032230
         H           -1.851925289369    -1.682278164335     0.344581486135     1.007825032230
         H           -2.259076289369    -1.036525164335    -1.099712513865     1.007825032230
         H            0.551977710631     1.795676835665     0.885122486135     1.007825032230

  Basis Set: AUG-CC-PVTZ
    Blend: AUG-CC-PVTZ
  Basis Set: (AUG-CC-PVTZ AUX)
    Blend: AUG-CC-PVTZ-JKFIT
	 Reference Energy          =    -287.2834362200279656 [Eh]
	 Singles Energy            =      -0.0000000000000000 [Eh]
	 Same-Spin Energy          =      -0.2931111417025651 [Eh]
	 Opposite-Spin Energy      =      -1.0024509443252791 [Eh]
	 Correlation Energy        =      -1.2955620860278443 [Eh]
	 Total Energy              =    -288.5789983060558370 [Eh]

	 ================> DF-SCS-MP2 Energies <==================
	-----------------------------------------------------------
	 SCS Same-Spin Scale       =       0.3333333333333333 [-]
	 SCS Opposite-Spin Scale   =       1.2000000000000000 [-]
	 SCS Same-Spin Energy      =      -0.0977037139008550 [Eh]
	 SCS Opposite-Spin Energy  =      -1.2029411331903350 [Eh]
	 SCS Correlation Energy    =      -1.3006448470911900 [Eh]
	 SCS Total Energy          =    -288.5840810671191434 [Eh]
	-----------------------------------------------------------

  Dipole Moment: [D]
     X:     0.7705      Y:    -1.2942      Z:     0.6145     Total:     1.6267

*** Psi4 exiting successfully. Buy a developer a beer!
