                               Psi4 1.4a3.dev225

  ==> Input File <==

--------------------------------------------------------------------------
#psi4
#
memory 32 gb

molecule  {
0 1
  O        0.5491460     1.6657540    -0.0835270
  N       -2.2770200    -0.8249540    -0.1044150
  C       -0.0231050     0.3654990    -0.2814520
  C        0.7885298    -0.7306480     0.4001588
  C       -1.4804950     0.3645050     0.1924430
  C        2.2653620    -0.7289500    -0.1466730
  H       -0.0068980     0.2268130    -1.3706510
  H        0.8244310    -0.5451890     1.4596650
  H        0.3655990    -1.6940980     0.2090450
  H       -1.4956300     0.5168070     1.2806640
  H       -1.9758410     1.2324740    -0.2546010
  H        2.8643550    -1.4881460     0.3640660
  H        2.7338870     0.2452880     0.0032600
  H        2.2845280    -0.9484100    -1.2186000
  H       -1.8677700    -1.6459920     0.3360700
  H       -2.2749210    -1.0002390    -1.1082240
  H        0.5361330     1.8319630     0.8766110
units angstrom
no_reorient  #important for SAPT in psi4, default
symmetry c1  #important for SAPT in psi4, default
}

set PROPERTIES_ORIGIN ["COM"]
properties('MP2/aug-cc-pvtz', properties = ['dipole'])
--------------------------------------------------------------------------

    Molecular point group: c1
  Charge       = 0
  Multiplicity = 1
  Basis Set: AUG-CC-PVTZ
    Blend: AUG-CC-PVTZ
  Basis Set: (AUG-CC-PVTZ AUX)
    Blend: AUG-CC-PVTZ-JKFIT

    Orbital Energies [Eh]
    ---------------------

    Doubly Occupied:

       1A    -20.559996     2A    -15.547553     3A    -11.278277
       4A    -11.249385     5A    -11.225603     6A    -11.215770
       7A     -1.358905     8A     -1.182793     9A     -1.049727
      10A     -0.954786    11A     -0.863179    12A     -0.808495
      13A     -0.676840    14A     -0.658893    15A     -0.647495
      16A     -0.630494    17A     -0.579689    18A     -0.553435
      19A     -0.542394    20A     -0.520859    21A     -0.500406
      22A     -0.492863    23A     -0.477491    24A     -0.456056
      25A     -0.386210

  @DF-RHF Final Energy:  -287.28428164963026

   => Energetics <=

    Nuclear Repulsion Energy =            259.5101838441693189
    One-Electron Energy =                -904.7537389656364439
    Two-Electron Energy =                 357.9592734718368661
    Total Energy =                       -287.2842816496302589
  Basis Set: (AUG-CC-PVTZ AUX)
    Blend: AUG-CC-PVTZ-RI
    Molecular point group: c1

    Geometry (in Angstrom), charge = 0, multiplicity = 1:

       Center              X                  Y                   Z               Mass
    ------------   -----------------  -----------------  -----------------  -----------------
         O            0.577151080866     1.631603490365    -0.080803794922    15.994914619570
         N           -2.249014919134    -0.859104509635    -0.101691794922    14.003074004430
         C            0.004900080866     0.331348490365    -0.278728794922    12.000000000000
         C            0.816534880866    -0.764798509635     0.402882005078    12.000000000000
         C           -1.452489919134     0.330354490365     0.195166205078    12.000000000000
         C            2.293367080866    -0.763100509635    -0.143949794922    12.000000000000
         H            0.021107080866     0.192662490365    -1.367927794922     1.007825032230
         H            0.852436080866    -0.579339509635     1.462388205078     1.007825032230
         H            0.393604080866    -1.728248509635     0.211768205078     1.007825032230
         H           -1.467624919134     0.482656490365     1.283387205078     1.007825032230
         H           -1.947835919134     1.198323490365    -0.251877794922     1.007825032230
         H            2.892360080866    -1.522296509635     0.366789205078     1.007825032230
         H            2.761892080866     0.211137490365     0.005983205078     1.007825032230
         H            2.312533080866    -0.982560509635    -1.215876794922     1.007825032230
         H           -1.839764919134    -1.680142509635     0.338793205078     1.007825032230
         H           -2.246915919134    -1.034389509635    -1.105500794922     1.007825032230
         H            0.564138080866     1.797812490365     0.879334205078     1.007825032230

  Basis Set: AUG-CC-PVTZ
    Blend: AUG-CC-PVTZ
  Basis Set: (AUG-CC-PVTZ AUX)
    Blend: AUG-CC-PVTZ-JKFIT
	 Reference Energy          =    -287.2842816496302589 [Eh]
	 Singles Energy            =      -0.0000000000000000 [Eh]
	 Same-Spin Energy          =      -0.2926294447156458 [Eh]
	 Opposite-Spin Energy      =      -1.0018150032598636 [Eh]
	 Correlation Energy        =      -1.2944444479755095 [Eh]
	 Total Energy              =    -288.5787260976057951 [Eh]

	 ================> DF-SCS-MP2 Energies <==================
	-----------------------------------------------------------
	 SCS Same-Spin Scale       =       0.3333333333333333 [-]
	 SCS Opposite-Spin Scale   =       1.2000000000000000 [-]
	 SCS Same-Spin Energy      =      -0.0975431482385486 [Eh]
	 SCS Opposite-Spin Energy  =      -1.2021780039118364 [Eh]
	 SCS Correlation Energy    =      -1.2997211521503851 [Eh]
	 SCS Total Energy          =    -288.5840028017806276 [Eh]
	-----------------------------------------------------------

  Dipole Moment: [D]
     X:     0.7172      Y:    -1.2979      Z:     0.6425     Total:     1.6161

*** Psi4 exiting successfully. Buy a developer a beer!
