                               Psi4 1.4a3.dev225

  ==> Input File <==

--------------------------------------------------------------------------
#psi4
#
memory 32 gb

molecule  {
0 1
  O        0.5491460     1.6657540    -0.0835270
  N       -2.2770200    -0.8249540    -0.1044150
  C       -0.0231050     0.3654990    -0.2814520
  C        0.8312550    -0.7148260     0.3726500
  C       -1.4804950     0.3645050     0.1924430
  C        2.2653620    -0.7289500    -0.1466730
  H       -0.0068980     0.2268130    -1.3706510
  H        0.8244310    -0.5451890     1.4596650
  H        0.3655990    -1.6940980     0.2090450
  H       -1.4956300     0.5168070     1.2806640
  H       -1.9305956     1.1531929    -0.2137676
  H        2.8643550    -1.4881460     0.3640660
  H        2.7338870     0.2452880     0.0032600
  H        2.2845280    -0.9484100    -1.2186000
  H       -1.8677700    -1.6459920     0.3360700
  H       -2.2749210    -1.0002390    -1.1082240
  H        0.5361330     1.8319630     0.8766110
units angstrom
no_reorient  #important for SAPT in psi4, default
symmetry c1  #important for SAPT in psi4, default
}

set PROPERTIES_ORIGIN ["COM"]
properties('MP2/aug-cc-pvtz', properties = ['dipole'])
--------------------------------------------------------------------------

    Molecular point group: c1
  Charge       = 0
  Multiplicity = 1
  Basis Set: AUG-CC-PVTZ
    Blend: AUG-CC-PVTZ
  Basis Set: (AUG-CC-PVTZ AUX)
    Blend: AUG-CC-PVTZ-JKFIT

    Orbital Energies [Eh]
    ---------------------

    Doubly Occupied:

       1A    -20.559202     2A    -15.546808     3A    -11.277371
       4A    -11.238379     5A    -11.226914     6A    -11.213856
       7A     -1.358789     8A     -1.183714     9A     -1.053716
      10A     -0.962307    11A     -0.869859    12A     -0.805827
      13A     -0.682013    14A     -0.658039    15A     -0.644183
      16A     -0.631823    17A     -0.582657    18A     -0.561445
      19A     -0.544096    20A     -0.520477    21A     -0.507881
      22A     -0.487956    23A     -0.481540    24A     -0.453566
      25A     -0.387562

  @DF-RHF Final Energy:  -287.28077233435249

   => Energetics <=

    Nuclear Repulsion Energy =            260.2181285420008976
    One-Electron Energy =                -906.1178454329286751
    Two-Electron Energy =                 358.6189445565752294
    Total Energy =                       -287.2807723343524913
  Basis Set: (AUG-CC-PVTZ AUX)
    Blend: AUG-CC-PVTZ-RI
    Molecular point group: c1

    Geometry (in Angstrom), charge = 0, multiplicity = 1:

       Center              X                  Y                   Z               Mass
    ------------   -----------------  -----------------  -----------------  -----------------
         O            0.570883945962     1.630369122310    -0.077560199329    15.994914619570
         N           -2.255282054038    -0.860338877690    -0.098448199329    14.003074004430
         C           -0.001367054038     0.330114122310    -0.275485199329    12.000000000000
         C            0.852992945962    -0.750210877690     0.378616800671    12.000000000000
         C           -1.458757054038     0.329120122310     0.198409800671    12.000000000000
         C            2.287099945962    -0.764334877690    -0.140706199329    12.000000000000
         H            0.014839945962     0.191428122310    -1.364684199329     1.007825032230
         H            0.846168945962    -0.580573877690     1.465631800671     1.007825032230
         H            0.387336945962    -1.729482877690     0.215011800671     1.007825032230
         H           -1.473892054038     0.481422122310     1.286630800671     1.007825032230
         H           -1.908857654038     1.117808022310    -0.207800799329     1.007825032230
         H            2.886092945962    -1.523530877690     0.370032800671     1.007825032230
         H            2.755624945962     0.209903122310     0.009226800671     1.007825032230
         H            2.306265945962    -0.983794877690    -1.212633199329     1.007825032230
         H           -1.846032054038    -1.681376877690     0.342036800671     1.007825032230
         H           -2.253183054038    -1.035623877690    -1.102257199329     1.007825032230
         H            0.557870945962     1.796578122310     0.882577800671     1.007825032230

  Basis Set: AUG-CC-PVTZ
    Blend: AUG-CC-PVTZ
  Basis Set: (AUG-CC-PVTZ AUX)
    Blend: AUG-CC-PVTZ-JKFIT
	 Reference Energy          =    -287.2807723343524913 [Eh]
	 Singles Energy            =      -0.0000000000000000 [Eh]
	 Same-Spin Energy          =      -0.2927162432452732 [Eh]
	 Opposite-Spin Energy      =      -1.0012574062991317 [Eh]
	 Correlation Energy        =      -1.2939736495444050 [Eh]
	 Total Energy              =    -288.5747459838968894 [Eh]

	 ================> DF-SCS-MP2 Energies <==================
	-----------------------------------------------------------
	 SCS Same-Spin Scale       =       0.3333333333333333 [-]
	 SCS Opposite-Spin Scale   =       1.2000000000000000 [-]
	 SCS Same-Spin Energy      =      -0.0975720810817577 [Eh]
	 SCS Opposite-Spin Energy  =      -1.2015088875589581 [Eh]
	 SCS Correlation Energy    =      -1.2990809686407159 [Eh]
	 SCS Total Energy          =    -288.5798533029932287 [Eh]
	-----------------------------------------------------------

  Dipole Moment: [D]
     X:     0.6961      Y:    -1.2554      Z:     0.6191     Total:     1.5632

*** Psi4 exiting successfully. Buy a developer a beer!
