                               Psi4 1.4a3.dev225

  ==> Input File <==

--------------------------------------------------------------------------
#psi4
#
memory 32 gb

molecule  {
0 1
  O        0.5491460     1.6657540    -0.0835270
  N       -2.2770200    -0.8249540    -0.1044150
  C       -0.0231050     0.3654990    -0.2814520
  C        0.8255614    -0.6950965     0.3557082
  C       -1.4804950     0.3645050     0.1924430
  C        2.2653620    -0.7289500    -0.1466730
  H       -0.0068980     0.2268130    -1.3706510
  H        0.8244310    -0.5451890     1.4596650
  H        0.3655990    -1.6940980     0.2090450
  H       -1.4956300     0.5168070     1.2806640
  H       -1.9758410     1.2324740    -0.2546010
  H        2.8643550    -1.4881460     0.3640660
  H        2.7338870     0.2452880     0.0032600
  H        2.2845280    -0.9484100    -1.2186000
  H       -1.8677700    -1.6459920     0.3360700
  H       -2.2749210    -1.0002390    -1.1082240
  H        0.5361330     1.8319630     0.8766110
units angstrom
no_reorient  #important for SAPT in psi4, default
symmetry c1  #important for SAPT in psi4, default
}

set PROPERTIES_ORIGIN ["COM"]
properties('MP2/aug-cc-pvtz', properties = ['dipole'])
--------------------------------------------------------------------------

    Molecular point group: c1
  Charge       = 0
  Multiplicity = 1
  Basis Set: AUG-CC-PVTZ
    Blend: AUG-CC-PVTZ
  Basis Set: (AUG-CC-PVTZ AUX)
    Blend: AUG-CC-PVTZ-JKFIT

    Orbital Energies [Eh]
    ---------------------

    Doubly Occupied:

       1A    -20.558830     2A    -15.547808     3A    -11.277329
       4A    -11.251105     5A    -11.228929     6A    -11.214642
       7A     -1.359104     8A     -1.183125     9A     -1.056588
      10A     -0.958940    11A     -0.864351    12A     -0.803768
      13A     -0.676594    14A     -0.658519    15A     -0.644100
      16A     -0.634279    17A     -0.580247    18A     -0.556356
      19A     -0.543386    20A     -0.521837    21A     -0.501460
      22A     -0.483346    23A     -0.480283    24A     -0.457312
      25A     -0.388324

  @DF-RHF Final Energy:  -287.28558812695206

   => Energetics <=

    Nuclear Repulsion Energy =            260.0393237326523490
    One-Electron Energy =                -905.7886981478101234
    Two-Electron Energy =                 358.4637862882056538
    Total Energy =                       -287.2855881269520637
  Basis Set: (AUG-CC-PVTZ AUX)
    Blend: AUG-CC-PVTZ-RI
    Molecular point group: c1

    Geometry (in Angstrom), charge = 0, multiplicity = 1:

       Center              X                  Y                   Z               Mass
    ------------   -----------------  -----------------  -----------------  -----------------
         O            0.572162767804     1.626814553030    -0.074816111198    15.994914619570
         N           -2.254003232196    -0.863893446970    -0.095704111198    14.003074004430
         C           -0.000088232196     0.326559553030    -0.272741111198    12.000000000000
         C            0.848578167804    -0.734035946970     0.364419088802    12.000000000000
         C           -1.457478232196     0.325565553030     0.201153888802    12.000000000000
         C            2.288378767804    -0.767889446970    -0.137962111198    12.000000000000
         H            0.016118767804     0.187873553030    -1.361940111198     1.007825032230
         H            0.847447767804    -0.584128446970     1.468375888802     1.007825032230
         H            0.388615767804    -1.733037446970     0.217755888802     1.007825032230
         H           -1.472613232196     0.477867553030     1.289374888802     1.007825032230
         H           -1.952824232196     1.193534553030    -0.245890111198     1.007825032230
         H            2.887371767804    -1.527085446970     0.372776888802     1.007825032230
         H            2.756903767804     0.206348553030     0.011970888802     1.007825032230
         H            2.307544767804    -0.987349446970    -1.209889111198     1.007825032230
         H           -1.844753232196    -1.684931446970     0.344780888802     1.007825032230
         H           -2.251904232196    -1.039178446970    -1.099513111198     1.007825032230
         H            0.559149767804     1.793023553030     0.885321888802     1.007825032230

  Basis Set: AUG-CC-PVTZ
    Blend: AUG-CC-PVTZ
  Basis Set: (AUG-CC-PVTZ AUX)
    Blend: AUG-CC-PVTZ-JKFIT
	 Reference Energy          =    -287.2855881269520637 [Eh]
	 Singles Energy            =      -0.0000000000000000 [Eh]
	 Same-Spin Energy          =      -0.2929515309261705 [Eh]
	 Opposite-Spin Energy      =      -1.0019878122813912 [Eh]
	 Correlation Energy        =      -1.2949393432075618 [Eh]
	 Total Energy              =    -288.5805274701596090 [Eh]

	 ================> DF-SCS-MP2 Energies <==================
	-----------------------------------------------------------
	 SCS Same-Spin Scale       =       0.3333333333333333 [-]
	 SCS Opposite-Spin Scale   =       1.2000000000000000 [-]
	 SCS Same-Spin Energy      =      -0.0976505103087235 [Eh]
	 SCS Opposite-Spin Energy  =      -1.2023853747376694 [Eh]
	 SCS Correlation Energy    =      -1.3000358850463929 [Eh]
	 SCS Total Energy          =    -288.5856240119984477 [Eh]
	-----------------------------------------------------------

  Dipole Moment: [D]
     X:     0.7242      Y:    -1.3106      Z:     0.6226     Total:     1.6217

*** Psi4 exiting successfully. Buy a developer a beer!
