                               Psi4 1.4a3.dev225

  ==> Input File <==

--------------------------------------------------------------------------
#psi4
#
memory 32 gb

molecule  {
0 1
  O        0.5491460     1.6657540    -0.0835270
  N       -2.2770200    -0.8249540    -0.1044150
  C       -0.0231050     0.3654990    -0.2814520
  C        0.8312550    -0.7148260     0.3726500
  C       -1.4804950     0.3645050     0.1924430
  C        2.2653620    -0.7289500    -0.1466730
  H       -0.0054221     0.2141835    -1.4698393
  H        0.8244310    -0.5451890     1.4596650
  H        0.3655990    -1.6940980     0.2090450
  H       -1.4956300     0.5168070     1.2806640
  H       -1.9758410     1.2324740    -0.2546010
  H        2.8643550    -1.4881460     0.3640660
  H        2.7338870     0.2452880     0.0032600
  H        2.2845280    -0.9484100    -1.2186000
  H       -1.8677700    -1.6459920     0.3360700
  H       -2.2749210    -1.0002390    -1.1082240
  H        0.5361330     1.8319630     0.8766110
units angstrom
no_reorient  #important for SAPT in psi4, default
symmetry c1  #important for SAPT in psi4, default
}

set PROPERTIES_ORIGIN ["COM"]
properties('MP2/aug-cc-pvtz', properties = ['dipole'])
--------------------------------------------------------------------------

    Molecular point group: c1
  Charge       = 0
  Multiplicity = 1
  Basis Set: AUG-CC-PVTZ
    Blend: AUG-CC-PVTZ
  Basis Set: (AUG-CC-PVTZ AUX)
    Blend: AUG-CC-PVTZ-JKFIT

    Orbital Energies [Eh]
    ---------------------

    Doubly Occupied:

       1A    -20.560840     2A    -15.547743     3A    -11.290588
       4A    -11.251989     5A    -11.228934     6A    -11.214435
       7A     -1.359840     8A     -1.182892     9A     -1.053581
      10A     -0.956375    11A     -0.862709    12A     -0.796790
      13A     -0.676467    14A     -0.658900    15A     -0.642364
      16A     -0.632225    17A     -0.580109    18A     -0.554791
      19A     -0.542035    20A     -0.518896    21A     -0.502761
      22A     -0.487737    23A     -0.477203    24A     -0.451102
      25A     -0.388408

  @DF-RHF Final Energy:  -287.28003499869192

   => Energetics <=

    Nuclear Repulsion Energy =            259.2287640984965833
    One-Electron Energy =                -904.1781646361351932
    Two-Electron Energy =                 357.6693655389467494
    Total Energy =                       -287.2800349986919173
  Basis Set: (AUG-CC-PVTZ AUX)
    Blend: AUG-CC-PVTZ-RI
    Molecular point group: c1

    Geometry (in Angstrom), charge = 0, multiplicity = 1:

       Center              X                  Y                   Z               Mass
    ------------   -----------------  -----------------  -----------------  -----------------
         O            0.571379118677     1.629615080028    -0.075976107091    15.994914619570
         N           -2.254786881323    -0.861092919972    -0.096864107091    14.003074004430
         C           -0.000871881323     0.329360080028    -0.273901107091    12.000000000000
         C            0.853488118677    -0.750964919972     0.380200892909    12.000000000000
         C           -1.458261881323     0.328366080028     0.199993892909    12.000000000000
         C            2.287595118677    -0.765088919972    -0.139122107091    12.000000000000
         H            0.016811018677     0.178044580028    -1.462288407091     1.007825032230
         H            0.846664118677    -0.581327919972     1.467215892909     1.007825032230
         H            0.387832118677    -1.730236919972     0.216595892909     1.007825032230
         H           -1.473396881323     0.480668080028     1.288214892909     1.007825032230
         H           -1.953607881323     1.196335080028    -0.247050107091     1.007825032230
         H            2.886588118677    -1.524284919972     0.371616892909     1.007825032230
         H            2.756120118677     0.209149080028     0.010810892909     1.007825032230
         H            2.306761118677    -0.984548919972    -1.211049107091     1.007825032230
         H           -1.845536881323    -1.682130919972     0.343620892909     1.007825032230
         H           -2.252687881323    -1.036377919972    -1.100673107091     1.007825032230
         H            0.558366118677     1.795824080028     0.884161892909     1.007825032230

  Basis Set: AUG-CC-PVTZ
    Blend: AUG-CC-PVTZ
  Basis Set: (AUG-CC-PVTZ AUX)
    Blend: AUG-CC-PVTZ-JKFIT
	 Reference Energy          =    -287.2800349986919173 [Eh]
	 Singles Energy            =      -0.0000000000000000 [Eh]
	 Same-Spin Energy          =      -0.2929214166630069 [Eh]
	 Opposite-Spin Energy      =      -1.0026348289624631 [Eh]
	 Correlation Energy        =      -1.2955562456254701 [Eh]
	 Total Energy              =    -288.5755912443173656 [Eh]

	 ================> DF-SCS-MP2 Energies <==================
	-----------------------------------------------------------
	 SCS Same-Spin Scale       =       0.3333333333333333 [-]
	 SCS Opposite-Spin Scale   =       1.2000000000000000 [-]
	 SCS Same-Spin Energy      =      -0.0976404722210023 [Eh]
	 SCS Opposite-Spin Energy  =      -1.2031617947549558 [Eh]
	 SCS Correlation Energy    =      -1.3008022669759580 [Eh]
	 SCS Total Energy          =    -288.5808372656678671 [Eh]
	-----------------------------------------------------------

  Dipole Moment: [D]
     X:     0.7276      Y:    -1.2818      Z:     0.7035     Total:     1.6332

*** Psi4 exiting successfully. Buy a developer a beer!
