                               Psi4 1.4a3.dev225

  ==> Input File <==

--------------------------------------------------------------------------
#psi4
#
memory 32 gb

molecule  {
0 1
  O        0.5491460     1.6657540    -0.0835270
  N       -2.2770200    -0.8249540    -0.1044150
  C       -0.0231050     0.3654990    -0.2814520
  C        0.8312550    -0.7148260     0.3726500
  C       -1.4959933     0.3573626     0.1417464
  C        2.2653620    -0.7289500    -0.1466730
  H       -0.0068980     0.2268130    -1.3706510
  H        0.8244310    -0.5451890     1.4596650
  H        0.3655990    -1.6940980     0.2090450
  H       -1.4956300     0.5168070     1.2806640
  H       -1.9758410     1.2324740    -0.2546010
  H        2.8643550    -1.4881460     0.3640660
  H        2.7338870     0.2452880     0.0032600
  H        2.2845280    -0.9484100    -1.2186000
  H       -1.8677700    -1.6459920     0.3360700
  H       -2.2749210    -1.0002390    -1.1082240
  H        0.5361330     1.8319630     0.8766110
units angstrom
no_reorient  #important for SAPT in psi4, default
symmetry c1  #important for SAPT in psi4, default
}

set PROPERTIES_ORIGIN ["COM"]
properties('MP2/aug-cc-pvtz', properties = ['dipole'])
--------------------------------------------------------------------------

    Molecular point group: c1
  Charge       = 0
  Multiplicity = 1
  Basis Set: AUG-CC-PVTZ
    Blend: AUG-CC-PVTZ
  Basis Set: (AUG-CC-PVTZ AUX)
    Blend: AUG-CC-PVTZ-JKFIT

    Orbital Energies [Eh]
    ---------------------

    Doubly Occupied:

       1A    -20.559522     2A    -15.549149     3A    -11.277909
       4A    -11.252401     5A    -11.228016     6A    -11.214437
       7A     -1.358456     8A     -1.191011     9A     -1.054314
      10A     -0.957693    11A     -0.862269    12A     -0.803333
      13A     -0.679793    14A     -0.657952    15A     -0.644857
      16A     -0.635047    17A     -0.582561    18A     -0.561983
      19A     -0.541057    20A     -0.516365    21A     -0.500333
      22A     -0.488388    23A     -0.480076    24A     -0.451684
      25A     -0.388165

  @DF-RHF Final Energy:  -287.28314090401608

   => Energetics <=

    Nuclear Repulsion Energy =            259.8085390388228006
    One-Electron Energy =                -905.3098193583742841
    Two-Electron Energy =                 358.2181394155354042
    Total Energy =                       -287.2831409040160793
  Basis Set: (AUG-CC-PVTZ AUX)
    Blend: AUG-CC-PVTZ-RI
    Molecular point group: c1

    Geometry (in Angstrom), charge = 0, multiplicity = 1:

       Center              X                  Y                   Z               Mass
    ------------   -----------------  -----------------  -----------------  -----------------
         O            0.573483502341     1.630434311555    -0.070269196947    15.994914619570
         N           -2.252682497659    -0.860273688445    -0.091157196947    14.003074004430
         C            0.001232502341     0.330179311555    -0.268194196947    12.000000000000
         C            0.855592502341    -0.750145688445     0.385907803053    12.000000000000
         C           -1.471655797659     0.322042911555     0.155004203053    12.000000000000
         C            2.289699502341    -0.764269688445    -0.133415196947    12.000000000000
         H            0.017439502341     0.191493311555    -1.357393196947     1.007825032230
         H            0.848768502341    -0.580508688445     1.472922803053     1.007825032230
         H            0.389936502341    -1.729417688445     0.222302803053     1.007825032230
         H           -1.471292497659     0.481487311555     1.293921803053     1.007825032230
         H           -1.951503497659     1.197154311555    -0.241343196947     1.007825032230
         H            2.888692502341    -1.523465688445     0.377323803053     1.007825032230
         H            2.758224502341     0.209968311555     0.016517803053     1.007825032230
         H            2.308865502341    -0.983729688445    -1.205342196947     1.007825032230
         H           -1.843432497659    -1.681311688445     0.349327803053     1.007825032230
         H           -2.250583497659    -1.035558688445    -1.094966196947     1.007825032230
         H            0.560470502341     1.796643311555     0.889868803053     1.007825032230

  Basis Set: AUG-CC-PVTZ
    Blend: AUG-CC-PVTZ
  Basis Set: (AUG-CC-PVTZ AUX)
    Blend: AUG-CC-PVTZ-JKFIT
	 Reference Energy          =    -287.2831409040160793 [Eh]
	 Singles Energy            =      -0.0000000000000000 [Eh]
	 Same-Spin Energy          =      -0.2930087769574630 [Eh]
	 Opposite-Spin Energy      =      -1.0019998021455039 [Eh]
	 Correlation Energy        =      -1.2950085791029669 [Eh]
	 Total Energy              =    -288.5781494831190344 [Eh]

	 ================> DF-SCS-MP2 Energies <==================
	-----------------------------------------------------------
	 SCS Same-Spin Scale       =       0.3333333333333333 [-]
	 SCS Opposite-Spin Scale   =       1.2000000000000000 [-]
	 SCS Same-Spin Energy      =      -0.0976695923191543 [Eh]
	 SCS Opposite-Spin Energy  =      -1.2023997625746046 [Eh]
	 SCS Correlation Energy    =      -1.3000693548937590 [Eh]
	 SCS Total Energy          =    -288.5832102589098440 [Eh]
	-----------------------------------------------------------

  Dipole Moment: [D]
     X:     0.6786      Y:    -1.3494      Z:     0.5681     Total:     1.6138

*** Psi4 exiting successfully. Buy a developer a beer!
