                               Psi4 1.4a3.dev225

  ==> Input File <==

--------------------------------------------------------------------------
#psi4
#
memory 32 gb

molecule  {
0 1
  O        0.5491460     1.6657540    -0.0835270
  N       -2.2770200    -0.8249540    -0.1044150
  C       -0.0231050     0.3654990    -0.2814520
  C        0.8312550    -0.7148260     0.3726500
  C       -1.5151799     0.3411496     0.3396475
  C        2.2653620    -0.7289500    -0.1466730
  H       -0.0068980     0.2268130    -1.3706510
  H        0.8244310    -0.5451890     1.4596650
  H        0.3655990    -1.6940980     0.2090450
  H       -1.4956300     0.5168070     1.2806640
  H       -1.9758410     1.2324740    -0.2546010
  H        2.8643550    -1.4881460     0.3640660
  H        2.7338870     0.2452880     0.0032600
  H        2.2845280    -0.9484100    -1.2186000
  H       -1.8677700    -1.6459920     0.3360700
  H       -2.2749210    -1.0002390    -1.1082240
  H        0.5361330     1.8319630     0.8766110
units angstrom
no_reorient  #important for SAPT in psi4, default
symmetry c1  #important for SAPT in psi4, default
}

set PROPERTIES_ORIGIN ["COM"]
properties('MP2/aug-cc-pvtz', properties = ['dipole'])
--------------------------------------------------------------------------

    Molecular point group: c1
  Charge       = 0
  Multiplicity = 1
  Basis Set: AUG-CC-PVTZ
    Blend: AUG-CC-PVTZ
  Basis Set: (AUG-CC-PVTZ AUX)
    Blend: AUG-CC-PVTZ-JKFIT

    Orbital Energies [Eh]
    ---------------------

    Doubly Occupied:

       1A    -20.557645     2A    -15.546635     3A    -11.280792
       4A    -11.250683     5A    -11.225443     6A    -11.212954
       7A     -1.356300     8A     -1.180004     9A     -1.051535
      10A     -0.950685    11A     -0.870107    12A     -0.809027
      13A     -0.676055    14A     -0.655048    15A     -0.642977
      16A     -0.624967    17A     -0.596480    18A     -0.560543
      19A     -0.539297    20A     -0.532419    21A     -0.491963
      22A     -0.486792    23A     -0.481118    24A     -0.452774
      25A     -0.369919

  @DF-RHF Final Energy:  -287.25759655564411

   => Energetics <=

    Nuclear Repulsion Energy =            258.8356360948804991
    One-Electron Energy =                -903.3821387018673477
    Two-Electron Energy =                 357.2889060513427921
    Total Energy =                       -287.2575965556441133
  Basis Set: (AUG-CC-PVTZ AUX)
    Blend: AUG-CC-PVTZ-RI
    Molecular point group: c1

    Geometry (in Angstrom), charge = 0, multiplicity = 1:

       Center              X                  Y                   Z               Mass
    ------------   -----------------  -----------------  -----------------  -----------------
         O            0.576068018468     1.632618271191    -0.096927311698    15.994914619570
         N           -2.250097981532    -0.858089728809    -0.117815311698    14.003074004430
         C            0.003817018468     0.332363271191    -0.294852311698    12.000000000000
         C            0.858177018468    -0.747961728809     0.359249688302    12.000000000000
         C           -1.488257881532     0.308013871191     0.326247188302    12.000000000000
         C            2.292284018468    -0.762085728809    -0.160073311698    12.000000000000
         H            0.020024018468     0.193677271191    -1.384051311698     1.007825032230
         H            0.851353018468    -0.578324728809     1.446264688302     1.007825032230
         H            0.392521018468    -1.727233728809     0.195644688302     1.007825032230
         H           -1.468707981532     0.483671271191     1.267263688302     1.007825032230
         H           -1.948918981532     1.199338271191    -0.268001311698     1.007825032230
         H            2.891277018468    -1.521281728809     0.350665688302     1.007825032230
         H            2.760809018468     0.212152271191    -0.010140311698     1.007825032230
         H            2.311450018468    -0.981545728809    -1.232000311698     1.007825032230
         H           -1.840847981532    -1.679127728809     0.322669688302     1.007825032230
         H           -2.247998981532    -1.033374728809    -1.121624311698     1.007825032230
         H            0.563055018468     1.798827271191     0.863210688302     1.007825032230

  Basis Set: AUG-CC-PVTZ
    Blend: AUG-CC-PVTZ
  Basis Set: (AUG-CC-PVTZ AUX)
    Blend: AUG-CC-PVTZ-JKFIT
	 Reference Energy          =    -287.2575965556441133 [Eh]
	 Singles Energy            =      -0.0000000000000000 [Eh]
	 Same-Spin Energy          =      -0.2928287279049595 [Eh]
	 Opposite-Spin Energy      =      -1.0028491006614009 [Eh]
	 Correlation Energy        =      -1.2956778285663604 [Eh]
	 Total Energy              =    -288.5532743842104537 [Eh]

	 ================> DF-SCS-MP2 Energies <==================
	-----------------------------------------------------------
	 SCS Same-Spin Scale       =       0.3333333333333333 [-]
	 SCS Opposite-Spin Scale   =       1.2000000000000000 [-]
	 SCS Same-Spin Energy      =      -0.0976095759683198 [Eh]
	 SCS Opposite-Spin Energy  =      -1.2034189207936810 [Eh]
	 SCS Correlation Energy    =      -1.3010284967620007 [Eh]
	 SCS Total Energy          =    -288.5586250524061143 [Eh]
	-----------------------------------------------------------

  Dipole Moment: [D]
     X:     0.7015      Y:    -1.2973      Z:     0.7283     Total:     1.6448

*** Psi4 exiting successfully. Buy a developer a beer!
