                               Psi4 1.4a3.dev225

  ==> Input File <==

--------------------------------------------------------------------------
#psi4
#
memory 32 gb

molecule  {
0 1
  O        0.5491460     1.6657540    -0.0835270
  N       -2.2770200    -0.8249540    -0.1044150
  C       -0.0231050     0.3654990    -0.2814520
  C        0.8312550    -0.7148260     0.3726500
  C       -1.4804950     0.3645050     0.1924430
  C        2.2653620    -0.7289500    -0.1466730
  H       -0.0068980     0.2268130    -1.3706510
  H        0.8244310    -0.5451890     1.4596650
  H        0.4080618    -1.6047989     0.2239640
  H       -1.4956300     0.5168070     1.2806640
  H       -1.9758410     1.2324740    -0.2546010
  H        2.8643550    -1.4881460     0.3640660
  H        2.7338870     0.2452880     0.0032600
  H        2.2845280    -0.9484100    -1.2186000
  H       -1.8677700    -1.6459920     0.3360700
  H       -2.2749210    -1.0002390    -1.1082240
  H        0.5361330     1.8319630     0.8766110
units angstrom
no_reorient  #important for SAPT in psi4, default
symmetry c1  #important for SAPT in psi4, default
}

set PROPERTIES_ORIGIN ["COM"]
properties('MP2/aug-cc-pvtz', properties = ['dipole'])
--------------------------------------------------------------------------

    Molecular point group: c1
  Charge       = 0
  Multiplicity = 1
  Basis Set: AUG-CC-PVTZ
    Blend: AUG-CC-PVTZ
  Basis Set: (AUG-CC-PVTZ AUX)
    Blend: AUG-CC-PVTZ-JKFIT

    Orbital Energies [Eh]
    ---------------------

    Doubly Occupied:

       1A    -20.557889     2A    -15.548514     3A    -11.277274
       4A    -11.250708     5A    -11.214822     6A    -11.213250
       7A     -1.357575     8A     -1.183485     9A     -1.059318
      10A     -0.957899    11A     -0.865895    12A     -0.809728
      13A     -0.679663    14A     -0.658057    15A     -0.650518
      16A     -0.632438    17A     -0.581391    18A     -0.555888
      19A     -0.543478    20A     -0.520691    21A     -0.504268
      22A     -0.492792    23A     -0.481696    24A     -0.452765
      25A     -0.388016

  @DF-RHF Final Energy:  -287.28083209065960

   => Energetics <=

    Nuclear Repulsion Energy =            260.1820382850641522
    One-Electron Energy =                -906.0497026794055273
    Two-Electron Energy =                 358.5868323036817173
    Total Energy =                       -287.2808320906596009
  Basis Set: (AUG-CC-PVTZ AUX)
    Blend: AUG-CC-PVTZ-RI
    Molecular point group: c1

    Geometry (in Angstrom), charge = 0, multiplicity = 1:

       Center              X                  Y                   Z               Mass
    ------------   -----------------  -----------------  -----------------  -----------------
         O            0.570915426048     1.628461942306    -0.077267024772    15.994914619570
         N           -2.255250573952    -0.862246057694    -0.098155024772    14.003074004430
         C           -0.001335573952     0.328206942306    -0.275192024772    12.000000000000
         C            0.853024426048    -0.752118057694     0.378909975228    12.000000000000
         C           -1.458725573952     0.327212942306     0.198702975228    12.000000000000
         C            2.287131426048    -0.766242057694    -0.140413024772    12.000000000000
         H            0.014871426048     0.189520942306    -1.364391024772     1.007825032230
         H            0.846200426048    -0.582481057694     1.465924975228     1.007825032230
         H            0.429831226048    -1.642090957694     0.230223975228     1.007825032230
         H           -1.473860573952     0.479514942306     1.286923975228     1.007825032230
         H           -1.954071573952     1.195181942306    -0.248341024772     1.007825032230
         H            2.886124426048    -1.525438057694     0.370325975228     1.007825032230
         H            2.755656426048     0.207995942306     0.009519975228     1.007825032230
         H            2.306297426048    -0.985702057694    -1.212340024772     1.007825032230
         H           -1.846000573952    -1.683284057694     0.342329975228     1.007825032230
         H           -2.253151573952    -1.037531057694    -1.101964024772     1.007825032230
         H            0.557902426048     1.794670942306     0.882870975228     1.007825032230

  Basis Set: AUG-CC-PVTZ
    Blend: AUG-CC-PVTZ
  Basis Set: (AUG-CC-PVTZ AUX)
    Blend: AUG-CC-PVTZ-JKFIT
	 Reference Energy          =    -287.2808320906596009 [Eh]
	 Singles Energy            =      -0.0000000000000000 [Eh]
	 Same-Spin Energy          =      -0.2927091080551093 [Eh]
	 Opposite-Spin Energy      =      -1.0012411162240176 [Eh]
	 Correlation Energy        =      -1.2939502242791270 [Eh]
	 Total Energy              =    -288.5747823149387159 [Eh]

	 ================> DF-SCS-MP2 Energies <==================
	-----------------------------------------------------------
	 SCS Same-Spin Scale       =       0.3333333333333333 [-]
	 SCS Opposite-Spin Scale   =       1.2000000000000000 [-]
	 SCS Same-Spin Energy      =      -0.0975697026850364 [Eh]
	 SCS Opposite-Spin Energy  =      -1.2014893394688211 [Eh]
	 SCS Correlation Energy    =      -1.2990590421538575 [Eh]
	 SCS Total Energy          =    -288.5798911328134864 [Eh]
	-----------------------------------------------------------

  Dipole Moment: [D]
     X:     0.6795      Y:    -1.3555      Z:     0.6304     Total:     1.6421

*** Psi4 exiting successfully. Buy a developer a beer!
