                               Psi4 1.4a3.dev225

  ==> Input File <==

--------------------------------------------------------------------------
#psi4
#
memory 32 gb

molecule  {
0 1
  O        0.5491460     1.6657540    -0.0835270
  N       -2.2770200    -0.8249540    -0.1044150
  C       -0.0231050     0.3654990    -0.2814520
  C        0.8312550    -0.7148260     0.3726500
  C       -1.4804950     0.3645050     0.1924430
  C        2.2653620    -0.7289500    -0.1466730
  H       -0.0068980     0.2268130    -1.3706510
  H        0.8244310    -0.5451890     1.4596650
  H        0.3655990    -1.6940980     0.2090450
  H       -1.4956300     0.5168070     1.2806640
  H       -2.0663317     1.3910362    -0.3362678
  H        2.8643550    -1.4881460     0.3640660
  H        2.7338870     0.2452880     0.0032600
  H        2.2845280    -0.9484100    -1.2186000
  H       -1.8677700    -1.6459920     0.3360700
  H       -2.2749210    -1.0002390    -1.1082240
  H        0.5361330     1.8319630     0.8766110
units angstrom
no_reorient  #important for SAPT in psi4, default
symmetry c1  #important for SAPT in psi4, default
}

set PROPERTIES_ORIGIN ["COM"]
properties('MP2/aug-cc-pvtz', properties = ['dipole'])
--------------------------------------------------------------------------

    Molecular point group: c1
  Charge       = 0
  Multiplicity = 1
  Basis Set: AUG-CC-PVTZ
    Blend: AUG-CC-PVTZ
  Basis Set: (AUG-CC-PVTZ AUX)
    Blend: AUG-CC-PVTZ-JKFIT

    Orbital Energies [Eh]
    ---------------------

    Doubly Occupied:

       1A    -20.558913     2A    -15.550694     3A    -11.280625
       4A    -11.273469     5A    -11.229712     6A    -11.215679
       7A     -1.358532     8A     -1.183638     9A     -1.055948
      10A     -0.954859    11A     -0.854426    12A     -0.804851
      13A     -0.670245    14A     -0.658535    15A     -0.645262
      16A     -0.633427    17A     -0.580540    18A     -0.550559
      19A     -0.540062    20A     -0.522722    21A     -0.490251
      22A     -0.489784    23A     -0.475120    24A     -0.451396
      25A     -0.387772

  @DF-RHF Final Energy:  -287.26629924516919

   => Energetics <=

    Nuclear Repulsion Energy =            258.8502742376418837
    One-Electron Energy =                -903.3991064065410228
    Two-Electron Energy =                 357.2825329237299457
    Total Energy =                       -287.2662992451691935
  Basis Set: (AUG-CC-PVTZ AUX)
    Blend: AUG-CC-PVTZ-RI
    Molecular point group: c1

    Geometry (in Angstrom), charge = 0, multiplicity = 1:

       Center              X                  Y                   Z               Mass
    ------------   -----------------  -----------------  -----------------  -----------------
         O            0.572419554389     1.627678355625    -0.076174331167    15.994914619570
         N           -2.253746445611    -0.863029644375    -0.097062331167    14.003074004430
         C            0.000168554389     0.327423355625    -0.274099331167    12.000000000000
         C            0.854528554389    -0.752901644375     0.380002668833    12.000000000000
         C           -1.457221445611     0.326429355625     0.199795668833    12.000000000000
         C            2.288635554389    -0.767025644375    -0.139320331167    12.000000000000
         H            0.016375554389     0.188737355625    -1.363298331167     1.007825032230
         H            0.847704554389    -0.583264644375     1.467017668833     1.007825032230
         H            0.388872554389    -1.732173644375     0.216397668833     1.007825032230
         H           -1.472356445611     0.478731355625     1.288016668833     1.007825032230
         H           -2.043058145611     1.352960555625    -0.328915131167     1.007825032230
         H            2.887628554389    -1.526221644375     0.371418668833     1.007825032230
         H            2.757160554389     0.207212355625     0.010612668833     1.007825032230
         H            2.307801554389    -0.986485644375    -1.211247331167     1.007825032230
         H           -1.844496445611    -1.684067644375     0.343422668833     1.007825032230
         H           -2.251647445611    -1.038314644375    -1.100871331167     1.007825032230
         H            0.559406554389     1.793887355625     0.883963668833     1.007825032230

  Basis Set: AUG-CC-PVTZ
    Blend: AUG-CC-PVTZ
  Basis Set: (AUG-CC-PVTZ AUX)
    Blend: AUG-CC-PVTZ-JKFIT
	 Reference Energy          =    -287.2662992451691935 [Eh]
	 Singles Energy            =      -0.0000000000000000 [Eh]
	 Same-Spin Energy          =      -0.2929683097476383 [Eh]
	 Opposite-Spin Energy      =      -1.0035891513063835 [Eh]
	 Correlation Energy        =      -1.2965574610540218 [Eh]
	 Total Energy              =    -288.5628567062232150 [Eh]

	 ================> DF-SCS-MP2 Energies <==================
	-----------------------------------------------------------
	 SCS Same-Spin Scale       =       0.3333333333333333 [-]
	 SCS Opposite-Spin Scale   =       1.2000000000000000 [-]
	 SCS Same-Spin Energy      =      -0.0976561032492128 [Eh]
	 SCS Opposite-Spin Energy  =      -1.2043069815676601 [Eh]
	 SCS Correlation Energy    =      -1.3019630848168728 [Eh]
	 SCS Total Energy          =    -288.5682623299860552 [Eh]
	-----------------------------------------------------------

  Dipole Moment: [D]
     X:     0.8017      Y:    -1.4403      Z:     0.6606     Total:     1.7758

*** Psi4 exiting successfully. Buy a developer a beer!
