                               Psi4 1.4a3.dev225

  ==> Input File <==

--------------------------------------------------------------------------
#psi4
#
memory 32 gb

molecule  {
0 1
  O        0.5491460     1.6657540    -0.0835270
  N       -2.2770200    -0.8249540    -0.1044150
  C       -0.0231050     0.3654990    -0.2814520
  C        0.8312550    -0.7148260     0.3726500
  C       -1.4804950     0.3645050     0.1924430
  C        2.2653620    -0.7289500    -0.1466730
  H       -0.0098498     0.2520720    -1.1722744
  H        0.8244310    -0.5451890     1.4596650
  H        0.3655990    -1.6940980     0.2090450
  H       -1.4956300     0.5168070     1.2806640
  H       -1.9758410     1.2324740    -0.2546010
  H        2.8643550    -1.4881460     0.3640660
  H        2.7338870     0.2452880     0.0032600
  H        2.2845280    -0.9484100    -1.2186000
  H       -1.8677700    -1.6459920     0.3360700
  H       -2.2749210    -1.0002390    -1.1082240
  H        0.5361330     1.8319630     0.8766110
units angstrom
no_reorient  #important for SAPT in psi4, default
symmetry c1  #important for SAPT in psi4, default
}

set PROPERTIES_ORIGIN ["COM"]
properties('MP2/aug-cc-pvtz', properties = ['dipole'])
--------------------------------------------------------------------------

    Molecular point group: c1
  Charge       = 0
  Multiplicity = 1
  Basis Set: AUG-CC-PVTZ
    Blend: AUG-CC-PVTZ
  Basis Set: (AUG-CC-PVTZ AUX)
    Blend: AUG-CC-PVTZ-JKFIT

    Orbital Energies [Eh]
    ---------------------

    Doubly Occupied:

       1A    -20.556490     2A    -15.547998     3A    -11.252209
       4A    -11.249087     5A    -11.225862     6A    -11.214253
       7A     -1.357724     8A     -1.183412     9A     -1.058773
      10A     -0.966652    11A     -0.865882    12A     -0.827774
      13A     -0.676870    14A     -0.657690    15A     -0.650671
      16A     -0.632025    17A     -0.584649    18A     -0.560416
      19A     -0.546109    20A     -0.524796    21A     -0.501181
      22A     -0.492523    23A     -0.483769    24A     -0.454432
      25A     -0.386774

  @DF-RHF Final Energy:  -287.25404403968969

   => Energetics <=

    Nuclear Repulsion Energy =            260.8528825927842831
    One-Electron Energy =                -907.2978145997265074
    Two-Electron Energy =                 359.1908879672525927
    Total Energy =                       -287.2540440396896884
  Basis Set: (AUG-CC-PVTZ AUX)
    Blend: AUG-CC-PVTZ-RI
    Molecular point group: c1

    Geometry (in Angstrom), charge = 0, multiplicity = 1:

       Center              X                  Y                   Z               Mass
    ------------   -----------------  -----------------  -----------------  -----------------
         O            0.571429210092     1.629186440190    -0.079342515644    15.994914619570
         N           -2.254736789908    -0.861521559810    -0.100230515644    14.003074004430
         C           -0.000821789908     0.328931440190    -0.277267515644    12.000000000000
         C            0.853538210092    -0.751393559810     0.376834484356    12.000000000000
         C           -1.458211789908     0.327937440190     0.196627484356    12.000000000000
         C            2.287645210092    -0.765517559810    -0.142488515644    12.000000000000
         H            0.012433410092     0.215504440190    -1.168089915644     1.007825032230
         H            0.846714210092    -0.581756559810     1.463849484356     1.007825032230
         H            0.387882210092    -1.730665559810     0.213229484356     1.007825032230
         H           -1.473346789908     0.480239440190     1.284848484356     1.007825032230
         H           -1.953557789908     1.195906440190    -0.250416515644     1.007825032230
         H            2.886638210092    -1.524713559810     0.368250484356     1.007825032230
         H            2.756170210092     0.208720440190     0.007444484356     1.007825032230
         H            2.306811210092    -0.984977559810    -1.214415515644     1.007825032230
         H           -1.845486789908    -1.682559559810     0.340254484356     1.007825032230
         H           -2.252637789908    -1.036806559810    -1.104039515644     1.007825032230
         H            0.558416210092     1.795395440190     0.880795484356     1.007825032230

  Basis Set: AUG-CC-PVTZ
    Blend: AUG-CC-PVTZ
  Basis Set: (AUG-CC-PVTZ AUX)
    Blend: AUG-CC-PVTZ-JKFIT
	 Reference Energy          =    -287.2540440396896884 [Eh]
	 Singles Energy            =      -0.0000000000000000 [Eh]
	 Same-Spin Energy          =      -0.2926124233326894 [Eh]
	 Opposite-Spin Energy      =      -1.0010492704153311 [Eh]
	 Correlation Energy        =      -1.2936616937480205 [Eh]
	 Total Energy              =    -288.5477057334376809 [Eh]

	 ================> DF-SCS-MP2 Energies <==================
	-----------------------------------------------------------
	 SCS Same-Spin Scale       =       0.3333333333333333 [-]
	 SCS Opposite-Spin Scale   =       1.2000000000000000 [-]
	 SCS Same-Spin Energy      =      -0.0975374744442298 [Eh]
	 SCS Opposite-Spin Energy  =      -1.2012591244983972 [Eh]
	 SCS Correlation Energy    =      -1.2987965989426271 [Eh]
	 SCS Total Energy          =    -288.5528406386322899 [Eh]
	-----------------------------------------------------------

  Dipole Moment: [D]
     X:     0.7049      Y:    -1.3307      Z:     0.5380     Total:     1.5991

*** Psi4 exiting successfully. Buy a developer a beer!
