                               Psi4 1.4a3.dev225

  ==> Input File <==

--------------------------------------------------------------------------
#psi4
#
memory 32 gb

molecule  {
0 1
  O        0.5491460     1.6657540    -0.0835270
  N       -2.2770200    -0.8249540    -0.1044150
  C       -0.0231050     0.3654990    -0.2814520
  C        0.9529834    -0.6595478     0.2854811
  C       -1.4804950     0.3645050     0.1924430
  C        2.2653620    -0.7289500    -0.1466730
  H       -0.0068980     0.2268130    -1.3706510
  H        0.8244310    -0.5451890     1.4596650
  H        0.3655990    -1.6940980     0.2090450
  H       -1.4956300     0.5168070     1.2806640
  H       -1.9758410     1.2324740    -0.2546010
  H        2.8643550    -1.4881460     0.3640660
  H        2.7338870     0.2452880     0.0032600
  H        2.2845280    -0.9484100    -1.2186000
  H       -1.8677700    -1.6459920     0.3360700
  H       -2.2749210    -1.0002390    -1.1082240
  H        0.5361330     1.8319630     0.8766110
units angstrom
no_reorient  #important for SAPT in psi4, default
symmetry c1  #important for SAPT in psi4, default
}

set PROPERTIES_ORIGIN ["COM"]
properties('MP2/aug-cc-pvtz', properties = ['dipole'])
--------------------------------------------------------------------------

    Molecular point group: c1
  Charge       = 0
  Multiplicity = 1
  Basis Set: AUG-CC-PVTZ
    Blend: AUG-CC-PVTZ
  Basis Set: (AUG-CC-PVTZ AUX)
    Blend: AUG-CC-PVTZ-JKFIT

    Orbital Energies [Eh]
    ---------------------

    Doubly Occupied:

       1A    -20.556656     2A    -15.548482     3A    -11.280165
       4A    -11.255373     5A    -11.238171     6A    -11.209826
       7A     -1.358529     8A     -1.183572     9A     -1.077169
      10A     -0.968232    11A     -0.863805    12A     -0.792789
      13A     -0.676966    14A     -0.659143    15A     -0.640863
      16A     -0.637232    17A     -0.589807    18A     -0.571573
      19A     -0.548121    20A     -0.529977    21A     -0.516468
      22A     -0.484651    23A     -0.447063    24A     -0.438209
      25A     -0.390890

  @DF-RHF Final Energy:  -287.25623930952997

   => Energetics <=

    Nuclear Repulsion Energy =            260.4759064493167671
    One-Electron Energy =                -906.5368218399763691
    Two-Electron Energy =                 358.8046760811296281
    Total Energy =                       -287.2562393095299740
  Basis Set: (AUG-CC-PVTZ AUX)
    Blend: AUG-CC-PVTZ-RI
    Molecular point group: c1

    Geometry (in Angstrom), charge = 0, multiplicity = 1:

       Center              X                  Y                   Z               Mass
    ------------   -----------------  -----------------  -----------------  -----------------
         O            0.554998485757     1.622025992866    -0.065356223959    15.994914619570
         N           -2.271167514243    -0.868682007134    -0.086244223959    14.003074004430
         C           -0.017252514243     0.321770992866    -0.263281223959    12.000000000000
         C            0.958835885757    -0.703275807134     0.303651876041    12.000000000000
         C           -1.474642514243     0.320776992866     0.210613776041    12.000000000000
         C            2.271214485757    -0.772678007134    -0.128502223959    12.000000000000
         H           -0.001045514243     0.183084992866    -1.352480223959     1.007825032230
         H            0.830283485757    -0.588917007134     1.477835776041     1.007825032230
         H            0.371451485757    -1.737826007134     0.227215776041     1.007825032230
         H           -1.489777514243     0.473078992866     1.298834776041     1.007825032230
         H           -1.969988514243     1.188745992866    -0.236430223959     1.007825032230
         H            2.870207485757    -1.531874007134     0.382236776041     1.007825032230
         H            2.739739485757     0.201559992866     0.021430776041     1.007825032230
         H            2.290380485757    -0.992138007134    -1.200429223959     1.007825032230
         H           -1.861917514243    -1.689720007134     0.354240776041     1.007825032230
         H           -2.269068514243    -1.043967007134    -1.090053223959     1.007825032230
         H            0.541985485757     1.788234992866     0.894781776041     1.007825032230

  Basis Set: AUG-CC-PVTZ
    Blend: AUG-CC-PVTZ
  Basis Set: (AUG-CC-PVTZ AUX)
    Blend: AUG-CC-PVTZ-JKFIT
	 Reference Energy          =    -287.2562393095299740 [Eh]
	 Singles Energy            =      -0.0000000000000000 [Eh]
	 Same-Spin Energy          =      -0.2944039018191079 [Eh]
	 Opposite-Spin Energy      =      -1.0041476624191912 [Eh]
	 Correlation Energy        =      -1.2985515642382990 [Eh]
	 Total Energy              =    -288.5547908737682974 [Eh]

	 ================> DF-SCS-MP2 Energies <==================
	-----------------------------------------------------------
	 SCS Same-Spin Scale       =       0.3333333333333333 [-]
	 SCS Opposite-Spin Scale   =       1.2000000000000000 [-]
	 SCS Same-Spin Energy      =      -0.0981346339397026 [Eh]
	 SCS Opposite-Spin Energy  =      -1.2049771949030295 [Eh]
	 SCS Correlation Energy    =      -1.3031118288427321 [Eh]
	 SCS Total Energy          =    -288.5593511383727332 [Eh]
	-----------------------------------------------------------

  Dipole Moment: [D]
     X:     0.7613      Y:    -1.2790      Z:     0.5454     Total:     1.5852

*** Psi4 exiting successfully. Buy a developer a beer!
