                               Psi4 1.4a3.dev225

  ==> Input File <==

--------------------------------------------------------------------------
#psi4
#
memory 32 gb

molecule  {
0 1
  O        0.5491460     1.6657540    -0.0835270
  N       -2.2770200    -0.8249540    -0.1044150
  C       -0.0231050     0.3654990    -0.2814520
  C        0.8312550    -0.7148260     0.3726500
  C       -1.5215898     0.3431161     0.0388687
  C        2.2653620    -0.7289500    -0.1466730
  H       -0.0068980     0.2268130    -1.3706510
  H        0.8244310    -0.5451890     1.4596650
  H        0.3655990    -1.6940980     0.2090450
  H       -1.4956300     0.5168070     1.2806640
  H       -1.9758410     1.2324740    -0.2546010
  H        2.8643550    -1.4881460     0.3640660
  H        2.7338870     0.2452880     0.0032600
  H        2.2845280    -0.9484100    -1.2186000
  H       -1.8677700    -1.6459920     0.3360700
  H       -2.2749210    -1.0002390    -1.1082240
  H        0.5361330     1.8319630     0.8766110
units angstrom
no_reorient  #important for SAPT in psi4, default
symmetry c1  #important for SAPT in psi4, default
}

set PROPERTIES_ORIGIN ["COM"]
properties('MP2/aug-cc-pvtz', properties = ['dipole'])
--------------------------------------------------------------------------

    Molecular point group: c1
  Charge       = 0
  Multiplicity = 1
  Basis Set: AUG-CC-PVTZ
    Blend: AUG-CC-PVTZ
  Basis Set: (AUG-CC-PVTZ AUX)
    Blend: AUG-CC-PVTZ-JKFIT

    Orbital Energies [Eh]
    ---------------------

    Doubly Occupied:

       1A    -20.560798     2A    -15.552923     3A    -11.279049
       4A    -11.258753     5A    -11.229162     6A    -11.214873
       7A     -1.358615     8A     -1.207543     9A     -1.054893
      10A     -0.958334    11A     -0.863047    12A     -0.801379
      13A     -0.686530    14A     -0.659072    15A     -0.646431
      16A     -0.641533    17A     -0.592029    18A     -0.569851
      19A     -0.538252    20A     -0.516914    21A     -0.491439
      22A     -0.488696    23A     -0.476570    24A     -0.440791
      25A     -0.386010

  @DF-RHF Final Energy:  -287.26038780470333

   => Energetics <=

    Nuclear Repulsion Energy =            259.9710788565615189
    One-Electron Energy =                -905.5159582617208116
    Two-Electron Energy =                 358.2844916004559082
    Total Energy =                       -287.2603878047033277
  Basis Set: (AUG-CC-PVTZ AUX)
    Blend: AUG-CC-PVTZ-RI
    Molecular point group: c1

    Geometry (in Angstrom), charge = 0, multiplicity = 1:

       Center              X                  Y                   Z               Mass
    ------------   -----------------  -----------------  -----------------  -----------------
         O            0.576931459094     1.632353375328    -0.056411135866    15.994914619570
         N           -2.249234540906    -0.858354624672    -0.077299135866    14.003074004430
         C            0.004680459094     0.332098375328    -0.254336135866    12.000000000000
         C            0.859040459094    -0.748226624672     0.399765864134    12.000000000000
         C           -1.493804340906     0.309715475328     0.065984564134    12.000000000000
         C            2.293147459094    -0.762350624672    -0.119557135866    12.000000000000
         H            0.020887459094     0.193412375328    -1.343535135866     1.007825032230
         H            0.852216459094    -0.578589624672     1.486780864134     1.007825032230
         H            0.393384459094    -1.727498624672     0.236160864134     1.007825032230
         H           -1.467844540906     0.483406375328     1.307779864134     1.007825032230
         H           -1.948055540906     1.199073375328    -0.227485135866     1.007825032230
         H            2.892140459094    -1.521546624672     0.391181864134     1.007825032230
         H            2.761672459094     0.211887375328     0.030375864134     1.007825032230
         H            2.312313459094    -0.981810624672    -1.191484135866     1.007825032230
         H           -1.839984540906    -1.679392624672     0.363185864134     1.007825032230
         H           -2.247135540906    -1.033639624672    -1.081108135866     1.007825032230
         H            0.563918459094     1.798562375328     0.903726864134     1.007825032230

  Basis Set: AUG-CC-PVTZ
    Blend: AUG-CC-PVTZ
  Basis Set: (AUG-CC-PVTZ AUX)
    Blend: AUG-CC-PVTZ-JKFIT
	 Reference Energy          =    -287.2603878047033277 [Eh]
	 Singles Energy            =      -0.0000000000000000 [Eh]
	 Same-Spin Energy          =      -0.2938265973686888 [Eh]
	 Opposite-Spin Energy      =      -1.0033705338672747 [Eh]
	 Correlation Energy        =      -1.2971971312359636 [Eh]
	 Total Energy              =    -288.5575849359393033 [Eh]

	 ================> DF-SCS-MP2 Energies <==================
	-----------------------------------------------------------
	 SCS Same-Spin Scale       =       0.3333333333333333 [-]
	 SCS Opposite-Spin Scale   =       1.2000000000000000 [-]
	 SCS Same-Spin Energy      =      -0.0979421991228963 [Eh]
	 SCS Opposite-Spin Energy  =      -1.2040446406407297 [Eh]
	 SCS Correlation Energy    =      -1.3019868397636261 [Eh]
	 SCS Total Energy          =    -288.5623746444669564 [Eh]
	-----------------------------------------------------------

  Dipole Moment: [D]
     X:     0.6106      Y:    -1.4640      Z:     0.4178     Total:     1.6403

*** Psi4 exiting successfully. Buy a developer a beer!
