                               Psi4 1.4a3.dev225

  ==> Input File <==

--------------------------------------------------------------------------
#psi4
#
memory 32 gb

molecule  {
0 1
  O        0.5491460     1.6657540    -0.0835270
  N       -2.2770200    -0.8249540    -0.1044150
  C       -0.0231050     0.3654990    -0.2814520
  C        0.8312550    -0.7148260     0.3726500
  C       -1.4695985     0.3807769     0.1965040
  C        2.2653620    -0.7289500    -0.1466730
  H       -0.0068980     0.2268130    -1.3706510
  H        0.8244310    -0.5451890     1.4596650
  H        0.3655990    -1.6940980     0.2090450
  H       -1.4956300     0.5168070     1.2806640
  H       -1.9758410     1.2324740    -0.2546010
  H        2.8643550    -1.4881460     0.3640660
  H        2.7338870     0.2452880     0.0032600
  H        2.2845280    -0.9484100    -1.2186000
  H       -1.8677700    -1.6459920     0.3360700
  H       -2.2749210    -1.0002390    -1.1082240
  H        0.5361330     1.8319630     0.8766110
units angstrom
no_reorient  #important for SAPT in psi4, default
symmetry c1  #important for SAPT in psi4, default
}

set PROPERTIES_ORIGIN ["COM"]
properties('MP2/aug-cc-pvtz', properties = ['dipole'])
--------------------------------------------------------------------------

    Molecular point group: c1
  Charge       = 0
  Multiplicity = 1
  Basis Set: AUG-CC-PVTZ
    Blend: AUG-CC-PVTZ
  Basis Set: (AUG-CC-PVTZ AUX)
    Blend: AUG-CC-PVTZ-JKFIT

    Orbital Energies [Eh]
    ---------------------

    Doubly Occupied:

       1A    -20.558785     2A    -15.547159     3A    -11.278392
       4A    -11.250419     5A    -11.227960     6A    -11.214600
       7A     -1.359017     8A     -1.177197     9A     -1.054573
      10A     -0.960125    11A     -0.863698    12A     -0.805691
      13A     -0.675346    14A     -0.657845    15A     -0.644128
      16A     -0.631437    17A     -0.580321    18A     -0.554448
      19A     -0.543616    20A     -0.521064    21A     -0.503513
      22A     -0.488566    23A     -0.480992    24A     -0.453604
      25A     -0.389080

  @DF-RHF Final Energy:  -287.28624125989387

   => Energetics <=

    Nuclear Repulsion Energy =            259.6914371568361730
    One-Electron Energy =                -905.1122070120746912
    Two-Electron Energy =                 358.1345285953446478
    Total Energy =                       -287.2862412598938704
  Basis Set: (AUG-CC-PVTZ AUX)
    Blend: AUG-CC-PVTZ-RI
    Molecular point group: c1

    Geometry (in Angstrom), charge = 0, multiplicity = 1:

       Center              X                  Y                   Z               Mass
    ------------   -----------------  -----------------  -----------------  -----------------
         O            0.569928011203     1.627280306366    -0.077645277142    15.994914619570
         N           -2.256237988797    -0.863427693634    -0.098533277142    14.003074004430
         C           -0.002322988797     0.327025306366    -0.275570277142    12.000000000000
         C            0.852037011203    -0.753299693634     0.378531722858    12.000000000000
         C           -1.448816488797     0.342303206366     0.202385722858    12.000000000000
         C            2.286144011203    -0.767423693634    -0.140791277142    12.000000000000
         H            0.013884011203     0.188339306366    -1.364769277142     1.007825032230
         H            0.845213011203    -0.583662693634     1.465546722858     1.007825032230
         H            0.386381011203    -1.732571693634     0.214926722858     1.007825032230
         H           -1.474847988797     0.478333306366     1.286545722858     1.007825032230
         H           -1.955058988797     1.194000306366    -0.248719277142     1.007825032230
         H            2.885137011203    -1.526619693634     0.369947722858     1.007825032230
         H            2.754669011203     0.206814306366     0.009141722858     1.007825032230
         H            2.305310011203    -0.986883693634    -1.212718277142     1.007825032230
         H           -1.846987988797    -1.684465693634     0.341951722858     1.007825032230
         H           -2.254138988797    -1.038712693634    -1.102342277142     1.007825032230
         H            0.556915011203     1.793489306366     0.882492722858     1.007825032230

  Basis Set: AUG-CC-PVTZ
    Blend: AUG-CC-PVTZ
  Basis Set: (AUG-CC-PVTZ AUX)
    Blend: AUG-CC-PVTZ-JKFIT
	 Reference Energy          =    -287.2862412598938704 [Eh]
	 Singles Energy            =      -0.0000000000000000 [Eh]
	 Same-Spin Energy          =      -0.2927068539604537 [Eh]
	 Opposite-Spin Energy      =      -1.0018731757717199 [Eh]
	 Correlation Energy        =      -1.2945800297321735 [Eh]
	 Total Energy              =    -288.5808212896260443 [Eh]

	 ================> DF-SCS-MP2 Energies <==================
	-----------------------------------------------------------
	 SCS Same-Spin Scale       =       0.3333333333333333 [-]
	 SCS Opposite-Spin Scale   =       1.2000000000000000 [-]
	 SCS Same-Spin Energy      =      -0.0975689513201512 [Eh]
	 SCS Opposite-Spin Energy  =      -1.2022478109260637 [Eh]
	 SCS Correlation Energy    =      -1.2998167622462149 [Eh]
	 SCS Total Energy          =    -288.5860580221400937 [Eh]
	-----------------------------------------------------------

  Dipole Moment: [D]
     X:     0.7547      Y:    -1.2662      Z:     0.6364     Total:     1.6056

*** Psi4 exiting successfully. Buy a developer a beer!
