                               Psi4 1.4a3.dev225

  ==> Input File <==

--------------------------------------------------------------------------
#psi4
#
memory 32 gb

molecule  {
0 1
  O        0.5491460     1.6657540    -0.0835270
  N       -2.2770200    -0.8249540    -0.1044150
  C       -0.0231050     0.3654990    -0.2814520
  C        0.8439509    -0.7542918     0.4060538
  C       -1.4804950     0.3645050     0.1924430
  C        2.2653620    -0.7289500    -0.1466730
  H       -0.0068980     0.2268130    -1.3706510
  H        0.8244310    -0.5451890     1.4596650
  H        0.3655990    -1.6940980     0.2090450
  H       -1.4956300     0.5168070     1.2806640
  H       -1.9758410     1.2324740    -0.2546010
  H        2.8643550    -1.4881460     0.3640660
  H        2.7338870     0.2452880     0.0032600
  H        2.2845280    -0.9484100    -1.2186000
  H       -1.8677700    -1.6459920     0.3360700
  H       -2.2749210    -1.0002390    -1.1082240
  H        0.5361330     1.8319630     0.8766110
units angstrom
no_reorient  #important for SAPT in psi4, default
symmetry c1  #important for SAPT in psi4, default
}

set PROPERTIES_ORIGIN ["COM"]
properties('MP2/aug-cc-pvtz', properties = ['dipole'])
--------------------------------------------------------------------------

    Molecular point group: c1
  Charge       = 0
  Multiplicity = 1
  Basis Set: AUG-CC-PVTZ
    Blend: AUG-CC-PVTZ
  Basis Set: (AUG-CC-PVTZ AUX)
    Blend: AUG-CC-PVTZ-JKFIT

    Orbital Energies [Eh]
    ---------------------

    Doubly Occupied:

       1A    -20.559439     2A    -15.547714     3A    -11.279694
       4A    -11.250068     5A    -11.225531     6A    -11.213935
       7A     -1.357738     8A     -1.182481     9A     -1.050252
      10A     -0.956696    11A     -0.860346    12A     -0.807650
      13A     -0.676110    14A     -0.657427    15A     -0.645807
      16A     -0.627906    17A     -0.582470    18A     -0.554644
      19A     -0.544028    20A     -0.520182    21A     -0.503770
      22A     -0.497370    23A     -0.482462    24A     -0.443874
      25A     -0.385989

  @DF-RHF Final Energy:  -287.28429826945160

   => Energetics <=

    Nuclear Repulsion Energy =            259.0606035964170815
    One-Electron Energy =                -903.8626385671092294
    Two-Electron Energy =                 357.5177367012405512
    Total Energy =                       -287.2842982694515968
  Basis Set: (AUG-CC-PVTZ AUX)
    Blend: AUG-CC-PVTZ-RI
    Molecular point group: c1

    Geometry (in Angstrom), charge = 0, multiplicity = 1:

       Center              X                  Y                   Z               Mass
    ------------   -----------------  -----------------  -----------------  -----------------
         O            0.569685624416     1.634788410174    -0.081597876342    15.994914619570
         N           -2.256480375584    -0.855919589826    -0.102485876342    14.003074004430
         C           -0.002565375584     0.334533410174    -0.279522876342    12.000000000000
         C            0.864490524416    -0.785257389826     0.407982923658    12.000000000000
         C           -1.459955375584     0.333539410174     0.194372123658    12.000000000000
         C            2.285901624416    -0.759915589826    -0.144743876342    12.000000000000
         H            0.013641624416     0.195847410174    -1.368721876342     1.007825032230
         H            0.844970624416    -0.576154589826     1.461594123658     1.007825032230
         H            0.386138624416    -1.725063589826     0.210974123658     1.007825032230
         H           -1.475090375584     0.485841410174     1.282593123658     1.007825032230
         H           -1.955301375584     1.201508410174    -0.252671876342     1.007825032230
         H            2.884894624416    -1.519111589826     0.365995123658     1.007825032230
         H            2.754426624416     0.214322410174     0.005189123658     1.007825032230
         H            2.305067624416    -0.979375589826    -1.216670876342     1.007825032230
         H           -1.847230375584    -1.676957589826     0.337999123658     1.007825032230
         H           -2.254381375584    -1.031204589826    -1.106294876342     1.007825032230
         H            0.556672624416     1.800997410174     0.878540123658     1.007825032230

  Basis Set: AUG-CC-PVTZ
    Blend: AUG-CC-PVTZ
  Basis Set: (AUG-CC-PVTZ AUX)
    Blend: AUG-CC-PVTZ-JKFIT
	 Reference Energy          =    -287.2842982694515968 [Eh]
	 Singles Energy            =      -0.0000000000000000 [Eh]
	 Same-Spin Energy          =      -0.2925794291174908 [Eh]
	 Opposite-Spin Energy      =      -1.0017691911214444 [Eh]
	 Correlation Energy        =      -1.2943486202389352 [Eh]
	 Total Energy              =    -288.5786468896905035 [Eh]

	 ================> DF-SCS-MP2 Energies <==================
	-----------------------------------------------------------
	 SCS Same-Spin Scale       =       0.3333333333333333 [-]
	 SCS Opposite-Spin Scale   =       1.2000000000000000 [-]
	 SCS Same-Spin Energy      =      -0.0975264763724969 [Eh]
	 SCS Opposite-Spin Energy  =      -1.2021230293457332 [Eh]
	 SCS Correlation Energy    =      -1.2996495057182302 [Eh]
	 SCS Total Energy          =    -288.5839477751698041 [Eh]
	-----------------------------------------------------------

  Dipole Moment: [D]
     X:     0.7107      Y:    -1.2775      Z:     0.6326     Total:     1.5929

*** Psi4 exiting successfully. Buy a developer a beer!
