                               Psi4 1.4a3.dev225

  ==> Input File <==

--------------------------------------------------------------------------
#psi4
#
memory 32 gb

molecule  {
0 1
  O        0.5491460     1.6657540    -0.0835270
  N       -2.2770200    -0.8249540    -0.1044150
  C       -0.0231050     0.3654990    -0.2814520
  C        0.8100193    -0.7229028     0.3865061
  C       -1.4804950     0.3645050     0.1924430
  C        2.2653620    -0.7289500    -0.1466730
  H       -0.0068980     0.2268130    -1.3706510
  H        0.8244310    -0.5451890     1.4596650
  H        0.3655990    -1.6940980     0.2090450
  H       -1.4956300     0.5168070     1.2806640
  H       -1.9758410     1.2324740    -0.2546010
  H        2.8643550    -1.4881460     0.3640660
  H        2.7338870     0.2452880     0.0032600
  H        2.2845280    -0.9484100    -1.2186000
  H       -1.8677700    -1.6459920     0.3360700
  H       -2.2749210    -1.0002390    -1.1082240
  H        0.5361330     1.8319630     0.8766110
units angstrom
no_reorient  #important for SAPT in psi4, default
symmetry c1  #important for SAPT in psi4, default
}

set PROPERTIES_ORIGIN ["COM"]
properties('MP2/aug-cc-pvtz', properties = ['dipole'])
--------------------------------------------------------------------------

    Molecular point group: c1
  Charge       = 0
  Multiplicity = 1
  Basis Set: AUG-CC-PVTZ
    Blend: AUG-CC-PVTZ
  Basis Set: (AUG-CC-PVTZ AUX)
    Blend: AUG-CC-PVTZ-JKFIT

    Orbital Energies [Eh]
    ---------------------

    Doubly Occupied:

       1A    -20.559500     2A    -15.547662     3A    -11.278179
       4A    -11.250041     5A    -11.226502     6A    -11.215055
       7A     -1.358734     8A     -1.182837     9A     -1.051818
      10A     -0.956443    11A     -0.862945    12A     -0.806894
      13A     -0.676600    14A     -0.658464    15A     -0.645821
      16A     -0.631321    17A     -0.580188    18A     -0.554477
      19A     -0.542903    20A     -0.520880    21A     -0.498385
      22A     -0.493269    23A     -0.479796    24A     -0.454954
      25A     -0.386969

  @DF-RHF Final Energy:  -287.28610168435654

   => Energetics <=

    Nuclear Repulsion Energy =            259.6076857823779847
    One-Electron Energy =                -904.9463040895814174
    Two-Electron Energy =                 358.0525166228468947
    Total Energy =                       -287.2861016843565380
  Basis Set: (AUG-CC-PVTZ AUX)
    Blend: AUG-CC-PVTZ-RI
    Molecular point group: c1

    Geometry (in Angstrom), charge = 0, multiplicity = 1:

       Center              X                  Y                   Z               Mass
    ------------   -----------------  -----------------  -----------------  -----------------
         O            0.574256354374     1.630560179184    -0.078964718519    15.994914619570
         N           -2.251909645626    -0.860147820816    -0.099852718519    14.003074004430
         C            0.002005354374     0.330305179184    -0.276889718519    12.000000000000
         C            0.835129654374    -0.758096620816     0.391068381481    12.000000000000
         C           -1.455384645626     0.329311179184     0.197005281481    12.000000000000
         C            2.290472354374    -0.764143820816    -0.142110718519    12.000000000000
         H            0.018212354374     0.191619179184    -1.366088718519     1.007825032230
         H            0.849541354374    -0.580382820816     1.464227281481     1.007825032230
         H            0.390709354374    -1.729291820816     0.213607281481     1.007825032230
         H           -1.470519645626     0.481613179184     1.285226281481     1.007825032230
         H           -1.950730645626     1.197280179184    -0.250038718519     1.007825032230
         H            2.889465354374    -1.523339820816     0.368628281481     1.007825032230
         H            2.758997354374     0.210094179184     0.007822281481     1.007825032230
         H            2.309638354374    -0.983603820816    -1.214037718519     1.007825032230
         H           -1.842659645626    -1.681185820816     0.340632281481     1.007825032230
         H           -2.249810645626    -1.035432820816    -1.103661718519     1.007825032230
         H            0.561243354374     1.796769179184     0.881173281481     1.007825032230

  Basis Set: AUG-CC-PVTZ
    Blend: AUG-CC-PVTZ
  Basis Set: (AUG-CC-PVTZ AUX)
    Blend: AUG-CC-PVTZ-JKFIT
	 Reference Energy          =    -287.2861016843565380 [Eh]
	 Singles Energy            =      -0.0000000000000000 [Eh]
	 Same-Spin Energy          =      -0.2926771720195329 [Eh]
	 Opposite-Spin Energy      =      -1.0017647892198343 [Eh]
	 Correlation Energy        =      -1.2944419612393672 [Eh]
	 Total Energy              =    -288.5805436455959239 [Eh]

	 ================> DF-SCS-MP2 Energies <==================
	-----------------------------------------------------------
	 SCS Same-Spin Scale       =       0.3333333333333333 [-]
	 SCS Opposite-Spin Scale   =       1.2000000000000000 [-]
	 SCS Same-Spin Energy      =      -0.0975590573398443 [Eh]
	 SCS Opposite-Spin Energy  =      -1.2021177470638011 [Eh]
	 SCS Correlation Energy    =      -1.2996768044036455 [Eh]
	 SCS Total Energy          =    -288.5857784887601838 [Eh]
	-----------------------------------------------------------

  Dipole Moment: [D]
     X:     0.7179      Y:    -1.2998      Z:     0.6355     Total:     1.6152

*** Psi4 exiting successfully. Buy a developer a beer!
