                               Psi4 1.4a3.dev225

  ==> Input File <==

--------------------------------------------------------------------------
#psi4
#
memory 32 gb

molecule  {
0 1
  O        0.5491460     1.6657540    -0.0835270
  N       -2.2770200    -0.8249540    -0.1044150
  C       -0.0401747     0.3467625    -0.2895605
  C        0.8312550    -0.7148260     0.3726500
  C       -1.4804950     0.3645050     0.1924430
  C        2.2653620    -0.7289500    -0.1466730
  H       -0.0068980     0.2268130    -1.3706510
  H        0.8244310    -0.5451890     1.4596650
  H        0.3655990    -1.6940980     0.2090450
  H       -1.4956300     0.5168070     1.2806640
  H       -1.9758410     1.2324740    -0.2546010
  H        2.8643550    -1.4881460     0.3640660
  H        2.7338870     0.2452880     0.0032600
  H        2.2845280    -0.9484100    -1.2186000
  H       -1.8677700    -1.6459920     0.3360700
  H       -2.2749210    -1.0002390    -1.1082240
  H        0.5361330     1.8319630     0.8766110
units angstrom
no_reorient  #important for SAPT in psi4, default
symmetry c1  #important for SAPT in psi4, default
}

set PROPERTIES_ORIGIN ["COM"]
properties('MP2/aug-cc-pvtz', properties = ['dipole'])
--------------------------------------------------------------------------

    Molecular point group: c1
  Charge       = 0
  Multiplicity = 1
  Basis Set: AUG-CC-PVTZ
    Blend: AUG-CC-PVTZ
  Basis Set: (AUG-CC-PVTZ AUX)
    Blend: AUG-CC-PVTZ-JKFIT

    Orbital Energies [Eh]
    ---------------------

    Doubly Occupied:

       1A    -20.555740     2A    -15.547976     3A    -11.278381
       4A    -11.251308     5A    -11.228403     6A    -11.214668
       7A     -1.348762     8A     -1.184345     9A     -1.054927
      10A     -0.960683    11A     -0.863767    12A     -0.804443
      13A     -0.676932    14A     -0.655203    15A     -0.642512
      16A     -0.630141    17A     -0.581555    18A     -0.555010
      19A     -0.543033    20A     -0.520842    21A     -0.501668
      22A     -0.488488    23A     -0.482018    24A     -0.453701
      25A     -0.390111

  @DF-RHF Final Energy:  -287.28560050335466

   => Energetics <=

    Nuclear Repulsion Energy =            259.6069210311988513
    One-Electron Energy =                -904.9558071611528476
    Two-Electron Energy =                 358.0632856265993951
    Total Energy =                       -287.2856005033546580
  Basis Set: (AUG-CC-PVTZ AUX)
    Blend: AUG-CC-PVTZ-RI
    Molecular point group: c1

    Geometry (in Angstrom), charge = 0, multiplicity = 1:

       Center              X                  Y                   Z               Mass
    ------------   -----------------  -----------------  -----------------  -----------------
         O            0.573695176563     1.631996085836    -0.076005994048    15.994914619570
         N           -2.252470823437    -0.858711914164    -0.096893994048    14.003074004430
         C           -0.015625523437     0.313004585836    -0.282039494048    12.000000000000
         C            0.855804176563    -0.748583914164     0.380171005952    12.000000000000
         C           -1.455945823437     0.330747085836     0.199964005952    12.000000000000
         C            2.289911176563    -0.762707914164    -0.139151994048    12.000000000000
         H            0.017651176563     0.193055085836    -1.363129994048     1.007825032230
         H            0.848980176563    -0.578946914164     1.467186005952     1.007825032230
         H            0.390148176563    -1.727855914164     0.216566005952     1.007825032230
         H           -1.471080823437     0.483049085836     1.288185005952     1.007825032230
         H           -1.951291823437     1.198716085836    -0.247079994048     1.007825032230
         H            2.888904176563    -1.521903914164     0.371587005952     1.007825032230
         H            2.758436176563     0.211530085836     0.010781005952     1.007825032230
         H            2.309077176563    -0.982167914164    -1.211078994048     1.007825032230
         H           -1.843220823437    -1.679749914164     0.343591005952     1.007825032230
         H           -2.250371823437    -1.033996914164    -1.100702994048     1.007825032230
         H            0.560682176563     1.798205085836     0.884132005952     1.007825032230

  Basis Set: AUG-CC-PVTZ
    Blend: AUG-CC-PVTZ
  Basis Set: (AUG-CC-PVTZ AUX)
    Blend: AUG-CC-PVTZ-JKFIT
	 Reference Energy          =    -287.2856005033546580 [Eh]
	 Singles Energy            =      -0.0000000000000000 [Eh]
	 Same-Spin Energy          =      -0.2928117827491443 [Eh]
	 Opposite-Spin Energy      =      -1.0021691087526705 [Eh]
	 Correlation Energy        =      -1.2949808915018148 [Eh]
	 Total Energy              =    -288.5805813948564946 [Eh]

	 ================> DF-SCS-MP2 Energies <==================
	-----------------------------------------------------------
	 SCS Same-Spin Scale       =       0.3333333333333333 [-]
	 SCS Opposite-Spin Scale   =       1.2000000000000000 [-]
	 SCS Same-Spin Energy      =      -0.0976039275830481 [Eh]
	 SCS Opposite-Spin Energy  =      -1.2026029305032047 [Eh]
	 SCS Correlation Energy    =      -1.3002068580862527 [Eh]
	 SCS Total Energy          =    -288.5858073614409136 [Eh]
	-----------------------------------------------------------

  Dipole Moment: [D]
     X:     0.6828      Y:    -1.3666      Z:     0.6128     Total:     1.6460

*** Psi4 exiting successfully. Buy a developer a beer!
