                               Psi4 1.4a3.dev225

  ==> Input File <==

--------------------------------------------------------------------------
#psi4
#
memory 32 gb

molecule  {
0 1
  O        0.5491460     1.6657540    -0.0835270
  N       -2.2770200    -0.8249540    -0.1044150
  C       -0.0231050     0.3654990    -0.2814520
  C        0.8312550    -0.7148260     0.3726500
  C       -1.5077363     0.3238253     0.1822904
  C        2.2653620    -0.7289500    -0.1466730
  H       -0.0068980     0.2268130    -1.3706510
  H        0.8244310    -0.5451890     1.4596650
  H        0.3655990    -1.6940980     0.2090450
  H       -1.4956300     0.5168070     1.2806640
  H       -1.9758410     1.2324740    -0.2546010
  H        2.8643550    -1.4881460     0.3640660
  H        2.7338870     0.2452880     0.0032600
  H        2.2845280    -0.9484100    -1.2186000
  H       -1.8677700    -1.6459920     0.3360700
  H       -2.2749210    -1.0002390    -1.1082240
  H        0.5361330     1.8319630     0.8766110
units angstrom
no_reorient  #important for SAPT in psi4, default
symmetry c1  #important for SAPT in psi4, default
}

set PROPERTIES_ORIGIN ["COM"]
properties('MP2/aug-cc-pvtz', properties = ['dipole'])
--------------------------------------------------------------------------

    Molecular point group: c1
  Charge       = 0
  Multiplicity = 1
  Basis Set: AUG-CC-PVTZ
    Blend: AUG-CC-PVTZ
  Basis Set: (AUG-CC-PVTZ AUX)
    Blend: AUG-CC-PVTZ-JKFIT

    Orbital Energies [Eh]
    ---------------------

    Doubly Occupied:

       1A    -20.559654     2A    -15.549200     3A    -11.277583
       4A    -11.252046     5A    -11.226743     6A    -11.213598
       7A     -1.357669     8A     -1.198685     9A     -1.053371
      10A     -0.953074    11A     -0.860463    12A     -0.804015
      13A     -0.680590    14A     -0.659488    15A     -0.644758
      16A     -0.635240    17A     -0.582689    18A     -0.560012
      19A     -0.541693    20A     -0.520421    21A     -0.497676
      22A     -0.488091    23A     -0.481727    24A     -0.452250
      25A     -0.382783

  @DF-RHF Final Energy:  -287.28374797985606

   => Energetics <=

    Nuclear Repulsion Energy =            259.7807933528386570
    One-Electron Energy =                -905.2620408481216145
    Two-Electron Energy =                 358.1974995154269550
    Total Energy =                       -287.2837479798560594
  Basis Set: (AUG-CC-PVTZ AUX)
    Blend: AUG-CC-PVTZ-RI
    Molecular point group: c1

    Geometry (in Angstrom), charge = 0, multiplicity = 1:

       Center              X                  Y                   Z               Mass
    ------------   -----------------  -----------------  -----------------  -----------------
         O            0.575065334081     1.634951927636    -0.075730645138    15.994914619570
         N           -2.251100665919    -0.855756072364    -0.096618645138    14.003074004430
         C            0.002814334081     0.334696927636    -0.273655645138    12.000000000000
         C            0.857174334081    -0.745628072364     0.380446354862    12.000000000000
         C           -1.481816965919     0.293023227636     0.190086754862    12.000000000000
         C            2.291281334081    -0.759752072364    -0.138876645138    12.000000000000
         H            0.019021334081     0.196010927636    -1.362854645138     1.007825032230
         H            0.850350334081    -0.575991072364     1.467461354862     1.007825032230
         H            0.391518334081    -1.724900072364     0.216841354862     1.007825032230
         H           -1.469710665919     0.486004927636     1.288460354862     1.007825032230
         H           -1.949921665919     1.201671927636    -0.246804645138     1.007825032230
         H            2.890274334081    -1.518948072364     0.371862354862     1.007825032230
         H            2.759806334081     0.214485927636     0.011056354862     1.007825032230
         H            2.310447334081    -0.979212072364    -1.210803645138     1.007825032230
         H           -1.841850665919    -1.676794072364     0.343866354862     1.007825032230
         H           -2.249001665919    -1.031041072364    -1.100427645138     1.007825032230
         H            0.562052334081     1.801160927636     0.884407354862     1.007825032230

  Basis Set: AUG-CC-PVTZ
    Blend: AUG-CC-PVTZ
  Basis Set: (AUG-CC-PVTZ AUX)
    Blend: AUG-CC-PVTZ-JKFIT
	 Reference Energy          =    -287.2837479798560594 [Eh]
	 Singles Energy            =      -0.0000000000000000 [Eh]
	 Same-Spin Energy          =      -0.2930868978018634 [Eh]
	 Opposite-Spin Energy      =      -1.0018973236492748 [Eh]
	 Correlation Energy        =      -1.2949842214511382 [Eh]
	 Total Energy              =    -288.5787322013072185 [Eh]

	 ================> DF-SCS-MP2 Energies <==================
	-----------------------------------------------------------
	 SCS Same-Spin Scale       =       0.3333333333333333 [-]
	 SCS Opposite-Spin Scale   =       1.2000000000000000 [-]
	 SCS Same-Spin Energy      =      -0.0976956326006211 [Eh]
	 SCS Opposite-Spin Energy  =      -1.2022767883791297 [Eh]
	 SCS Correlation Energy    =      -1.2999724209797507 [Eh]
	 SCS Total Energy          =    -288.5837204008358299 [Eh]
	-----------------------------------------------------------

  Dipole Moment: [D]
     X:     0.6288      Y:    -1.3935      Z:     0.6021     Total:     1.6431

*** Psi4 exiting successfully. Buy a developer a beer!
