                               Psi4 1.4a3.dev225

  ==> Input File <==

--------------------------------------------------------------------------
#psi4
#
memory 32 gb

molecule  {
0 1
  O        0.5491460     1.6657540    -0.0835270
  N       -2.2770200    -0.8249540    -0.1044150
  C       -0.0231050     0.3654990    -0.2814520
  C        0.8312550    -0.7148260     0.3726500
  C       -1.5096972     0.3502300     0.0905341
  C        2.2653620    -0.7289500    -0.1466730
  H       -0.0068980     0.2268130    -1.3706510
  H        0.8244310    -0.5451890     1.4596650
  H        0.3655990    -1.6940980     0.2090450
  H       -1.4956300     0.5168070     1.2806640
  H       -1.9758410     1.2324740    -0.2546010
  H        2.8643550    -1.4881460     0.3640660
  H        2.7338870     0.2452880     0.0032600
  H        2.2845280    -0.9484100    -1.2186000
  H       -1.8677700    -1.6459920     0.3360700
  H       -2.2749210    -1.0002390    -1.1082240
  H        0.5361330     1.8319630     0.8766110
units angstrom
no_reorient  #important for SAPT in psi4, default
symmetry c1  #important for SAPT in psi4, default
}

set PROPERTIES_ORIGIN ["COM"]
properties('MP2/aug-cc-pvtz', properties = ['dipole'])
--------------------------------------------------------------------------

    Molecular point group: c1
  Charge       = 0
  Multiplicity = 1
  Basis Set: AUG-CC-PVTZ
    Blend: AUG-CC-PVTZ
  Basis Set: (AUG-CC-PVTZ AUX)
    Blend: AUG-CC-PVTZ-JKFIT

    Orbital Energies [Eh]
    ---------------------

    Doubly Occupied:

       1A    -20.560116     2A    -15.550854     3A    -11.278207
       4A    -11.255067     5A    -11.228534     6A    -11.214623
       7A     -1.358465     8A     -1.199262     9A     -1.054528
      10A     -0.957771    11A     -0.862419    12A     -0.802071
      13A     -0.683170    14A     -0.658288    15A     -0.645458
      16A     -0.638252    17A     -0.586571    18A     -0.566725
      19A     -0.539401    20A     -0.515945    21A     -0.495169
      22A     -0.488490    23A     -0.478450    24A     -0.447551
      25A     -0.387818

  @DF-RHF Final Energy:  -287.27410920324451

   => Energetics <=

    Nuclear Repulsion Energy =            259.8970310740247669
    One-Electron Energy =                -905.4358654822422068
    Two-Electron Energy =                 358.2647252049729332
    Total Energy =                       -287.2741092032445067
  Basis Set: (AUG-CC-PVTZ AUX)
    Blend: AUG-CC-PVTZ-RI
    Molecular point group: c1

    Geometry (in Angstrom), charge = 0, multiplicity = 1:

       Center              X                  Y                   Z               Mass
    ------------   -----------------  -----------------  -----------------  -----------------
         O            0.575329475601     1.631395102926    -0.063370683649    15.994914619570
         N           -2.250836524399    -0.859312897074    -0.084258683649    14.003074004430
         C            0.003078475601     0.331140102926    -0.261295683649    12.000000000000
         C            0.857438475601    -0.749184897074     0.392806316351    12.000000000000
         C           -1.483513724399     0.315871102926     0.110690416351    12.000000000000
         C            2.291545475601    -0.763308897074    -0.126516683649    12.000000000000
         H            0.019285475601     0.192454102926    -1.350494683649     1.007825032230
         H            0.850614475601    -0.579547897074     1.479821316351     1.007825032230
         H            0.391782475601    -1.728456897074     0.229201316351     1.007825032230
         H           -1.469446524399     0.482448102926     1.300820316351     1.007825032230
         H           -1.949657524399     1.198115102926    -0.234444683649     1.007825032230
         H            2.890538475601    -1.522504897074     0.384222316351     1.007825032230
         H            2.760070475601     0.210929102926     0.023416316351     1.007825032230
         H            2.310711475601    -0.982768897074    -1.198443683649     1.007825032230
         H           -1.841586524399    -1.680350897074     0.356226316351     1.007825032230
         H           -2.248737524399    -1.034597897074    -1.088067683649     1.007825032230
         H            0.562316475601     1.797604102926     0.896767316351     1.007825032230

  Basis Set: AUG-CC-PVTZ
    Blend: AUG-CC-PVTZ
  Basis Set: (AUG-CC-PVTZ AUX)
    Blend: AUG-CC-PVTZ-JKFIT
	 Reference Energy          =    -287.2741092032445067 [Eh]
	 Singles Energy            =      -0.0000000000000000 [Eh]
	 Same-Spin Energy          =      -0.2933628621150454 [Eh]
	 Opposite-Spin Energy      =      -1.0025263522090189 [Eh]
	 Correlation Energy        =      -1.2958892143240641 [Eh]
	 Total Energy              =    -288.5699984175685699 [Eh]

	 ================> DF-SCS-MP2 Energies <==================
	-----------------------------------------------------------
	 SCS Same-Spin Scale       =       0.3333333333333333 [-]
	 SCS Opposite-Spin Scale   =       1.2000000000000000 [-]
	 SCS Same-Spin Energy      =      -0.0977876207050151 [Eh]
	 SCS Opposite-Spin Energy  =      -1.2030316226508226 [Eh]
	 SCS Correlation Energy    =      -1.3008192433558377 [Eh]
	 SCS Total Energy          =    -288.5749284466003246 [Eh]
	-----------------------------------------------------------

  Dipole Moment: [D]
     X:     0.6422      Y:    -1.4040      Z:     0.4980     Total:     1.6223

*** Psi4 exiting successfully. Buy a developer a beer!
