                               Psi4 1.4a3.dev225

  ==> Input File <==

--------------------------------------------------------------------------
#psi4
#
memory 32 gb

molecule  {
0 1
  O        0.5491460     1.6657540    -0.0835270
  N       -2.2770200    -0.8249540    -0.1044150
  C       -0.0231050     0.3654990    -0.2814520
  C        0.7001661    -0.7582679     0.4526524
  C       -1.4804950     0.3645050     0.1924430
  C        2.2653620    -0.7289500    -0.1466730
  H       -0.0068980     0.2268130    -1.3706510
  H        0.8244310    -0.5451890     1.4596650
  H        0.3655990    -1.6940980     0.2090450
  H       -1.4956300     0.5168070     1.2806640
  H       -1.9758410     1.2324740    -0.2546010
  H        2.8643550    -1.4881460     0.3640660
  H        2.7338870     0.2452880     0.0032600
  H        2.2845280    -0.9484100    -1.2186000
  H       -1.8677700    -1.6459920     0.3360700
  H       -2.2749210    -1.0002390    -1.1082240
  H        0.5361330     1.8319630     0.8766110
units angstrom
no_reorient  #important for SAPT in psi4, default
symmetry c1  #important for SAPT in psi4, default
}

set PROPERTIES_ORIGIN ["COM"]
properties('MP2/aug-cc-pvtz', properties = ['dipole'])
--------------------------------------------------------------------------

    Molecular point group: c1
  Charge       = 0
  Multiplicity = 1
  Basis Set: AUG-CC-PVTZ
    Blend: AUG-CC-PVTZ
  Basis Set: (AUG-CC-PVTZ AUX)
    Blend: AUG-CC-PVTZ-JKFIT

    Orbital Energies [Eh]
    ---------------------

    Doubly Occupied:

       1A    -20.562146     2A    -15.547193     3A    -11.279492
       4A    -11.247085     5A    -11.224208     6A    -11.218338
       7A     -1.359879     8A     -1.182844     9A     -1.044182
      10A     -0.948738    11A     -0.864773    12A     -0.813721
      13A     -0.678777    14A     -0.661253    15A     -0.656051
      16A     -0.627378    17A     -0.579500    18A     -0.550698
      19A     -0.541473    20A     -0.521520    21A     -0.516021
      22A     -0.488247    23A     -0.469674    24A     -0.446357
      25A     -0.382383

  @DF-RHF Final Energy:  -287.26514101428251

   => Energetics <=

    Nuclear Repulsion Energy =            259.1773752064443670
    One-Electron Energy =                -904.0611716698062992
    Two-Electron Energy =                 357.6186554490794265
    Total Energy =                       -287.2651410142825057
  Basis Set: (AUG-CC-PVTZ AUX)
    Blend: AUG-CC-PVTZ-RI
    Molecular point group: c1

    Geometry (in Angstrom), charge = 0, multiplicity = 1:

       Center              X                  Y                   Z               Mass
    ------------   -----------------  -----------------  -----------------  -----------------
         O            0.589054044793     1.635324007652    -0.087874904747    15.994914619570
         N           -2.237111955207    -0.855383992348    -0.108762904747    14.003074004430
         C            0.016803044793     0.335069007652    -0.285799904747    12.000000000000
         C            0.740074144793    -0.788697892348     0.448304495253    12.000000000000
         C           -1.440586955207     0.334075007652     0.188095095253    12.000000000000
         C            2.305270044793    -0.759379992348    -0.151020904747    12.000000000000
         H            0.033010044793     0.196383007652    -1.374998904747     1.007825032230
         H            0.864339044793    -0.575618992348     1.455317095253     1.007825032230
         H            0.405507044793    -1.724527992348     0.204697095253     1.007825032230
         H           -1.455721955207     0.486377007652     1.276316095253     1.007825032230
         H           -1.935932955207     1.202044007652    -0.258948904747     1.007825032230
         H            2.904263044793    -1.518575992348     0.359718095253     1.007825032230
         H            2.773795044793     0.214858007652    -0.001087904747     1.007825032230
         H            2.324436044793    -0.978839992348    -1.222947904747     1.007825032230
         H           -1.827861955207    -1.676421992348     0.331722095253     1.007825032230
         H           -2.235012955207    -1.030668992348    -1.112571904747     1.007825032230
         H            0.576041044793     1.801533007652     0.872263095253     1.007825032230

  Basis Set: AUG-CC-PVTZ
    Blend: AUG-CC-PVTZ
  Basis Set: (AUG-CC-PVTZ AUX)
    Blend: AUG-CC-PVTZ-JKFIT
	 Reference Energy          =    -287.2651410142825057 [Eh]
	 Singles Energy            =      -0.0000000000000000 [Eh]
	 Same-Spin Energy          =      -0.2929184277070480 [Eh]
	 Opposite-Spin Energy      =      -1.0029785004592797 [Eh]
	 Correlation Energy        =      -1.2958969281663277 [Eh]
	 Total Energy              =    -288.5610379424488201 [Eh]

	 ================> DF-SCS-MP2 Energies <==================
	-----------------------------------------------------------
	 SCS Same-Spin Scale       =       0.3333333333333333 [-]
	 SCS Opposite-Spin Scale   =       1.2000000000000000 [-]
	 SCS Same-Spin Energy      =      -0.0976394759023493 [Eh]
	 SCS Opposite-Spin Energy  =      -1.2035742005511356 [Eh]
	 SCS Correlation Energy    =      -1.3012136764534850 [Eh]
	 SCS Total Energy          =    -288.5663546907359773 [Eh]
	-----------------------------------------------------------

  Dipole Moment: [D]
     X:     0.7250      Y:    -1.2822      Z:     0.6586     Total:     1.6135

*** Psi4 exiting successfully. Buy a developer a beer!
