                               Psi4 1.4a3.dev225

  ==> Input File <==

--------------------------------------------------------------------------
#psi4
#
memory 32 gb

molecule  {
0 1
  O        0.5491460     1.6657540    -0.0835270
  N       -2.2770200    -0.8249540    -0.1044150
  C       -0.0231050     0.3654990    -0.2814520
  C        0.8312550    -0.7148260     0.3726500
  C       -1.4913915     0.3482331     0.1883820
  C        2.2653620    -0.7289500    -0.1466730
  H       -0.0068980     0.2268130    -1.3706510
  H        0.8244310    -0.5451890     1.4596650
  H        0.3655990    -1.6940980     0.2090450
  H       -1.4956300     0.5168070     1.2806640
  H       -1.9758410     1.2324740    -0.2546010
  H        2.8643550    -1.4881460     0.3640660
  H        2.7338870     0.2452880     0.0032600
  H        2.2845280    -0.9484100    -1.2186000
  H       -1.8677700    -1.6459920     0.3360700
  H       -2.2749210    -1.0002390    -1.1082240
  H        0.5361330     1.8319630     0.8766110
units angstrom
no_reorient  #important for SAPT in psi4, default
symmetry c1  #important for SAPT in psi4, default
}

set PROPERTIES_ORIGIN ["COM"]
properties('MP2/aug-cc-pvtz', properties = ['dipole'])
--------------------------------------------------------------------------

    Molecular point group: c1
  Charge       = 0
  Multiplicity = 1
  Basis Set: AUG-CC-PVTZ
    Blend: AUG-CC-PVTZ
  Basis Set: (AUG-CC-PVTZ AUX)
    Blend: AUG-CC-PVTZ-JKFIT

    Orbital Energies [Eh]
    ---------------------

    Doubly Occupied:

       1A    -20.559271     2A    -15.548362     3A    -11.277944
       4A    -11.251163     5A    -11.227262     6A    -11.214028
       7A     -1.358204     8A     -1.188945     9A     -1.053907
      10A     -0.956124    11A     -0.861870    12A     -0.804687
      13A     -0.677862    14A     -0.658534    15A     -0.644568
      16A     -0.633195    17A     -0.581556    18A     -0.557447
      19A     -0.542927    20A     -0.520824    21A     -0.500412
      22A     -0.488255    23A     -0.481398    24A     -0.452993
      25A     -0.385950

  @DF-RHF Final Energy:  -287.28606744404453

   => Energetics <=

    Nuclear Repulsion Energy =            259.7357163548339258
    One-Electron Energy =                -905.1881924343226729
    Two-Electron Energy =                 358.1664086354442134
    Total Energy =                       -287.2860674440445337
  Basis Set: (AUG-CC-PVTZ AUX)
    Blend: AUG-CC-PVTZ-RI
    Molecular point group: c1

    Geometry (in Angstrom), charge = 0, multiplicity = 1:

       Center              X                  Y                   Z               Mass
    ------------   -----------------  -----------------  -----------------  -----------------
         O            0.572863620428     1.631664093797    -0.076551209408    15.994914619570
         N           -2.253302379572    -0.859043906203    -0.097439209408    14.003074004430
         C            0.000612620428     0.331409093797    -0.274476209408    12.000000000000
         C            0.854972620428    -0.748915906203     0.379625790592    12.000000000000
         C           -1.467673879572     0.314143193797     0.195357790592    12.000000000000
         C            2.289079620428    -0.763039906203    -0.139697209408    12.000000000000
         H            0.016819620428     0.192723093797    -1.363675209408     1.007825032230
         H            0.848148620428    -0.579278906203     1.466640790592     1.007825032230
         H            0.389316620428    -1.728187906203     0.216020790592     1.007825032230
         H           -1.471912379572     0.482717093797     1.287639790592     1.007825032230
         H           -1.952123379572     1.198384093797    -0.247625209408     1.007825032230
         H            2.888072620428    -1.522235906203     0.371041790592     1.007825032230
         H            2.757604620428     0.211198093797     0.010235790592     1.007825032230
         H            2.308245620428    -0.982499906203    -1.211624209408     1.007825032230
         H           -1.844052379572    -1.680081906203     0.343045790592     1.007825032230
         H           -2.251203379572    -1.034328906203    -1.101248209408     1.007825032230
         H            0.559850620428     1.797873093797     0.883586790592     1.007825032230

  Basis Set: AUG-CC-PVTZ
    Blend: AUG-CC-PVTZ
  Basis Set: (AUG-CC-PVTZ AUX)
    Blend: AUG-CC-PVTZ-JKFIT
	 Reference Energy          =    -287.2860674440445337 [Eh]
	 Singles Energy            =      -0.0000000000000000 [Eh]
	 Same-Spin Energy          =      -0.2928738237713984 [Eh]
	 Opposite-Spin Energy      =      -1.0018052678661138 [Eh]
	 Correlation Energy        =      -1.2946790916375122 [Eh]
	 Total Energy              =    -288.5807465356820671 [Eh]

	 ================> DF-SCS-MP2 Energies <==================
	-----------------------------------------------------------
	 SCS Same-Spin Scale       =       0.3333333333333333 [-]
	 SCS Opposite-Spin Scale   =       1.2000000000000000 [-]
	 SCS Same-Spin Energy      =      -0.0976246079237995 [Eh]
	 SCS Opposite-Spin Energy  =      -1.2021663214393365 [Eh]
	 SCS Correlation Energy    =      -1.2997909293631360 [Eh]
	 SCS Total Energy          =    -288.5858583734076888 [Eh]
	-----------------------------------------------------------

  Dipole Moment: [D]
     X:     0.6839      Y:    -1.3365      Z:     0.6177     Total:     1.6235

*** Psi4 exiting successfully. Buy a developer a beer!
