                               Psi4 1.4a3.dev225

  ==> Input File <==

--------------------------------------------------------------------------
#psi4
#
memory 32 gb

molecule  {
0 1
  O        0.5491460     1.6657540    -0.0835270
  N       -2.2770200    -0.8249540    -0.1044150
  C       -0.0231050     0.3654990    -0.2814520
  C        0.8032387    -0.6793999     0.3512006
  C       -1.4804950     0.3645050     0.1924430
  C        2.2653620    -0.7289500    -0.1466730
  H       -0.0068980     0.2268130    -1.3706510
  H        0.8244310    -0.5451890     1.4596650
  H        0.3655990    -1.6940980     0.2090450
  H       -1.4956300     0.5168070     1.2806640
  H       -1.9758410     1.2324740    -0.2546010
  H        2.8643550    -1.4881460     0.3640660
  H        2.7338870     0.2452880     0.0032600
  H        2.2845280    -0.9484100    -1.2186000
  H       -1.8677700    -1.6459920     0.3360700
  H       -2.2749210    -1.0002390    -1.1082240
  H        0.5361330     1.8319630     0.8766110
units angstrom
no_reorient  #important for SAPT in psi4, default
symmetry c1  #important for SAPT in psi4, default
}

set PROPERTIES_ORIGIN ["COM"]
properties('MP2/aug-cc-pvtz', properties = ['dipole'])
--------------------------------------------------------------------------

    Molecular point group: c1
  Charge       = 0
  Multiplicity = 1
  Basis Set: AUG-CC-PVTZ
    Blend: AUG-CC-PVTZ
  Basis Set: (AUG-CC-PVTZ AUX)
    Blend: AUG-CC-PVTZ-JKFIT

    Orbital Energies [Eh]
    ---------------------

    Doubly Occupied:

       1A    -20.558942     2A    -15.547727     3A    -11.276284
       4A    -11.250934     5A    -11.229415     6A    -11.215599
       7A     -1.359754     8A     -1.183305     9A     -1.057382
      10A     -0.958261    11A     -0.866024    12A     -0.803783
      13A     -0.676840    14A     -0.659187    15A     -0.644832
      16A     -0.635866    17A     -0.578899    18A     -0.555833
      19A     -0.542997    20A     -0.522555    21A     -0.498006
      22A     -0.482576    23A     -0.477527    24A     -0.462620
      25A     -0.388292

  @DF-RHF Final Energy:  -287.28373354785720

   => Energetics <=

    Nuclear Repulsion Energy =            260.3066796432595424
    One-Electron Energy =                -906.3139473680438414
    Two-Electron Energy =                 358.7235341769270462
    Total Energy =                       -287.2837335478571958
  Basis Set: (AUG-CC-PVTZ AUX)
    Blend: AUG-CC-PVTZ-RI
    Molecular point group: c1

    Geometry (in Angstrom), charge = 0, multiplicity = 1:

       Center              X                  Y                   Z               Mass
    ------------   -----------------  -----------------  -----------------  -----------------
         O            0.575169729858     1.624700154656    -0.074208918423    15.994914619570
         N           -2.250996270142    -0.866007845344    -0.095096918423    14.003074004430
         C            0.002918729858     0.324445154656    -0.272133918423    12.000000000000
         C            0.829262429858    -0.720453745344     0.360518681577    12.000000000000
         C           -1.454471270142     0.323451154656     0.201761081577    12.000000000000
         C            2.291385729858    -0.770003845344    -0.137354918423    12.000000000000
         H            0.019125729858     0.185759154656    -1.361332918423     1.007825032230
         H            0.850454729858    -0.586242845344     1.468983081577     1.007825032230
         H            0.391622729858    -1.735151845344     0.218363081577     1.007825032230
         H           -1.469606270142     0.475753154656     1.289982081577     1.007825032230
         H           -1.949817270142     1.191420154656    -0.245282918423     1.007825032230
         H            2.890378729858    -1.529199845344     0.373384081577     1.007825032230
         H            2.759910729858     0.204234154656     0.012578081577     1.007825032230
         H            2.310551729858    -0.989463845344    -1.209281918423     1.007825032230
         H           -1.841746270142    -1.687045845344     0.345388081577     1.007825032230
         H           -2.248897270142    -1.041292845344    -1.098905918423     1.007825032230
         H            0.562156729858     1.790909154656     0.885929081577     1.007825032230

  Basis Set: AUG-CC-PVTZ
    Blend: AUG-CC-PVTZ
  Basis Set: (AUG-CC-PVTZ AUX)
    Blend: AUG-CC-PVTZ-JKFIT
	 Reference Energy          =    -287.2837335478571958 [Eh]
	 Singles Energy            =      -0.0000000000000000 [Eh]
	 Same-Spin Energy          =      -0.2930986904437643 [Eh]
	 Opposite-Spin Energy      =      -1.0021848760140264 [Eh]
	 Correlation Energy        =      -1.2952835664577906 [Eh]
	 Total Energy              =    -288.5790171143149792 [Eh]

	 ================> DF-SCS-MP2 Energies <==================
	-----------------------------------------------------------
	 SCS Same-Spin Scale       =       0.3333333333333333 [-]
	 SCS Opposite-Spin Scale   =       1.2000000000000000 [-]
	 SCS Same-Spin Energy      =      -0.0976995634812548 [Eh]
	 SCS Opposite-Spin Energy  =      -1.2026218512168316 [Eh]
	 SCS Correlation Energy    =      -1.3003214146980864 [Eh]
	 SCS Total Energy          =    -288.5840549625552853 [Eh]
	-----------------------------------------------------------

  Dipole Moment: [D]
     X:     0.7272      Y:    -1.3199      Z:     0.6257     Total:     1.6317

*** Psi4 exiting successfully. Buy a developer a beer!
