                               Psi4 1.4a3.dev225

  ==> Input File <==

--------------------------------------------------------------------------
#psi4
#
memory 32 gb

molecule  {
0 1
  O        0.5491460     1.6657540    -0.0835270
  N       -2.3421878    -0.7644456    -0.1544653
  C       -0.0231050     0.3654990    -0.2814520
  C        0.8312550    -0.7148260     0.3726500
  C       -1.4804950     0.3645050     0.1924430
  C        2.2653620    -0.7289500    -0.1466730
  H       -0.0068980     0.2268130    -1.3706510
  H        0.8244310    -0.5451890     1.4596650
  H        0.3655990    -1.6940980     0.2090450
  H       -1.4956300     0.5168070     1.2806640
  H       -1.9758410     1.2324740    -0.2546010
  H        2.8643550    -1.4881460     0.3640660
  H        2.7338870     0.2452880     0.0032600
  H        2.2845280    -0.9484100    -1.2186000
  H       -1.8677700    -1.6459920     0.3360700
  H       -2.2749210    -1.0002390    -1.1082240
  H        0.5361330     1.8319630     0.8766110
units angstrom
no_reorient  #important for SAPT in psi4, default
symmetry c1  #important for SAPT in psi4, default
}

set PROPERTIES_ORIGIN ["COM"]
properties('MP2/aug-cc-pvtz', properties = ['dipole'])
--------------------------------------------------------------------------

    Molecular point group: c1
  Charge       = 0
  Multiplicity = 1
  Basis Set: AUG-CC-PVTZ
    Blend: AUG-CC-PVTZ
  Basis Set: (AUG-CC-PVTZ AUX)
    Blend: AUG-CC-PVTZ-JKFIT

    Orbital Energies [Eh]
    ---------------------

    Doubly Occupied:

       1A    -20.560427     2A    -15.556958     3A    -11.280163
       4A    -11.250783     5A    -11.228891     6A    -11.215192
       7A     -1.359829     8A     -1.180932     9A     -1.055559
      10A     -0.957912    11A     -0.862604    12A     -0.806932
      13A     -0.666535    14A     -0.661175    15A     -0.645744
      16A     -0.628928    17A     -0.582012    18A     -0.552443
      19A     -0.539366    20A     -0.523577    21A     -0.498775
      22A     -0.489387    23A     -0.479256    24A     -0.455590
      25A     -0.393732

  @DF-RHF Final Energy:  -287.27489793199146

   => Energetics <=

    Nuclear Repulsion Energy =            259.1117181223916077
    One-Electron Energy =                -903.9078232671820388
    Two-Electron Energy =                 357.5212072127989700
    Total Energy =                       -287.2748979319914611
  Basis Set: (AUG-CC-PVTZ AUX)
    Blend: AUG-CC-PVTZ-RI
    Molecular point group: c1

    Geometry (in Angstrom), charge = 0, multiplicity = 1:

       Center              X                  Y                   Z               Mass
    ------------   -----------------  -----------------  -----------------  -----------------
         O            0.581639505712     1.619960918655    -0.069230864717    15.994914619570
         N           -2.309694294288    -0.810238681345    -0.140169164717    14.003074004430
         C            0.009388505712     0.319705918655    -0.267155864717    12.000000000000
         C            0.863748505712    -0.760619081345     0.386946135283    12.000000000000
         C           -1.448001494288     0.318711918655     0.206739135283    12.000000000000
         C            2.297855505712    -0.774743081345    -0.132376864717    12.000000000000
         H            0.025595505712     0.181019918655    -1.356354864717     1.007825032230
         H            0.856924505712    -0.590982081345     1.473961135283     1.007825032230
         H            0.398092505712    -1.739891081345     0.223341135283     1.007825032230
         H           -1.463136494288     0.471013918655     1.294960135283     1.007825032230
         H           -1.943347494288     1.186680918655    -0.240304864717     1.007825032230
         H            2.896848505712    -1.533939081345     0.378362135283     1.007825032230
         H            2.766380505712     0.199494918655     0.017556135283     1.007825032230
         H            2.317021505712    -0.994203081345    -1.204303864717     1.007825032230
         H           -1.835276494288    -1.691785081345     0.350366135283     1.007825032230
         H           -2.242427494288    -1.046032081345    -1.093927864717     1.007825032230
         H            0.568626505712     1.786169918655     0.890907135283     1.007825032230

  Basis Set: AUG-CC-PVTZ
    Blend: AUG-CC-PVTZ
  Basis Set: (AUG-CC-PVTZ AUX)
    Blend: AUG-CC-PVTZ-JKFIT
	 Reference Energy          =    -287.2748979319914611 [Eh]
	 Singles Energy            =      -0.0000000000000000 [Eh]
	 Same-Spin Energy          =      -0.2931789318664552 [Eh]
	 Opposite-Spin Energy      =      -1.0034989472282903 [Eh]
	 Correlation Energy        =      -1.2966778790947455 [Eh]
	 Total Energy              =    -288.5715758110862339 [Eh]

	 ================> DF-SCS-MP2 Energies <==================
	-----------------------------------------------------------
	 SCS Same-Spin Scale       =       0.3333333333333333 [-]
	 SCS Opposite-Spin Scale   =       1.2000000000000000 [-]
	 SCS Same-Spin Energy      =      -0.0977263106221517 [Eh]
	 SCS Opposite-Spin Energy  =      -1.2041987366739482 [Eh]
	 SCS Correlation Energy    =      -1.3019250472960999 [Eh]
	 SCS Total Energy          =    -288.5768229792875559 [Eh]
	-----------------------------------------------------------

  Dipole Moment: [D]
     X:     0.8796      Y:    -1.3358      Z:     0.6678     Total:     1.7332

*** Psi4 exiting successfully. Buy a developer a beer!
