                               Psi4 1.4a3.dev225

  ==> Input File <==

--------------------------------------------------------------------------
#psi4
#
memory 32 gb

molecule  {
0 1
  O        0.5491460     1.6657540    -0.0835270
  N       -2.2770200    -0.8249540    -0.1044150
  C       -0.0231050     0.3654990    -0.2814520
  C        0.8312550    -0.7148260     0.3726500
  C       -1.4622004     0.3728452     0.0923985
  C        2.2653620    -0.7289500    -0.1466730
  H       -0.0068980     0.2268130    -1.3706510
  H        0.8244310    -0.5451890     1.4596650
  H        0.3655990    -1.6940980     0.2090450
  H       -1.4956300     0.5168070     1.2806640
  H       -1.9758410     1.2324740    -0.2546010
  H        2.8643550    -1.4881460     0.3640660
  H        2.7338870     0.2452880     0.0032600
  H        2.2845280    -0.9484100    -1.2186000
  H       -1.8677700    -1.6459920     0.3360700
  H       -2.2749210    -1.0002390    -1.1082240
  H        0.5361330     1.8319630     0.8766110
units angstrom
no_reorient  #important for SAPT in psi4, default
symmetry c1  #important for SAPT in psi4, default
}

set PROPERTIES_ORIGIN ["COM"]
properties('MP2/aug-cc-pvtz', properties = ['dipole'])
--------------------------------------------------------------------------

    Molecular point group: c1
  Charge       = 0
  Multiplicity = 1
  Basis Set: AUG-CC-PVTZ
    Blend: AUG-CC-PVTZ
  Basis Set: (AUG-CC-PVTZ AUX)
    Blend: AUG-CC-PVTZ-JKFIT

    Orbital Energies [Eh]
    ---------------------

    Doubly Occupied:

       1A    -20.560213     2A    -15.550622     3A    -11.278003
       4A    -11.254770     5A    -11.229432     6A    -11.215281
       7A     -1.360221     8A     -1.186603     9A     -1.056575
      10A     -0.965900    11A     -0.862698    12A     -0.802741
      13A     -0.680795    14A     -0.659091    15A     -0.645736
      16A     -0.636159    17A     -0.583798    18A     -0.563472
      19A     -0.540487    20A     -0.514043    21A     -0.496352
      22A     -0.489110    23A     -0.477483    24A     -0.447830
      25A     -0.396407

  @DF-RHF Final Energy:  -287.27503711595523

   => Energetics <=

    Nuclear Repulsion Energy =            260.1964607034634582
    One-Electron Energy =                -906.0353515562666189
    Two-Electron Energy =                 358.5638537368479319
    Total Energy =                       -287.2750371159552287
  Basis Set: (AUG-CC-PVTZ AUX)
    Blend: AUG-CC-PVTZ-RI
    Molecular point group: c1

    Geometry (in Angstrom), charge = 0, multiplicity = 1:

       Center              X                  Y                   Z               Mass
    ------------   -----------------  -----------------  -----------------  -----------------
         O            0.568931455859     1.628348739885    -0.063621826210    15.994914619570
         N           -2.257234544141    -0.862359260115    -0.084509826210    14.003074004430
         C           -0.003319544141     0.328093739885    -0.261546826210    12.000000000000
         C            0.851040455859    -0.752231260115     0.392555173790    12.000000000000
         C           -1.442414944141     0.335439939885     0.112303673790    12.000000000000
         C            2.285147455859    -0.766355260115    -0.126767826210    12.000000000000
         H            0.012887455859     0.189407739885    -1.350745826210     1.007825032230
         H            0.844216455859    -0.582594260115     1.479570173790     1.007825032230
         H            0.385384455859    -1.731503260115     0.228950173790     1.007825032230
         H           -1.475844544141     0.479401739885     1.300569173790     1.007825032230
         H           -1.956055544141     1.195068739885    -0.234695826210     1.007825032230
         H            2.884140455859    -1.525551260115     0.383971173790     1.007825032230
         H            2.753672455859     0.207882739885     0.023165173790     1.007825032230
         H            2.304313455859    -0.985815260115    -1.198694826210     1.007825032230
         H           -1.847984544141    -1.683397260115     0.355975173790     1.007825032230
         H           -2.255135544141    -1.037644260115    -1.088318826210     1.007825032230
         H            0.555918455859     1.794557739885     0.896516173790     1.007825032230

  Basis Set: AUG-CC-PVTZ
    Blend: AUG-CC-PVTZ
  Basis Set: (AUG-CC-PVTZ AUX)
    Blend: AUG-CC-PVTZ-JKFIT
	 Reference Energy          =    -287.2750371159552287 [Eh]
	 Singles Energy            =      -0.0000000000000000 [Eh]
	 Same-Spin Energy          =      -0.2933644202949687 [Eh]
	 Opposite-Spin Energy      =      -1.0028284518558148 [Eh]
	 Correlation Energy        =      -1.2961928721507836 [Eh]
	 Total Energy              =    -288.5712299881060403 [Eh]

	 ================> DF-SCS-MP2 Energies <==================
	-----------------------------------------------------------
	 SCS Same-Spin Scale       =       0.3333333333333333 [-]
	 SCS Opposite-Spin Scale   =       1.2000000000000000 [-]
	 SCS Same-Spin Energy      =      -0.0977881400983229 [Eh]
	 SCS Opposite-Spin Energy  =      -1.2033941422269778 [Eh]
	 SCS Correlation Energy    =      -1.3011822823253008 [Eh]
	 SCS Total Energy          =    -288.5762193982805570 [Eh]
	-----------------------------------------------------------

  Dipole Moment: [D]
     X:     0.7303      Y:    -1.3417      Z:     0.5135     Total:     1.6116

*** Psi4 exiting successfully. Buy a developer a beer!
