                               Psi4 1.4a3.dev225

  ==> Input File <==

--------------------------------------------------------------------------
#psi4
#
memory 32 gb

molecule  {
0 1
  O        0.5491460     1.6657540    -0.0835270
  N       -2.2770200    -0.8249540    -0.1044150
  C       -0.0231050     0.3654990    -0.2814520
  C        0.8312550    -0.7148260     0.3726500
  C       -1.4804950     0.3645050     0.1924430
  C        2.3593829    -0.7298760    -0.1807201
  H       -0.0068980     0.2268130    -1.3706510
  H        0.8244310    -0.5451890     1.4596650
  H        0.3655990    -1.6940980     0.2090450
  H       -1.4956300     0.5168070     1.2806640
  H       -1.9758410     1.2324740    -0.2546010
  H        2.8643550    -1.4881460     0.3640660
  H        2.7338870     0.2452880     0.0032600
  H        2.2845280    -0.9484100    -1.2186000
  H       -1.8677700    -1.6459920     0.3360700
  H       -2.2749210    -1.0002390    -1.1082240
  H        0.5361330     1.8319630     0.8766110
units angstrom
no_reorient  #important for SAPT in psi4, default
symmetry c1  #important for SAPT in psi4, default
}

set PROPERTIES_ORIGIN ["COM"]
properties('MP2/aug-cc-pvtz', properties = ['dipole'])
--------------------------------------------------------------------------

    Molecular point group: c1
  Charge       = 0
  Multiplicity = 1
  Basis Set: AUG-CC-PVTZ
    Blend: AUG-CC-PVTZ
  Basis Set: (AUG-CC-PVTZ AUX)
    Blend: AUG-CC-PVTZ-JKFIT

    Orbital Energies [Eh]
    ---------------------

    Doubly Occupied:

       1A    -20.558716     2A    -15.547459     3A    -11.277921
       4A    -11.250493     5A    -11.230813     6A    -11.212123
       7A     -1.358089     8A     -1.182537     9A     -1.042132
      10A     -0.956684    11A     -0.868527    12A     -0.804791
      13A     -0.674977    14A     -0.656791    15A     -0.642095
      16A     -0.630840    17A     -0.584084    18A     -0.561676
      19A     -0.542248    20A     -0.528889    21A     -0.499973
      22A     -0.490454    23A     -0.466617    24A     -0.454796
      25A     -0.386639

  @DF-RHF Final Energy:  -287.27923360830374

   => Energetics <=

    Nuclear Repulsion Energy =            258.3656701499429005
    One-Electron Energy =                -902.4690821689018776
    Two-Electron Energy =                 356.8241784106552927
    Total Energy =                       -287.2792336083037412
  Basis Set: (AUG-CC-PVTZ AUX)
    Blend: AUG-CC-PVTZ-RI
    Molecular point group: c1

    Geometry (in Angstrom), charge = 0, multiplicity = 1:

       Center              X                  Y                   Z               Mass
    ------------   -----------------  -----------------  -----------------  -----------------
         O            0.558730803134     1.629596936196    -0.072511954979    15.994914619570
         N           -2.267435196866    -0.861111063804    -0.093399954979    14.003074004430
         C           -0.013520196866     0.329341936196    -0.270436954979    12.000000000000
         C            0.840839803134    -0.750983063804     0.383665045021    12.000000000000
         C           -1.470910196866     0.328347936196     0.203458045021    12.000000000000
         C            2.368967703134    -0.766033063804    -0.169705054979    12.000000000000
         H            0.002686803134     0.190655936196    -1.359635954979     1.007825032230
         H            0.834015803134    -0.581346063804     1.470680045021     1.007825032230
         H            0.375183803134    -1.730255063804     0.220060045021     1.007825032230
         H           -1.486045196866     0.480649936196     1.291679045021     1.007825032230
         H           -1.966256196866     1.196316936196    -0.243585954979     1.007825032230
         H            2.873939803134    -1.524303063804     0.375081045021     1.007825032230
         H            2.743471803134     0.209130936196     0.014275045021     1.007825032230
         H            2.294112803134    -0.984567063804    -1.207584954979     1.007825032230
         H           -1.858185196866    -1.682149063804     0.347085045021     1.007825032230
         H           -2.265336196866    -1.036396063804    -1.097208954979     1.007825032230
         H            0.545717803134     1.795805936196     0.887626045021     1.007825032230

  Basis Set: AUG-CC-PVTZ
    Blend: AUG-CC-PVTZ
  Basis Set: (AUG-CC-PVTZ AUX)
    Blend: AUG-CC-PVTZ-JKFIT
	 Reference Energy          =    -287.2792336083037412 [Eh]
	 Singles Energy            =      -0.0000000000000000 [Eh]
	 Same-Spin Energy          =      -0.2924940744214535 [Eh]
	 Opposite-Spin Energy      =      -1.0019285379529310 [Eh]
	 Correlation Energy        =      -1.2944226123743845 [Eh]
	 Total Energy              =    -288.5736562206781173 [Eh]

	 ================> DF-SCS-MP2 Energies <==================
	-----------------------------------------------------------
	 SCS Same-Spin Scale       =       0.3333333333333333 [-]
	 SCS Opposite-Spin Scale   =       1.2000000000000000 [-]
	 SCS Same-Spin Energy      =      -0.0974980248071512 [Eh]
	 SCS Opposite-Spin Energy  =      -1.2023142455435172 [Eh]
	 SCS Correlation Energy    =      -1.2998122703506683 [Eh]
	 SCS Total Energy          =    -288.5790458786544264 [Eh]
	-----------------------------------------------------------

  Dipole Moment: [D]
     X:     0.7170      Y:    -1.3079      Z:     0.6234     Total:     1.6166

*** Psi4 exiting successfully. Buy a developer a beer!
