                               Psi4 1.4a3.dev225

  ==> Input File <==

--------------------------------------------------------------------------
#psi4
#
memory 32 gb

molecule  {
0 1
  O        0.5491460     1.6657540    -0.0835270
  N       -2.2770200    -0.8249540    -0.1044150
  C       -0.0231050     0.3654990    -0.2814520
  C        0.8312550    -0.7148260     0.3726500
  C       -1.4804950     0.3645050     0.1924430
  C        2.2653620    -0.7289500    -0.1466730
  H       -0.0068980     0.2268130    -1.3706510
  H        0.8244310    -0.5451890     1.4596650
  H        0.3655990    -1.6940980     0.2090450
  H       -1.4956300     0.5168070     1.2806640
  H       -1.9667919     1.2166178    -0.2464343
  H        2.8643550    -1.4881460     0.3640660
  H        2.7338870     0.2452880     0.0032600
  H        2.2845280    -0.9484100    -1.2186000
  H       -1.8677700    -1.6459920     0.3360700
  H       -2.2749210    -1.0002390    -1.1082240
  H        0.5361330     1.8319630     0.8766110
units angstrom
no_reorient  #important for SAPT in psi4, default
symmetry c1  #important for SAPT in psi4, default
}

set PROPERTIES_ORIGIN ["COM"]
properties('MP2/aug-cc-pvtz', properties = ['dipole'])
--------------------------------------------------------------------------

    Molecular point group: c1
  Charge       = 0
  Multiplicity = 1
  Basis Set: AUG-CC-PVTZ
    Blend: AUG-CC-PVTZ
  Basis Set: (AUG-CC-PVTZ AUX)
    Blend: AUG-CC-PVTZ-JKFIT

    Orbital Energies [Eh]
    ---------------------

    Doubly Occupied:

       1A    -20.559054     2A    -15.547557     3A    -11.277987
       4A    -11.248293     5A    -11.227452     6A    -11.214211
       7A     -1.358626     8A     -1.182992     9A     -1.054124
      10A     -0.958794    11A     -0.864044    12A     -0.805283
      13A     -0.677428    14A     -0.658109    15A     -0.644328
      16A     -0.632076    17A     -0.581125    18A     -0.556817
      19A     -0.543682    20A     -0.520882    21A     -0.503369
      22A     -0.488301    23A     -0.481291    24A     -0.453400
      25A     -0.387646

  @DF-RHF Final Energy:  -287.28661838253987

   => Energetics <=

    Nuclear Repulsion Energy =            259.8080426466549397
    One-Electron Energy =                -905.3355792387318388
    Two-Electron Energy =                 358.2409182095370284
    Total Energy =                       -287.2866183825398707
  Basis Set: (AUG-CC-PVTZ AUX)
    Blend: AUG-CC-PVTZ-RI
    Molecular point group: c1

    Geometry (in Angstrom), charge = 0, multiplicity = 1:

       Center              X                  Y                   Z               Mass
    ------------   -----------------  -----------------  -----------------  -----------------
         O            0.571293441618     1.629651584301    -0.077190634712    15.994914619570
         N           -2.254872558382    -0.861056415699    -0.098078634712    14.003074004430
         C           -0.000957558382     0.329396584301    -0.275115634712    12.000000000000
         C            0.853402441618    -0.750928415699     0.378986365288    12.000000000000
         C           -1.458347558382     0.328402584301     0.198779365288    12.000000000000
         C            2.287509441618    -0.765052415699    -0.140336634712    12.000000000000
         H            0.015249441618     0.190710584301    -1.364314634712     1.007825032230
         H            0.846578441618    -0.581291415699     1.466001365288     1.007825032230
         H            0.387746441618    -1.730200415699     0.215381365288     1.007825032230
         H           -1.473482558382     0.480704584301     1.287000365288     1.007825032230
         H           -1.944644458382     1.180515384301    -0.240097934712     1.007825032230
         H            2.886502441618    -1.524248415699     0.370402365288     1.007825032230
         H            2.756034441618     0.209185584301     0.009596365288     1.007825032230
         H            2.306675441618    -0.984512415699    -1.212263634712     1.007825032230
         H           -1.845622558382    -1.682094415699     0.342406365288     1.007825032230
         H           -2.252773558382    -1.036341415699    -1.101887634712     1.007825032230
         H            0.558280441618     1.795860584301     0.882947365288     1.007825032230

  Basis Set: AUG-CC-PVTZ
    Blend: AUG-CC-PVTZ
  Basis Set: (AUG-CC-PVTZ AUX)
    Blend: AUG-CC-PVTZ-JKFIT
	 Reference Energy          =    -287.2866183825398707 [Eh]
	 Singles Energy            =      -0.0000000000000000 [Eh]
	 Same-Spin Energy          =      -0.2927583499755079 [Eh]
	 Opposite-Spin Energy      =      -1.0016772762061390 [Eh]
	 Correlation Energy        =      -1.2944356261816470 [Eh]
	 Total Energy              =    -288.5810540087215372 [Eh]

	 ================> DF-SCS-MP2 Energies <==================
	-----------------------------------------------------------
	 SCS Same-Spin Scale       =       0.3333333333333333 [-]
	 SCS Opposite-Spin Scale   =       1.2000000000000000 [-]
	 SCS Same-Spin Energy      =      -0.0975861166585026 [Eh]
	 SCS Opposite-Spin Energy  =      -1.2020127314473668 [Eh]
	 SCS Correlation Energy    =      -1.2995988481058693 [Eh]
	 SCS Total Energy          =    -288.5862172306457296 [Eh]
	-----------------------------------------------------------

  Dipole Moment: [D]
     X:     0.7140      Y:    -1.2903      Z:     0.6253     Total:     1.6017

*** Psi4 exiting successfully. Buy a developer a beer!
