                               Psi4 1.4a3.dev225

  ==> Input File <==

--------------------------------------------------------------------------
#psi4
#
memory 32 gb

molecule  {
0 1
  O        0.5491460     1.6657540    -0.0835270
  N       -2.2770200    -0.8249540    -0.1044150
  C       -0.0231050     0.3654990    -0.2814520
  C        0.8203064    -0.6753774     0.3386135
  C       -1.4804950     0.3645050     0.1924430
  C        2.2653620    -0.7289500    -0.1466730
  H       -0.0068980     0.2268130    -1.3706510
  H        0.8244310    -0.5451890     1.4596650
  H        0.3655990    -1.6940980     0.2090450
  H       -1.4956300     0.5168070     1.2806640
  H       -1.9758410     1.2324740    -0.2546010
  H        2.8643550    -1.4881460     0.3640660
  H        2.7338870     0.2452880     0.0032600
  H        2.2845280    -0.9484100    -1.2186000
  H       -1.8677700    -1.6459920     0.3360700
  H       -2.2749210    -1.0002390    -1.1082240
  H        0.5361330     1.8319630     0.8766110
units angstrom
no_reorient  #important for SAPT in psi4, default
symmetry c1  #important for SAPT in psi4, default
}

set PROPERTIES_ORIGIN ["COM"]
properties('MP2/aug-cc-pvtz', properties = ['dipole'])
--------------------------------------------------------------------------

    Molecular point group: c1
  Charge       = 0
  Multiplicity = 1
  Basis Set: AUG-CC-PVTZ
    Blend: AUG-CC-PVTZ
  Basis Set: (AUG-CC-PVTZ AUX)
    Blend: AUG-CC-PVTZ-JKFIT

    Orbital Energies [Eh]
    ---------------------

    Doubly Occupied:

       1A    -20.558650     2A    -15.547843     3A    -11.276439
       4A    -11.251515     5A    -11.230422     6A    -11.215065
       7A     -1.359674     8A     -1.183358     9A     -1.059173
      10A     -0.959805    11A     -0.866129    12A     -0.802270
      13A     -0.676734    14A     -0.658928    15A     -0.644142
      16A     -0.636319    17A     -0.579740    18A     -0.557002
      19A     -0.543334    20A     -0.522944    21A     -0.501079
      22A     -0.479596    23A     -0.477767    24A     -0.460463
      25A     -0.388874

  @DF-RHF Final Energy:  -287.28312666663072

   => Energetics <=

    Nuclear Repulsion Energy =            260.3689015819725228
    One-Electron Energy =                -906.4295209427334612
    Two-Electron Energy =                 358.7774926941302169
    Total Energy =                       -287.2831266666307215
  Basis Set: (AUG-CC-PVTZ AUX)
    Blend: AUG-CC-PVTZ-RI
    Molecular point group: c1

    Geometry (in Angstrom), charge = 0, multiplicity = 1:

       Center              X                  Y                   Z               Mass
    ------------   -----------------  -----------------  -----------------  -----------------
         O            0.572870638518     1.624158306902    -0.072513382844    15.994914619570
         N           -2.253295361482    -0.866549693098    -0.093401382844    14.003074004430
         C            0.000619638518     0.323903306902    -0.270438382844    12.000000000000
         C            0.844031038518    -0.716973093098     0.349627117156    12.000000000000
         C           -1.456770361482     0.322909306902     0.203456617156    12.000000000000
         C            2.289086638518    -0.770545693098    -0.135659382844    12.000000000000
         H            0.016826638518     0.185217306902    -1.359637382844     1.007825032230
         H            0.848155638518    -0.586784693098     1.470678617156     1.007825032230
         H            0.389323638518    -1.735693693098     0.220058617156     1.007825032230
         H           -1.471905361482     0.475211306902     1.291677617156     1.007825032230
         H           -1.952116361482     1.190878306902    -0.243587382844     1.007825032230
         H            2.888079638518    -1.529741693098     0.375079617156     1.007825032230
         H            2.757611638518     0.203692306902     0.014273617156     1.007825032230
         H            2.308252638518    -0.990005693098    -1.207586382844     1.007825032230
         H           -1.844045361482    -1.687587693098     0.347083617156     1.007825032230
         H           -2.251196361482    -1.041834693098    -1.097210382844     1.007825032230
         H            0.559857638518     1.790367306902     0.887624617156     1.007825032230

  Basis Set: AUG-CC-PVTZ
    Blend: AUG-CC-PVTZ
  Basis Set: (AUG-CC-PVTZ AUX)
    Blend: AUG-CC-PVTZ-JKFIT
	 Reference Energy          =    -287.2831266666307215 [Eh]
	 Singles Energy            =      -0.0000000000000000 [Eh]
	 Same-Spin Energy          =      -0.2931841677748994 [Eh]
	 Opposite-Spin Energy      =      -1.0022677894606351 [Eh]
	 Correlation Energy        =      -1.2954519572355345 [Eh]
	 Total Energy              =    -288.5785786238662354 [Eh]

	 ================> DF-SCS-MP2 Energies <==================
	-----------------------------------------------------------
	 SCS Same-Spin Scale       =       0.3333333333333333 [-]
	 SCS Opposite-Spin Scale   =       1.2000000000000000 [-]
	 SCS Same-Spin Energy      =      -0.0977280559249664 [Eh]
	 SCS Opposite-Spin Energy  =      -1.2027213473527620 [Eh]
	 SCS Correlation Energy    =      -1.3004494032777285 [Eh]
	 SCS Total Energy          =    -288.5835760699084744 [Eh]
	-----------------------------------------------------------

  Dipole Moment: [D]
     X:     0.7289      Y:    -1.3195      Z:     0.6163     Total:     1.6285

*** Psi4 exiting successfully. Buy a developer a beer!
