                               Psi4 1.4a3.dev225

  ==> Input File <==

--------------------------------------------------------------------------
#psi4
#
memory 32 gb

molecule  {
0 1
  O        0.5491460     1.6657540    -0.0835270
  N       -2.2770200    -0.8249540    -0.1044150
  C       -0.0231050     0.3654990    -0.2814520
  C        0.8729393    -0.6976878     0.3443443
  C       -1.4804950     0.3645050     0.1924430
  C        2.2653620    -0.7289500    -0.1466730
  H       -0.0068980     0.2268130    -1.3706510
  H        0.8244310    -0.5451890     1.4596650
  H        0.3655990    -1.6940980     0.2090450
  H       -1.4956300     0.5168070     1.2806640
  H       -1.9758410     1.2324740    -0.2546010
  H        2.8643550    -1.4881460     0.3640660
  H        2.7338870     0.2452880     0.0032600
  H        2.2845280    -0.9484100    -1.2186000
  H       -1.8677700    -1.6459920     0.3360700
  H       -2.2749210    -1.0002390    -1.1082240
  H        0.5361330     1.8319630     0.8766110
units angstrom
no_reorient  #important for SAPT in psi4, default
symmetry c1  #important for SAPT in psi4, default
}

set PROPERTIES_ORIGIN ["COM"]
properties('MP2/aug-cc-pvtz', properties = ['dipole'])
--------------------------------------------------------------------------

    Molecular point group: c1
  Charge       = 0
  Multiplicity = 1
  Basis Set: AUG-CC-PVTZ
    Blend: AUG-CC-PVTZ
  Basis Set: (AUG-CC-PVTZ AUX)
    Blend: AUG-CC-PVTZ-JKFIT

    Orbital Energies [Eh]
    ---------------------

    Doubly Occupied:

       1A    -20.558134     2A    -15.548016     3A    -11.278434
       4A    -11.252184     5A    -11.230419     6A    -11.212786
       7A     -1.358419     8A     -1.183081     9A     -1.060219
      10A     -0.961567    11A     -0.862749    12A     -0.801402
      13A     -0.676345    14A     -0.657844    15A     -0.642217
      16A     -0.633846    17A     -0.582929    18A     -0.559283
      19A     -0.544975    20A     -0.522021    21A     -0.510608
      22A     -0.483260    23A     -0.475370    24A     -0.449169
      25A     -0.388944

  @DF-RHF Final Energy:  -287.28299739864786

   => Energetics <=

    Nuclear Repulsion Energy =            259.9388287865519942
    One-Electron Energy =                -905.5752048006448831
    Two-Electron Energy =                 358.3533786154450240
    Total Energy =                       -287.2829973986478649
  Basis Set: (AUG-CC-PVTZ AUX)
    Blend: AUG-CC-PVTZ-RI
    Molecular point group: c1

    Geometry (in Angstrom), charge = 0, multiplicity = 1:

       Center              X                  Y                   Z               Mass
    ------------   -----------------  -----------------  -----------------  -----------------
         O            0.565780764395     1.627163612094    -0.073285345830    15.994914619570
         N           -2.260385235605    -0.863544387906    -0.094173345830    14.003074004430
         C           -0.006470235605     0.326908612094    -0.271210345830    12.000000000000
         C            0.889574064395    -0.736278187906     0.354585954170    12.000000000000
         C           -1.463860235605     0.325914612094     0.202684654170    12.000000000000
         C            2.281996764395    -0.767540387906    -0.136431345830    12.000000000000
         H            0.009736764395     0.188222612094    -1.360409345830     1.007825032230
         H            0.841065764395    -0.583779387906     1.469906654170     1.007825032230
         H            0.382233764395    -1.732688387906     0.219286654170     1.007825032230
         H           -1.478995235605     0.478216612094     1.290905654170     1.007825032230
         H           -1.959206235605     1.193883612094    -0.244359345830     1.007825032230
         H            2.880989764395    -1.526736387906     0.374307654170     1.007825032230
         H            2.750521764395     0.206697612094     0.013501654170     1.007825032230
         H            2.301162764395    -0.987000387906    -1.208358345830     1.007825032230
         H           -1.851135235605    -1.684582387906     0.346311654170     1.007825032230
         H           -2.258286235605    -1.038829387906    -1.097982345830     1.007825032230
         H            0.552767764395     1.793372612094     0.886852654170     1.007825032230

  Basis Set: AUG-CC-PVTZ
    Blend: AUG-CC-PVTZ
  Basis Set: (AUG-CC-PVTZ AUX)
    Blend: AUG-CC-PVTZ-JKFIT
	 Reference Energy          =    -287.2829973986478649 [Eh]
	 Singles Energy            =      -0.0000000000000000 [Eh]
	 Same-Spin Energy          =      -0.2931158557051050 [Eh]
	 Opposite-Spin Energy      =      -1.0022008180045470 [Eh]
	 Correlation Energy        =      -1.2953166737096520 [Eh]
	 Total Energy              =    -288.5783140723575002 [Eh]

	 ================> DF-SCS-MP2 Energies <==================
	-----------------------------------------------------------
	 SCS Same-Spin Scale       =       0.3333333333333333 [-]
	 SCS Opposite-Spin Scale   =       1.2000000000000000 [-]
	 SCS Same-Spin Energy      =      -0.0977052852350350 [Eh]
	 SCS Opposite-Spin Energy  =      -1.2026409816054564 [Eh]
	 SCS Correlation Energy    =      -1.3003462668404915 [Eh]
	 SCS Total Energy          =    -288.5833436654883712 [Eh]
	-----------------------------------------------------------

  Dipole Moment: [D]
     X:     0.7268      Y:    -1.2991      Z:     0.6069     Total:     1.6075

*** Psi4 exiting successfully. Buy a developer a beer!
