                               Psi4 1.4a3.dev225

  ==> Input File <==

--------------------------------------------------------------------------
#psi4
#
memory 32 gb

molecule  {
0 1
  O        0.5491460     1.6657540    -0.0835270
  N       -2.2770200    -0.8249540    -0.1044150
  C       -0.0231050     0.3654990    -0.2814520
  C        0.8111183    -0.6359940     0.3039857
  C       -1.4804950     0.3645050     0.1924430
  C        2.2653620    -0.7289500    -0.1466730
  H       -0.0068980     0.2268130    -1.3706510
  H        0.8244310    -0.5451890     1.4596650
  H        0.3655990    -1.6940980     0.2090450
  H       -1.4956300     0.5168070     1.2806640
  H       -1.9758410     1.2324740    -0.2546010
  H        2.8643550    -1.4881460     0.3640660
  H        2.7338870     0.2452880     0.0032600
  H        2.2845280    -0.9484100    -1.2186000
  H       -1.8677700    -1.6459920     0.3360700
  H       -2.2749210    -1.0002390    -1.1082240
  H        0.5361330     1.8319630     0.8766110
units angstrom
no_reorient  #important for SAPT in psi4, default
symmetry c1  #important for SAPT in psi4, default
}

set PROPERTIES_ORIGIN ["COM"]
properties('MP2/aug-cc-pvtz', properties = ['dipole'])
--------------------------------------------------------------------------

    Molecular point group: c1
  Charge       = 0
  Multiplicity = 1
  Basis Set: AUG-CC-PVTZ
    Blend: AUG-CC-PVTZ
  Basis Set: (AUG-CC-PVTZ AUX)
    Blend: AUG-CC-PVTZ-JKFIT

    Orbital Energies [Eh]
    ---------------------

    Doubly Occupied:

       1A    -20.558339     2A    -15.547923     3A    -11.274545
       4A    -11.252442     5A    -11.233887     6A    -11.216202
       7A     -1.361027     8A     -1.183862     9A     -1.065107
      10A     -0.961725    11A     -0.870293    12A     -0.799075
      13A     -0.676970    14A     -0.659846    15A     -0.645341
      16A     -0.639841    17A     -0.579211    18A     -0.558454
      19A     -0.543423    20A     -0.525941    21A     -0.501069
      22A     -0.478851    23A     -0.466955    24A     -0.462398
      25A     -0.389719

  @DF-RHF Final Energy:  -287.27340704754323

   => Energetics <=

    Nuclear Repulsion Energy =            261.0334000763768358
    One-Electron Energy =                -907.7087217766339791
    Two-Electron Energy =                 359.4019146527139696
    Total Energy =                       -287.2734070475432304
  Basis Set: (AUG-CC-PVTZ AUX)
    Blend: AUG-CC-PVTZ-RI
    Molecular point group: c1

    Geometry (in Angstrom), charge = 0, multiplicity = 1:

       Center              X                  Y                   Z               Mass
    ------------   -----------------  -----------------  -----------------  -----------------
         O            0.574108314428     1.618853196438    -0.067848871803    15.994914619570
         N           -2.252057685572    -0.871854803562    -0.088736871803    14.003074004430
         C            0.001857314428     0.318598196438    -0.265773871803    12.000000000000
         C            0.836080614428    -0.682894803562     0.319663828197    12.000000000000
         C           -1.455532685572     0.317604196438     0.208121128197    12.000000000000
         C            2.290324314428    -0.775850803562    -0.130994871803    12.000000000000
         H            0.018064314428     0.179912196438    -1.354972871803     1.007825032230
         H            0.849393314428    -0.592089803562     1.475343128197     1.007825032230
         H            0.390561314428    -1.740998803562     0.224723128197     1.007825032230
         H           -1.470667685572     0.469906196438     1.296342128197     1.007825032230
         H           -1.950878685572     1.185573196438    -0.238922871803     1.007825032230
         H            2.889317314428    -1.535046803562     0.379744128197     1.007825032230
         H            2.758849314428     0.198387196438     0.018938128197     1.007825032230
         H            2.309490314428    -0.995310803562    -1.202921871803     1.007825032230
         H           -1.842807685572    -1.692892803562     0.351748128197     1.007825032230
         H           -2.249958685572    -1.047139803562    -1.092545871803     1.007825032230
         H            0.561095314428     1.785062196438     0.892289128197     1.007825032230

  Basis Set: AUG-CC-PVTZ
    Blend: AUG-CC-PVTZ
  Basis Set: (AUG-CC-PVTZ AUX)
    Blend: AUG-CC-PVTZ-JKFIT
	 Reference Energy          =    -287.2734070475432304 [Eh]
	 Singles Energy            =      -0.0000000000000000 [Eh]
	 Same-Spin Energy          =      -0.2938181531535063 [Eh]
	 Opposite-Spin Energy      =      -1.0031445626072026 [Eh]
	 Correlation Energy        =      -1.2969627157607091 [Eh]
	 Total Energy              =    -288.5703697633039155 [Eh]

	 ================> DF-SCS-MP2 Energies <==================
	-----------------------------------------------------------
	 SCS Same-Spin Scale       =       0.3333333333333333 [-]
	 SCS Opposite-Spin Scale   =       1.2000000000000000 [-]
	 SCS Same-Spin Energy      =      -0.0979393843845021 [Eh]
	 SCS Opposite-Spin Energy  =      -1.2037734751286431 [Eh]
	 SCS Correlation Energy    =      -1.3017128595131451 [Eh]
	 SCS Total Energy          =    -288.5751199070563757 [Eh]
	-----------------------------------------------------------

  Dipole Moment: [D]
     X:     0.7385      Y:    -1.3335      Z:     0.5983     Total:     1.6376

*** Psi4 exiting successfully. Buy a developer a beer!
