                               Psi4 1.4a3.dev225

  ==> Input File <==

--------------------------------------------------------------------------
#psi4
#
memory 32 gb

molecule  {
0 1
  O        0.5491460     1.6657540    -0.0835270
  N       -2.2770200    -0.8249540    -0.1044150
  C       -0.0231050     0.3654990    -0.2814520
  C        0.8872876    -0.7856783     0.4155488
  C       -1.4804950     0.3645050     0.1924430
  C        2.2653620    -0.7289500    -0.1466730
  H       -0.0068980     0.2268130    -1.3706510
  H        0.8244310    -0.5451890     1.4596650
  H        0.3655990    -1.6940980     0.2090450
  H       -1.4956300     0.5168070     1.2806640
  H       -1.9758410     1.2324740    -0.2546010
  H        2.8643550    -1.4881460     0.3640660
  H        2.7338870     0.2452880     0.0032600
  H        2.2845280    -0.9484100    -1.2186000
  H       -1.8677700    -1.6459920     0.3360700
  H       -2.2749210    -1.0002390    -1.1082240
  H        0.5361330     1.8319630     0.8766110
units angstrom
no_reorient  #important for SAPT in psi4, default
symmetry c1  #important for SAPT in psi4, default
}

set PROPERTIES_ORIGIN ["COM"]
properties('MP2/aug-cc-pvtz', properties = ['dipole'])
--------------------------------------------------------------------------

    Molecular point group: c1
  Charge       = 0
  Multiplicity = 1
  Basis Set: AUG-CC-PVTZ
    Blend: AUG-CC-PVTZ
  Basis Set: (AUG-CC-PVTZ AUX)
    Blend: AUG-CC-PVTZ-JKFIT

    Orbital Energies [Eh]
    ---------------------

    Doubly Occupied:

       1A    -20.559353     2A    -15.547850     3A    -11.280836
       4A    -11.250413     5A    -11.225804     6A    -11.212555
       7A     -1.356820     8A     -1.182253     9A     -1.051646
      10A     -0.957369    11A     -0.857682    12A     -0.807368
      13A     -0.675823    14A     -0.656475    15A     -0.645365
      16A     -0.625345    17A     -0.584625    18A     -0.555423
      19A     -0.547389    20A     -0.520295    21A     -0.511820
      22A     -0.497803    23A     -0.483419    24A     -0.431423
      25A     -0.384454

  @DF-RHF Final Energy:  -287.27844267739579

   => Energetics <=

    Nuclear Repulsion Energy =            258.5752468738994594
    One-Electron Energy =                -902.8881652663145587
    Two-Electron Energy =                 357.0344757150193118
    Total Energy =                       -287.2784426773957875
  Basis Set: (AUG-CC-PVTZ AUX)
    Blend: AUG-CC-PVTZ-RI
    Molecular point group: c1

    Geometry (in Angstrom), charge = 0, multiplicity = 1:

       Center              X                  Y                   Z               Mass
    ------------   -----------------  -----------------  -----------------  -----------------
         O            0.563847987730     1.639016304403    -0.082876892980    15.994914619570
         N           -2.262318012270    -0.851691695597    -0.103764892980    14.003074004430
         C           -0.008403012270     0.338761304403    -0.280801892980    12.000000000000
         C            0.901989587730    -0.812415995597     0.416198907020    12.000000000000
         C           -1.465793012270     0.337767304403     0.193093107020    12.000000000000
         C            2.280063987730    -0.755687695597    -0.146022892980    12.000000000000
         H            0.007803987730     0.200075304403    -1.370000892980     1.007825032230
         H            0.839132987730    -0.571926695597     1.460315107020     1.007825032230
         H            0.380300987730    -1.720835695597     0.209695107020     1.007825032230
         H           -1.480928012270     0.490069304403     1.281314107020     1.007825032230
         H           -1.961139012270     1.205736304403    -0.253950892980     1.007825032230
         H            2.879056987730    -1.514883695597     0.364716107020     1.007825032230
         H            2.748588987730     0.218550304403     0.003910107020     1.007825032230
         H            2.299229987730    -0.975147695597    -1.217949892980     1.007825032230
         H           -1.853068012270    -1.672729695597     0.336720107020     1.007825032230
         H           -2.260219012270    -1.026976695597    -1.107573892980     1.007825032230
         H            0.550834987730     1.805225304403     0.877261107020     1.007825032230

  Basis Set: AUG-CC-PVTZ
    Blend: AUG-CC-PVTZ
  Basis Set: (AUG-CC-PVTZ AUX)
    Blend: AUG-CC-PVTZ-JKFIT
	 Reference Energy          =    -287.2784426773957875 [Eh]
	 Singles Energy            =      -0.0000000000000000 [Eh]
	 Same-Spin Energy          =      -0.2927833613982053 [Eh]
	 Opposite-Spin Energy      =      -1.0022166245385937 [Eh]
	 Correlation Energy        =      -1.2949999859367991 [Eh]
	 Total Energy              =    -288.5734426633325711 [Eh]

	 ================> DF-SCS-MP2 Energies <==================
	-----------------------------------------------------------
	 SCS Same-Spin Scale       =       0.3333333333333333 [-]
	 SCS Opposite-Spin Scale   =       1.2000000000000000 [-]
	 SCS Same-Spin Energy      =      -0.0975944537994018 [Eh]
	 SCS Opposite-Spin Energy  =      -1.2026599494463124 [Eh]
	 SCS Correlation Energy    =      -1.3002544032457142 [Eh]
	 SCS Total Energy          =    -288.5786970806415184 [Eh]
	-----------------------------------------------------------

  Dipole Moment: [D]
     X:     0.7050      Y:    -1.2547      Z:     0.6216     Total:     1.5677

*** Psi4 exiting successfully. Buy a developer a beer!
