                               Psi4 1.4a3.dev225

  ==> Input File <==

--------------------------------------------------------------------------
#psi4
#
memory 32 gb

molecule  {
0 1
  O        0.5491460     1.6657540    -0.0835270
  N       -2.2770200    -0.8249540    -0.1044150
  C       -0.0569791     0.3277025    -0.2974672
  C        0.8312550    -0.7148260     0.3726500
  C       -1.4804950     0.3645050     0.1924430
  C        2.2653620    -0.7289500    -0.1466730
  H       -0.0068980     0.2268130    -1.3706510
  H        0.8244310    -0.5451890     1.4596650
  H        0.3655990    -1.6940980     0.2090450
  H       -1.4956300     0.5168070     1.2806640
  H       -1.9758410     1.2324740    -0.2546010
  H        2.8643550    -1.4881460     0.3640660
  H        2.7338870     0.2452880     0.0032600
  H        2.2845280    -0.9484100    -1.2186000
  H       -1.8677700    -1.6459920     0.3360700
  H       -2.2749210    -1.0002390    -1.1082240
  H        0.5361330     1.8319630     0.8766110
units angstrom
no_reorient  #important for SAPT in psi4, default
symmetry c1  #important for SAPT in psi4, default
}

set PROPERTIES_ORIGIN ["COM"]
properties('MP2/aug-cc-pvtz', properties = ['dipole'])
--------------------------------------------------------------------------

    Molecular point group: c1
  Charge       = 0
  Multiplicity = 1
  Basis Set: AUG-CC-PVTZ
    Blend: AUG-CC-PVTZ
  Basis Set: (AUG-CC-PVTZ AUX)
    Blend: AUG-CC-PVTZ-JKFIT

    Orbital Energies [Eh]
    ---------------------

    Doubly Occupied:

       1A    -20.552364     2A    -15.548204     3A    -11.278845
       4A    -11.251883     5A    -11.229281     6A    -11.215044
       7A     -1.339401     8A     -1.185864     9A     -1.055670
      10A     -0.963164    11A     -0.864793    12A     -0.804070
      13A     -0.677575    14A     -0.652616    15A     -0.640795
      16A     -0.628132    17A     -0.582467    18A     -0.555348
      19A     -0.541578    20A     -0.520894    21A     -0.501720
      22A     -0.489099    23A     -0.481469    24A     -0.453338
      25A     -0.392220

  @DF-RHF Final Energy:  -287.28341477454251

   => Energetics <=

    Nuclear Repulsion Energy =            259.5080962327234033
    One-Electron Energy =                -904.7713501164837453
    Two-Electron Energy =                 357.9798391092178917
    Total Energy =                       -287.2834147745425071
  Basis Set: (AUG-CC-PVTZ AUX)
    Blend: AUG-CC-PVTZ-RI
    Molecular point group: c1

    Geometry (in Angstrom), charge = 0, multiplicity = 1:

       Center              X                  Y                   Z               Mass
    ------------   -----------------  -----------------  -----------------  -----------------
         O            0.575958800280     1.634563548408    -0.074940928135    15.994914619570
         N           -2.250207199720    -0.856144451592    -0.095828928135    14.003074004430
         C           -0.030166299720     0.296512048408    -0.288881128135    12.000000000000
         C            0.858067800280    -0.746016451592     0.381236071865    12.000000000000
         C           -1.453682199720     0.333314548408     0.201029071865    12.000000000000
         C            2.292174800280    -0.760140451592    -0.138086928135    12.000000000000
         H            0.019914800280     0.195622548408    -1.362064928135     1.007825032230
         H            0.851243800280    -0.576379451592     1.468251071865     1.007825032230
         H            0.392411800280    -1.725288451592     0.217631071865     1.007825032230
         H           -1.468817199720     0.485616548408     1.289250071865     1.007825032230
         H           -1.949028199720     1.201283548408    -0.246014928135     1.007825032230
         H            2.891167800280    -1.519336451592     0.372652071865     1.007825032230
         H            2.760699800280     0.214097548408     0.011846071865     1.007825032230
         H            2.311340800280    -0.979600451592    -1.210013928135     1.007825032230
         H           -1.840957199720    -1.677182451592     0.344656071865     1.007825032230
         H           -2.248108199720    -1.031429451592    -1.099637928135     1.007825032230
         H            0.562945800280     1.800772548408     0.885197071865     1.007825032230

  Basis Set: AUG-CC-PVTZ
    Blend: AUG-CC-PVTZ
  Basis Set: (AUG-CC-PVTZ AUX)
    Blend: AUG-CC-PVTZ-JKFIT
	 Reference Energy          =    -287.2834147745425071 [Eh]
	 Singles Energy            =      -0.0000000000000000 [Eh]
	 Same-Spin Energy          =      -0.2929016590534521 [Eh]
	 Opposite-Spin Energy      =      -1.0026194440851084 [Eh]
	 Correlation Energy        =      -1.2955211031385605 [Eh]
	 Total Energy              =    -288.5789358776810900 [Eh]

	 ================> DF-SCS-MP2 Energies <==================
	-----------------------------------------------------------
	 SCS Same-Spin Scale       =       0.3333333333333333 [-]
	 SCS Opposite-Spin Scale   =       1.2000000000000000 [-]
	 SCS Same-Spin Energy      =      -0.0976338863511507 [Eh]
	 SCS Opposite-Spin Energy  =      -1.2031433329021299 [Eh]
	 SCS Correlation Energy    =      -1.3007772192532807 [Eh]
	 SCS Total Energy          =    -288.5841919937957982 [Eh]
	-----------------------------------------------------------

  Dipole Moment: [D]
     X:     0.6464      Y:    -1.4324      Z:     0.5994     Total:     1.6819

*** Psi4 exiting successfully. Buy a developer a beer!
