                               Psi4 1.4a3.dev225

  ==> Input File <==

--------------------------------------------------------------------------
#psi4
#
memory 32 gb

molecule  {
0 1
  O        0.5491460     1.6657540    -0.0835270
  N       -2.2770200    -0.8249540    -0.1044150
  C       -0.0231050     0.3654990    -0.2814520
  C        0.8312550    -0.7148260     0.3726500
  C       -1.4720787     0.3680772     0.2175786
  C        2.2653620    -0.7289500    -0.1466730
  H       -0.0068980     0.2268130    -1.3706510
  H        0.8244310    -0.5451890     1.4596650
  H        0.3655990    -1.6940980     0.2090450
  H       -1.4956300     0.5168070     1.2806640
  H       -1.9758410     1.2324740    -0.2546010
  H        2.8643550    -1.4881460     0.3640660
  H        2.7338870     0.2452880     0.0032600
  H        2.2845280    -0.9484100    -1.2186000
  H       -1.8677700    -1.6459920     0.3360700
  H       -2.2749210    -1.0002390    -1.1082240
  H        0.5361330     1.8319630     0.8766110
units angstrom
no_reorient  #important for SAPT in psi4, default
symmetry c1  #important for SAPT in psi4, default
}

set PROPERTIES_ORIGIN ["COM"]
properties('MP2/aug-cc-pvtz', properties = ['dipole'])
--------------------------------------------------------------------------

    Molecular point group: c1
  Charge       = 0
  Multiplicity = 1
  Basis Set: AUG-CC-PVTZ
    Blend: AUG-CC-PVTZ
  Basis Set: (AUG-CC-PVTZ AUX)
    Blend: AUG-CC-PVTZ-JKFIT

    Orbital Energies [Eh]
    ---------------------

    Doubly Occupied:

       1A    -20.558810     2A    -15.547202     3A    -11.278512
       4A    -11.250249     5A    -11.227450     6A    -11.214277
       7A     -1.358720     8A     -1.178933     9A     -1.054267
      10A     -0.958563    11A     -0.863376    12A     -0.806295
      13A     -0.674822    14A     -0.658440    15A     -0.644164
      16A     -0.630844    17A     -0.580951    18A     -0.552471
      19A     -0.545135    20A     -0.524507    21A     -0.501035
      22A     -0.488453    23A     -0.481545    24A     -0.453518
      25A     -0.387229

  @DF-RHF Final Energy:  -287.28585116217715

   => Energetics <=

    Nuclear Repulsion Energy =            259.6615673596066927
    One-Electron Energy =                -905.0553017900929262
    Two-Electron Energy =                 358.1078832683090809
    Total Energy =                       -287.2858511621771527
  Basis Set: (AUG-CC-PVTZ AUX)
    Blend: AUG-CC-PVTZ-RI
    Molecular point group: c1

    Geometry (in Angstrom), charge = 0, multiplicity = 1:

       Center              X                  Y                   Z               Mass
    ------------   -----------------  -----------------  -----------------  -----------------
         O            0.570262104627     1.628991009641    -0.080484114850    15.994914619570
         N           -2.255903895373    -0.861716990359    -0.101372114850    14.003074004430
         C           -0.001988895373     0.328736009641    -0.278409114850    12.000000000000
         C            0.852371104627    -0.751588990359     0.375692885150    12.000000000000
         C           -1.450962595373     0.331314209641     0.220621485150    12.000000000000
         C            2.286478104627    -0.765712990359    -0.143630114850    12.000000000000
         H            0.014218104627     0.190050009641    -1.367608114850     1.007825032230
         H            0.845547104627    -0.581951990359     1.462707885150     1.007825032230
         H            0.386715104627    -1.730860990359     0.212087885150     1.007825032230
         H           -1.474513895373     0.480044009641     1.283706885150     1.007825032230
         H           -1.954724895373     1.195711009641    -0.251558114850     1.007825032230
         H            2.885471104627    -1.524908990359     0.367108885150     1.007825032230
         H            2.755003104627     0.208525009641     0.006302885150     1.007825032230
         H            2.305644104627    -0.985172990359    -1.215557114850     1.007825032230
         H           -1.846653895373    -1.682754990359     0.339112885150     1.007825032230
         H           -2.253804895373    -1.037001990359    -1.105181114850     1.007825032230
         H            0.557249104627     1.795200009641     0.879653885150     1.007825032230

  Basis Set: AUG-CC-PVTZ
    Blend: AUG-CC-PVTZ
  Basis Set: (AUG-CC-PVTZ AUX)
    Blend: AUG-CC-PVTZ-JKFIT
	 Reference Energy          =    -287.2858511621771527 [Eh]
	 Singles Energy            =      -0.0000000000000000 [Eh]
	 Same-Spin Energy          =      -0.2927041054161675 [Eh]
	 Opposite-Spin Energy      =      -1.0018533646287908 [Eh]
	 Correlation Energy        =      -1.2945574700449582 [Eh]
	 Total Energy              =    -288.5804086322220883 [Eh]

	 ================> DF-SCS-MP2 Energies <==================
	-----------------------------------------------------------
	 SCS Same-Spin Scale       =       0.3333333333333333 [-]
	 SCS Opposite-Spin Scale   =       1.2000000000000000 [-]
	 SCS Same-Spin Energy      =      -0.0975680351387225 [Eh]
	 SCS Opposite-Spin Energy  =      -1.2022240375545490 [Eh]
	 SCS Correlation Energy    =      -1.2997920726932715 [Eh]
	 SCS Total Energy          =    -288.5856432348704175 [Eh]
	-----------------------------------------------------------

  Dipole Moment: [D]
     X:     0.7419      Y:    -1.2786      Z:     0.6528     Total:     1.6160

*** Psi4 exiting successfully. Buy a developer a beer!
