                               Psi4 1.4a3.dev225

  ==> Input File <==

--------------------------------------------------------------------------
#psi4
#
memory 32 gb

molecule  {
0 1
  O        0.5491460     1.6657540    -0.0835270
  N       -2.2770200    -0.8249540    -0.1044150
  C       -0.0231050     0.3654990    -0.2814520
  C        0.8312550    -0.7148260     0.3726500
  C       -1.4804950     0.3645050     0.1924430
  C        2.2653620    -0.7289500    -0.1466730
  H       -0.0068980     0.2268130    -1.3706510
  H        0.8244310    -0.5451890     1.4596650
  H        0.2806733    -1.8726962     0.1792070
  H       -1.4956300     0.5168070     1.2806640
  H       -1.9758410     1.2324740    -0.2546010
  H        2.8643550    -1.4881460     0.3640660
  H        2.7338870     0.2452880     0.0032600
  H        2.2845280    -0.9484100    -1.2186000
  H       -1.8677700    -1.6459920     0.3360700
  H       -2.2749210    -1.0002390    -1.1082240
  H        0.5361330     1.8319630     0.8766110
units angstrom
no_reorient  #important for SAPT in psi4, default
symmetry c1  #important for SAPT in psi4, default
}

set PROPERTIES_ORIGIN ["COM"]
properties('MP2/aug-cc-pvtz', properties = ['dipole'])
--------------------------------------------------------------------------

    Molecular point group: c1
  Charge       = 0
  Multiplicity = 1
  Basis Set: AUG-CC-PVTZ
    Blend: AUG-CC-PVTZ
  Basis Set: (AUG-CC-PVTZ AUX)
    Blend: AUG-CC-PVTZ-JKFIT

    Orbital Energies [Eh]
    ---------------------

    Doubly Occupied:

       1A    -20.562153     2A    -15.545937     3A    -11.280730
       4A    -11.251401     5A    -11.250964     6A    -11.217207
       7A     -1.361416     8A     -1.181597     9A     -1.049758
      10A     -0.959226    11A     -0.860332    12A     -0.800060
      13A     -0.673546    14A     -0.659604    15A     -0.637986
      16A     -0.627248    17A     -0.580424    18A     -0.555951
      19A     -0.544148    20A     -0.522247    21A     -0.502620
      22A     -0.485265    23A     -0.468386    24A     -0.452863
      25A     -0.386637

  @DF-RHF Final Energy:  -287.26655860020287

   => Energetics <=

    Nuclear Repulsion Energy =            258.9166159267975900
    One-Electron Energy =                -903.5309387927239868
    Two-Electron Energy =                 357.3477642657235265
    Total Energy =                       -287.2665586002028704
  Basis Set: (AUG-CC-PVTZ AUX)
    Blend: AUG-CC-PVTZ-RI
    Molecular point group: c1

    Geometry (in Angstrom), charge = 0, multiplicity = 1:

       Center              X                  Y                   Z               Mass
    ------------   -----------------  -----------------  -----------------  -----------------
         O            0.572356596481     1.631492715633    -0.076760680282    15.994914619570
         N           -2.253809403519    -0.859215284367    -0.097648680282    14.003074004430
         C            0.000105596481     0.331237715633    -0.274685680282    12.000000000000
         C            0.854465596481    -0.749087284367     0.379416319718    12.000000000000
         C           -1.457284403519     0.330243715633     0.199209319718    12.000000000000
         C            2.288572596481    -0.763211284367    -0.139906680282    12.000000000000
         H            0.016312596481     0.192551715633    -1.363884680282     1.007825032230
         H            0.847641596481    -0.579450284367     1.466431319718     1.007825032230
         H            0.303883896481    -1.906957484367     0.185973319718     1.007825032230
         H           -1.472419403519     0.482545715633     1.287430319718     1.007825032230
         H           -1.952630403519     1.198212715633    -0.247834680282     1.007825032230
         H            2.887565596481    -1.522407284367     0.370832319718     1.007825032230
         H            2.757097596481     0.211026715633     0.010026319718     1.007825032230
         H            2.307738596481    -0.982671284367    -1.211833680282     1.007825032230
         H           -1.844559403519    -1.680253284367     0.342836319718     1.007825032230
         H           -2.251710403519    -1.034500284367    -1.101457680282     1.007825032230
         H            0.559343596481     1.797701715633     0.883377319718     1.007825032230

  Basis Set: AUG-CC-PVTZ
    Blend: AUG-CC-PVTZ
  Basis Set: (AUG-CC-PVTZ AUX)
    Blend: AUG-CC-PVTZ-JKFIT
	 Reference Energy          =    -287.2665586002028704 [Eh]
	 Singles Energy            =      -0.0000000000000000 [Eh]
	 Same-Spin Energy          =      -0.2929620388282582 [Eh]
	 Opposite-Spin Energy      =      -1.0036127317090753 [Eh]
	 Correlation Energy        =      -1.2965747705373336 [Eh]
	 Total Energy              =    -288.5631333707402177 [Eh]

	 ================> DF-SCS-MP2 Energies <==================
	-----------------------------------------------------------
	 SCS Same-Spin Scale       =       0.3333333333333333 [-]
	 SCS Opposite-Spin Scale   =       1.2000000000000000 [-]
	 SCS Same-Spin Energy      =      -0.0976540129427527 [Eh]
	 SCS Opposite-Spin Energy  =      -1.2043352780508902 [Eh]
	 SCS Correlation Energy    =      -1.3019892909936430 [Eh]
	 SCS Total Energy          =    -288.5685478911964879 [Eh]
	-----------------------------------------------------------

  Dipole Moment: [D]
     X:     0.8253      Y:    -1.1399      Z:     0.6226     Total:     1.5389

*** Psi4 exiting successfully. Buy a developer a beer!
