                               Psi4 1.4a3.dev225

  ==> Input File <==

--------------------------------------------------------------------------
#psi4
#
memory 32 gb

molecule  {
0 1
  O        0.5491460     1.6657540    -0.0835270
  N       -2.2770200    -0.8249540    -0.1044150
  C       -0.0231050     0.3654990    -0.2814520
  C        0.8312550    -0.7148260     0.3726500
  C       -1.4804950     0.3645050     0.1924430
  C        2.2653620    -0.7289500    -0.1466730
  H       -0.0068980     0.2268130    -1.3706510
  H        0.8244310    -0.5451890     1.4596650
  H        0.3655990    -1.6940980     0.2090450
  H       -1.4956300     0.5168070     1.2806640
  H       -1.9758410     1.2324740    -0.2546010
  H        2.8643550    -1.4881460     0.3640660
  H        2.7338870     0.2452880     0.0032600
  H        2.2845280    -0.9484100    -1.2186000
  H       -1.8677700    -1.6459920     0.3360700
  H       -2.2749210    -1.0002390    -1.1082240
  H        0.5347977     1.8490187     0.9751367
units angstrom
no_reorient  #important for SAPT in psi4, default
symmetry c1  #important for SAPT in psi4, default
}

set PROPERTIES_ORIGIN ["COM"]
properties('MP2/aug-cc-pvtz', properties = ['dipole'])
--------------------------------------------------------------------------

    Molecular point group: c1
  Charge       = 0
  Multiplicity = 1
  Basis Set: AUG-CC-PVTZ
    Blend: AUG-CC-PVTZ
  Basis Set: (AUG-CC-PVTZ AUX)
    Blend: AUG-CC-PVTZ-JKFIT

    Orbital Energies [Eh]
    ---------------------

    Doubly Occupied:

       1A    -20.567722     2A    -15.547375     3A    -11.277673
       4A    -11.250260     5A    -11.227138     6A    -11.213926
       7A     -1.340677     8A     -1.182113     9A     -1.051919
      10A     -0.955565    11A     -0.862040    12A     -0.797995
      13A     -0.675798    14A     -0.645984    15A     -0.641808
      16A     -0.628879    17A     -0.580204    18A     -0.554797
      19A     -0.537916    20A     -0.520212    21A     -0.501236
      22A     -0.487878    23A     -0.479445    24A     -0.451742
      25A     -0.386998

  @DF-RHF Final Energy:  -287.27323380920984

   => Energetics <=

    Nuclear Repulsion Energy =            259.1758226674668890
    One-Electron Energy =                -904.1635092187336795
    Two-Electron Energy =                 357.7144527420568920
    Total Energy =                       -287.2732338092098416
  Basis Set: (AUG-CC-PVTZ AUX)
    Blend: AUG-CC-PVTZ-RI
    Molecular point group: c1

    Geometry (in Angstrom), charge = 0, multiplicity = 1:

       Center              X                  Y                   Z               Mass
    ------------   -----------------  -----------------  -----------------  -----------------
         O            0.571410922319     1.629279245690    -0.078212883339    15.994914619570
         N           -2.254755077681    -0.861428754310    -0.099100883339    14.003074004430
         C           -0.000840077681     0.329024245690    -0.276137883339    12.000000000000
         C            0.853519922319    -0.751300754310     0.377964116661    12.000000000000
         C           -1.458230077681     0.328030245690     0.197757116661    12.000000000000
         C            2.287626922319    -0.765424754310    -0.141358883339    12.000000000000
         H            0.015366922319     0.190338245690    -1.365336883339     1.007825032230
         H            0.846695922319    -0.581663754310     1.464979116661     1.007825032230
         H            0.387863922319    -1.730572754310     0.214359116661     1.007825032230
         H           -1.473365077681     0.480332245690     1.285978116661     1.007825032230
         H           -1.953576077681     1.195999245690    -0.249286883339     1.007825032230
         H            2.886619922319    -1.524620754310     0.369380116661     1.007825032230
         H            2.756151922319     0.208813245690     0.008574116661     1.007825032230
         H            2.306792922319    -0.984884754310    -1.213285883339     1.007825032230
         H           -1.845505077681    -1.682466754310     0.341384116661     1.007825032230
         H           -2.252656077681    -1.036713754310    -1.102909883339     1.007825032230
         H            0.557062622319     1.812543945690     0.980450816661     1.007825032230

  Basis Set: AUG-CC-PVTZ
    Blend: AUG-CC-PVTZ
  Basis Set: (AUG-CC-PVTZ AUX)
    Blend: AUG-CC-PVTZ-JKFIT
	 Reference Energy          =    -287.2732338092098416 [Eh]
	 Singles Energy            =      -0.0000000000000000 [Eh]
	 Same-Spin Energy          =      -0.2939261579243818 [Eh]
	 Opposite-Spin Energy      =      -1.0050570319234742 [Eh]
	 Correlation Energy        =      -1.2989831898478559 [Eh]
	 Total Energy              =    -288.5722169990576731 [Eh]

	 ================> DF-SCS-MP2 Energies <==================
	-----------------------------------------------------------
	 SCS Same-Spin Scale       =       0.3333333333333333 [-]
	 SCS Opposite-Spin Scale   =       1.2000000000000000 [-]
	 SCS Same-Spin Energy      =      -0.0979753859747939 [Eh]
	 SCS Opposite-Spin Energy  =      -1.2060684383081690 [Eh]
	 SCS Correlation Energy    =      -1.3040438242829628 [Eh]
	 SCS Total Energy          =    -288.5772776334928267 [Eh]
	-----------------------------------------------------------

  Dipole Moment: [D]
     X:     0.7263      Y:    -1.2710      Z:     0.6756     Total:     1.6123

*** Psi4 exiting successfully. Buy a developer a beer!
