                               Psi4 1.4a3.dev225

  ==> Input File <==

--------------------------------------------------------------------------
#psi4
#
memory 32 gb

molecule  {
0 1
  O        0.5491460     1.6657540    -0.0835270
  N       -2.2429603    -0.8530524    -0.0788320
  C       -0.0231050     0.3654990    -0.2814520
  C        0.8312550    -0.7148260     0.3726500
  C       -1.4804950     0.3645050     0.1924430
  C        2.2653620    -0.7289500    -0.1466730
  H       -0.0068980     0.2268130    -1.3706510
  H        0.8244310    -0.5451890     1.4596650
  H        0.3655990    -1.6940980     0.2090450
  H       -1.4956300     0.5168070     1.2806640
  H       -1.9758410     1.2324740    -0.2546010
  H        2.8643550    -1.4881460     0.3640660
  H        2.7338870     0.2452880     0.0032600
  H        2.2845280    -0.9484100    -1.2186000
  H       -1.8677700    -1.6459920     0.3360700
  H       -2.2749210    -1.0002390    -1.1082240
  H        0.5361330     1.8319630     0.8766110
units angstrom
no_reorient  #important for SAPT in psi4, default
symmetry c1  #important for SAPT in psi4, default
}

set PROPERTIES_ORIGIN ["COM"]
properties('MP2/aug-cc-pvtz', properties = ['dipole'])
--------------------------------------------------------------------------

    Molecular point group: c1
  Charge       = 0
  Multiplicity = 1
  Basis Set: AUG-CC-PVTZ
    Blend: AUG-CC-PVTZ
  Basis Set: (AUG-CC-PVTZ AUX)
    Blend: AUG-CC-PVTZ-JKFIT

    Orbital Energies [Eh]
    ---------------------

    Doubly Occupied:

       1A    -20.558375     2A    -15.543642     3A    -11.277299
       4A    -11.251210     5A    -11.226935     6A    -11.213865
       7A     -1.358042     8A     -1.185021     9A     -1.053700
      10A     -0.959020    11A     -0.863610    12A     -0.804509
      13A     -0.682929    14A     -0.656550    15A     -0.643789
      16A     -0.632683    17A     -0.580932    18A     -0.561757
      19A     -0.540942    20A     -0.519328    21A     -0.502883
      22A     -0.487930    23A     -0.481049    24A     -0.452146
      25A     -0.384961

  @DF-RHF Final Energy:  -287.28476531309042

   => Energetics <=

    Nuclear Repulsion Energy =            260.0375713467264518
    One-Electron Energy =                -905.7984653081442730
    Two-Electron Energy =                 358.4761286483274603
    Total Energy =                       -287.2847653130904177
  Basis Set: (AUG-CC-PVTZ AUX)
    Blend: AUG-CC-PVTZ-RI
    Molecular point group: c1

    Geometry (in Angstrom), charge = 0, multiplicity = 1:

       Center              X                  Y                   Z               Mass
    ------------   -----------------  -----------------  -----------------  -----------------
         O            0.566041990694     1.633888971803    -0.081119620683    15.994914619570
         N           -2.226064309306    -0.884917428197    -0.076424620683    14.003074004430
         C           -0.006209009306     0.333633971803    -0.279044620683    12.000000000000
         C            0.848150990694    -0.746691028197     0.375057379317    12.000000000000
         C           -1.463599009306     0.332639971803     0.194850379317    12.000000000000
         C            2.282257990694    -0.760815028197    -0.144265620683    12.000000000000
         H            0.009997990694     0.194947971803    -1.368243620683     1.007825032230
         H            0.841326990694    -0.577054028197     1.462072379317     1.007825032230
         H            0.382494990694    -1.725963028197     0.211452379317     1.007825032230
         H           -1.478734009306     0.484941971803     1.283071379317     1.007825032230
         H           -1.958945009306     1.200608971803    -0.252193620683     1.007825032230
         H            2.881250990694    -1.520011028197     0.366473379317     1.007825032230
         H            2.750782990694     0.213422971803     0.005667379317     1.007825032230
         H            2.301423990694    -0.980275028197    -1.216192620683     1.007825032230
         H           -1.850874009306    -1.677857028197     0.338477379317     1.007825032230
         H           -2.258025009306    -1.032104028197    -1.105816620683     1.007825032230
         H            0.553028990694     1.800097971803     0.879018379317     1.007825032230

  Basis Set: AUG-CC-PVTZ
    Blend: AUG-CC-PVTZ
  Basis Set: (AUG-CC-PVTZ AUX)
    Blend: AUG-CC-PVTZ-JKFIT
	 Reference Energy          =    -287.2847653130904177 [Eh]
	 Singles Energy            =      -0.0000000000000000 [Eh]
	 Same-Spin Energy          =      -0.2926709133153714 [Eh]
	 Opposite-Spin Energy      =      -1.0013632125019676 [Eh]
	 Correlation Energy        =      -1.2940341258173391 [Eh]
	 Total Energy              =    -288.5787994389077653 [Eh]

	 ================> DF-SCS-MP2 Energies <==================
	-----------------------------------------------------------
	 SCS Same-Spin Scale       =       0.3333333333333333 [-]
	 SCS Opposite-Spin Scale   =       1.2000000000000000 [-]
	 SCS Same-Spin Energy      =      -0.0975569711051238 [Eh]
	 SCS Opposite-Spin Energy  =      -1.2016358550023611 [Eh]
	 SCS Correlation Energy    =      -1.2991928261074850 [Eh]
	 SCS Total Energy          =    -288.5839581391978754 [Eh]
	-----------------------------------------------------------

  Dipole Moment: [D]
     X:     0.6347      Y:    -1.2713      Z:     0.6038     Total:     1.5439

*** Psi4 exiting successfully. Buy a developer a beer!
