                               Psi4 1.4a3.dev225

  ==> Input File <==

--------------------------------------------------------------------------
#psi4
#
memory 32 gb

molecule  {
0 1
  O        0.5491460     1.6657540    -0.0835270
  N       -2.2770200    -0.8249540    -0.1044150
  C       -0.0231050     0.3654990    -0.2814520
  C        0.8312550    -0.7148260     0.3726500
  C       -1.4804950     0.3645050     0.1924430
  C        2.2653620    -0.7289500    -0.1466730
  H       -0.0068980     0.2268130    -1.3706510
  H        0.8244310    -0.5451890     1.4596650
  H        0.3655990    -1.6940980     0.2090450
  H       -1.4956300     0.5168070     1.2806640
  H       -1.9758410     1.2324740    -0.2546010
  H        2.8643550    -1.4881460     0.3640660
  H        2.7338870     0.2452880     0.0032600
  H        2.2845280    -0.9484100    -1.2186000
  H       -1.9079851    -1.5653124     0.2927856
  H       -2.2749210    -1.0002390    -1.1082240
  H        0.5361330     1.8319630     0.8766110
units angstrom
no_reorient  #important for SAPT in psi4, default
symmetry c1  #important for SAPT in psi4, default
}

set PROPERTIES_ORIGIN ["COM"]
properties('MP2/aug-cc-pvtz', properties = ['dipole'])
--------------------------------------------------------------------------

    Molecular point group: c1
  Charge       = 0
  Multiplicity = 1
  Basis Set: AUG-CC-PVTZ
    Blend: AUG-CC-PVTZ
  Basis Set: (AUG-CC-PVTZ AUX)
    Blend: AUG-CC-PVTZ-JKFIT

    Orbital Energies [Eh]
    ---------------------

    Doubly Occupied:

       1A    -20.559132     2A    -15.536020     3A    -11.278351
       4A    -11.250491     5A    -11.227858     6A    -11.214431
       7A     -1.358713     8A     -1.198003     9A     -1.055526
      10A     -0.962575    11A     -0.865571    12A     -0.805716
      13A     -0.691428    14A     -0.658659    15A     -0.645508
      16A     -0.634112    17A     -0.581195    18A     -0.560554
      19A     -0.544393    20A     -0.521213    21A     -0.502733
      22A     -0.488602    23A     -0.482725    24A     -0.453564
      25A     -0.388898

  @DF-RHF Final Energy:  -287.27998514992225

   => Energetics <=

    Nuclear Repulsion Energy =            260.2078522005317041
    One-Electron Energy =                -906.0437337241703517
    Two-Electron Energy =                 358.5558963737163367
    Total Energy =                       -287.2799851499222541
  Basis Set: (AUG-CC-PVTZ AUX)
    Blend: AUG-CC-PVTZ-RI
    Molecular point group: c1

    Geometry (in Angstrom), charge = 0, multiplicity = 1:

       Center              X                  Y                   Z               Mass
    ------------   -----------------  -----------------  -----------------  -----------------
         O            0.571850776923     1.628559456356    -0.076608558590    15.994914619570
         N           -2.254315223077    -0.862148543644    -0.097496558590    14.003074004430
         C           -0.000400223077     0.328304456356    -0.274533558590    12.000000000000
         C            0.853959776923    -0.752020543644     0.379568441410    12.000000000000
         C           -1.457790223077     0.327310456356     0.199361441410    12.000000000000
         C            2.288066776923    -0.766144543644    -0.139754558590    12.000000000000
         H            0.015806776923     0.189618456356    -1.363732558590     1.007825032230
         H            0.847135776923    -0.582383543644     1.466583441410     1.007825032230
         H            0.388303776923    -1.731292543644     0.215963441410     1.007825032230
         H           -1.472925223077     0.479612456356     1.287582441410     1.007825032230
         H           -1.953136223077     1.195279456356    -0.247682558590     1.007825032230
         H            2.887059776923    -1.525340543644     0.370984441410     1.007825032230
         H            2.756591776923     0.208093456356     0.010178441410     1.007825032230
         H            2.307232776923    -0.985604543644    -1.211681558590     1.007825032230
         H           -1.885280323077    -1.602506943644     0.299704041410     1.007825032230
         H           -2.252216223077    -1.037433543644    -1.101305558590     1.007825032230
         H            0.558837776923     1.794768456356     0.883529441410     1.007825032230

  Basis Set: AUG-CC-PVTZ
    Blend: AUG-CC-PVTZ
  Basis Set: (AUG-CC-PVTZ AUX)
    Blend: AUG-CC-PVTZ-JKFIT
	 Reference Energy          =    -287.2799851499222541 [Eh]
	 Singles Energy            =      -0.0000000000000000 [Eh]
	 Same-Spin Energy          =      -0.2922756476622956 [Eh]
	 Opposite-Spin Energy      =      -1.0003077048046516 [Eh]
	 Correlation Energy        =      -1.2925833524669472 [Eh]
	 Total Energy              =    -288.5725685023891742 [Eh]

	 ================> DF-SCS-MP2 Energies <==================
	-----------------------------------------------------------
	 SCS Same-Spin Scale       =       0.3333333333333333 [-]
	 SCS Opposite-Spin Scale   =       1.2000000000000000 [-]
	 SCS Same-Spin Energy      =      -0.0974252158874319 [Eh]
	 SCS Opposite-Spin Energy  =      -1.2003692457655819 [Eh]
	 SCS Correlation Energy    =      -1.2977944616530137 [Eh]
	 SCS Total Energy          =    -288.5777796115752949 [Eh]
	-----------------------------------------------------------

  Dipole Moment: [D]
     X:     0.7201      Y:    -1.2893      Z:     0.6072     Total:     1.5967

*** Psi4 exiting successfully. Buy a developer a beer!
