                               Psi4 1.4a3.dev225

  ==> Input File <==

--------------------------------------------------------------------------
#psi4
#
memory 32 gb

molecule  {
0 1
  O        0.5491460     1.6657540    -0.0835270
  N       -2.2770200    -0.8249540    -0.1044150
  C        0.0477233     0.4370989    -0.2470513
  C        0.8312550    -0.7148260     0.3726500
  C       -1.4804950     0.3645050     0.1924430
  C        2.2653620    -0.7289500    -0.1466730
  H       -0.0068980     0.2268130    -1.3706510
  H        0.8244310    -0.5451890     1.4596650
  H        0.3655990    -1.6940980     0.2090450
  H       -1.4956300     0.5168070     1.2806640
  H       -1.9758410     1.2324740    -0.2546010
  H        2.8643550    -1.4881460     0.3640660
  H        2.7338870     0.2452880     0.0032600
  H        2.2845280    -0.9484100    -1.2186000
  H       -1.8677700    -1.6459920     0.3360700
  H       -2.2749210    -1.0002390    -1.1082240
  H        0.5361330     1.8319630     0.8766110
units angstrom
no_reorient  #important for SAPT in psi4, default
symmetry c1  #important for SAPT in psi4, default
}

set PROPERTIES_ORIGIN ["COM"]
properties('MP2/aug-cc-pvtz', properties = ['dipole'])
--------------------------------------------------------------------------

    Molecular point group: c1
  Charge       = 0
  Multiplicity = 1
  Basis Set: AUG-CC-PVTZ
    Blend: AUG-CC-PVTZ
  Basis Set: (AUG-CC-PVTZ AUX)
    Blend: AUG-CC-PVTZ-JKFIT

    Orbital Energies [Eh]
    ---------------------

    Doubly Occupied:

       1A    -20.571757     2A    -15.547011     3A    -11.279902
       4A    -11.248048     5A    -11.225359     6A    -11.213167
       7A     -1.403260     8A     -1.177681     9A     -1.052268
      10A     -0.947507    11A     -0.859406    12A     -0.812670
      13A     -0.678151    14A     -0.669354    15A     -0.652943
      16A     -0.642235    17A     -0.582875    18A     -0.561432
      19A     -0.539463    20A     -0.524935    21A     -0.505132
      22A     -0.490917    23A     -0.470376    24A     -0.445154
      25A     -0.374169

  @DF-RHF Final Energy:  -287.27601758328757

   => Energetics <=

    Nuclear Repulsion Energy =            260.1974105937462127
    One-Electron Energy =                -905.9965137712678143
    Two-Electron Energy =                 358.5230855942340327
    Total Energy =                       -287.2760175832875689
  Basis Set: (AUG-CC-PVTZ AUX)
    Blend: AUG-CC-PVTZ-RI
    Molecular point group: c1

    Geometry (in Angstrom), charge = 0, multiplicity = 1:

       Center              X                  Y                   Z               Mass
    ------------   -----------------  -----------------  -----------------  -----------------
         O            0.561854944395     1.619827390880    -0.081732162986    15.994914619570
         N           -2.264311055605    -0.870880609120    -0.102620162986    14.003074004430
         C            0.060432244395     0.391172290880    -0.245256462986    12.000000000000
         C            0.843963944395    -0.760752609120     0.374444837014    12.000000000000
         C           -1.467786055605     0.318578390880     0.194237837014    12.000000000000
         C            2.278070944395    -0.774876609120    -0.144878162986    12.000000000000
         H            0.005810944395     0.180886390880    -1.368856162986     1.007825032230
         H            0.837139944395    -0.591115609120     1.461459837014     1.007825032230
         H            0.378307944395    -1.740024609120     0.210839837014     1.007825032230
         H           -1.482921055605     0.470880390880     1.282458837014     1.007825032230
         H           -1.963132055605     1.186547390880    -0.252806162986     1.007825032230
         H            2.877063944395    -1.534072609120     0.365860837014     1.007825032230
         H            2.746595944395     0.199361390880     0.005054837014     1.007825032230
         H            2.297236944395    -0.994336609120    -1.216805162986     1.007825032230
         H           -1.855061055605    -1.691918609120     0.337864837014     1.007825032230
         H           -2.262212055605    -1.046165609120    -1.106429162986     1.007825032230
         H            0.548841944395     1.786036390880     0.878405837014     1.007825032230

  Basis Set: AUG-CC-PVTZ
    Blend: AUG-CC-PVTZ
  Basis Set: (AUG-CC-PVTZ AUX)
    Blend: AUG-CC-PVTZ-JKFIT
	 Reference Energy          =    -287.2760175832875689 [Eh]
	 Singles Energy            =      -0.0000000000000000 [Eh]
	 Same-Spin Energy          =      -0.2931643977773197 [Eh]
	 Opposite-Spin Energy      =      -1.0013955616389598 [Eh]
	 Correlation Energy        =      -1.2945599594162795 [Eh]
	 Total Energy              =    -288.5705775427038589 [Eh]

	 ================> DF-SCS-MP2 Energies <==================
	-----------------------------------------------------------
	 SCS Same-Spin Scale       =       0.3333333333333333 [-]
	 SCS Opposite-Spin Scale   =       1.2000000000000000 [-]
	 SCS Same-Spin Energy      =      -0.0977214659257732 [Eh]
	 SCS Opposite-Spin Energy  =      -1.2016746739667516 [Eh]
	 SCS Correlation Energy    =      -1.2993961398925249 [Eh]
	 SCS Total Energy          =    -288.5754137231800769 [Eh]
	-----------------------------------------------------------

  Dipole Moment: [D]
     X:     0.8815      Y:    -1.0304      Z:     0.6985     Total:     1.5253

*** Psi4 exiting successfully. Buy a developer a beer!
