                               Psi4 1.4a3.dev225

  ==> Input File <==

--------------------------------------------------------------------------
#psi4
#
memory 32 gb

molecule  {
0 1
  O        0.5491460     1.6657540    -0.0835270
  N       -2.2770200    -0.8249540    -0.1044150
  C       -0.0231050     0.3654990    -0.2814520
  C        0.8312550    -0.7148260     0.3726500
  C       -1.4532537     0.4051847     0.2025956
  C        2.2653620    -0.7289500    -0.1466730
  H       -0.0068980     0.2268130    -1.3706510
  H        0.8244310    -0.5451890     1.4596650
  H        0.3655990    -1.6940980     0.2090450
  H       -1.4956300     0.5168070     1.2806640
  H       -1.9758410     1.2324740    -0.2546010
  H        2.8643550    -1.4881460     0.3640660
  H        2.7338870     0.2452880     0.0032600
  H        2.2845280    -0.9484100    -1.2186000
  H       -1.8677700    -1.6459920     0.3360700
  H       -2.2749210    -1.0002390    -1.1082240
  H        0.5361330     1.8319630     0.8766110
units angstrom
no_reorient  #important for SAPT in psi4, default
symmetry c1  #important for SAPT in psi4, default
}

set PROPERTIES_ORIGIN ["COM"]
properties('MP2/aug-cc-pvtz', properties = ['dipole'])
--------------------------------------------------------------------------

    Molecular point group: c1
  Charge       = 0
  Multiplicity = 1
  Basis Set: AUG-CC-PVTZ
    Blend: AUG-CC-PVTZ
  Basis Set: (AUG-CC-PVTZ AUX)
    Blend: AUG-CC-PVTZ-JKFIT

    Orbital Energies [Eh]
    ---------------------

    Doubly Occupied:

       1A    -20.558458     2A    -15.546159     3A    -11.278727
       4A    -11.250200     5A    -11.228491     6A    -11.215030
       7A     -1.359725     8A     -1.169234     9A     -1.055035
      10A     -0.963064    11A     -0.865026    12A     -0.806518
      13A     -0.674309    14A     -0.657527    15A     -0.643623
      16A     -0.630948    17A     -0.579666    18A     -0.553971
      19A     -0.542411    20A     -0.520797    21A     -0.505152
      22A     -0.488827    23A     -0.480800    24A     -0.453890
      25A     -0.390583

  @DF-RHF Final Energy:  -287.28441668581360

   => Energetics <=

    Nuclear Repulsion Energy =            259.6683828650413943
    One-Electron Energy =                -905.0692587195705983
    Two-Electron Energy =                 358.1164591687156076
    Total Energy =                       -287.2844166858135964
  Basis Set: (AUG-CC-PVTZ AUX)
    Blend: AUG-CC-PVTZ-RI
    Molecular point group: c1

    Geometry (in Angstrom), charge = 0, multiplicity = 1:

       Center              X                  Y                   Z               Mass
    ------------   -----------------  -----------------  -----------------  -----------------
         O            0.567726297549     1.623992472528    -0.078465841413    15.994914619570
         N           -2.258439702451    -0.866715527472    -0.099353841413    14.003074004430
         C           -0.004524702451     0.323737472528    -0.276390841413    12.000000000000
         C            0.849835297549    -0.756587527472     0.377711158587    12.000000000000
         C           -1.434673402451     0.363423172528     0.207656758587    12.000000000000
         C            2.283942297549    -0.770711527472    -0.141611841413    12.000000000000
         H            0.011682297549     0.185051472528    -1.365589841413     1.007825032230
         H            0.843011297549    -0.586950527472     1.464726158587     1.007825032230
         H            0.384179297549    -1.735859527472     0.214106158587     1.007825032230
         H           -1.477049702451     0.475045472528     1.285725158587     1.007825032230
         H           -1.957260702451     1.190712472528    -0.249539841413     1.007825032230
         H            2.882935297549    -1.529907527472     0.369127158587     1.007825032230
         H            2.752467297549     0.203526472528     0.008321158587     1.007825032230
         H            2.303108297549    -0.990171527472    -1.213538841413     1.007825032230
         H           -1.849189702451    -1.687753527472     0.341131158587     1.007825032230
         H           -2.256340702451    -1.042000527472    -1.103162841413     1.007825032230
         H            0.554713297549     1.790201472528     0.881672158587     1.007825032230

  Basis Set: AUG-CC-PVTZ
    Blend: AUG-CC-PVTZ
  Basis Set: (AUG-CC-PVTZ AUX)
    Blend: AUG-CC-PVTZ-JKFIT
	 Reference Energy          =    -287.2844166858135964 [Eh]
	 Singles Energy            =      -0.0000000000000000 [Eh]
	 Same-Spin Energy          =      -0.2926668190548281 [Eh]
	 Opposite-Spin Energy      =      -1.0020653673346973 [Eh]
	 Correlation Energy        =      -1.2947321863895254 [Eh]
	 Total Energy              =    -288.5791488722031204 [Eh]

	 ================> DF-SCS-MP2 Energies <==================
	-----------------------------------------------------------
	 SCS Same-Spin Scale       =       0.3333333333333333 [-]
	 SCS Opposite-Spin Scale   =       1.2000000000000000 [-]
	 SCS Same-Spin Energy      =      -0.0975556063516093 [Eh]
	 SCS Opposite-Spin Energy  =      -1.2024784408016367 [Eh]
	 SCS Correlation Energy    =      -1.3000340471532461 [Eh]
	 SCS Total Energy          =    -288.5844507329668431 [Eh]
	-----------------------------------------------------------

  Dipole Moment: [D]
     X:     0.8066      Y:    -1.2167      Z:     0.6490     Total:     1.5975

*** Psi4 exiting successfully. Buy a developer a beer!
