                               Psi4 1.4a3.dev225

  ==> Input File <==

--------------------------------------------------------------------------
#psi4
#
memory 32 gb

molecule  {
0 1
  O        0.5491460     1.6657540    -0.0835270
  N       -2.2770200    -0.8249540    -0.1044150
  C       -0.0231050     0.3654990    -0.2814520
  C        0.8312550    -0.7148260     0.3726500
  C       -1.4614753     0.3645180     0.1862584
  C        2.2653620    -0.7289500    -0.1466730
  H       -0.0068980     0.2268130    -1.3706510
  H        0.8244310    -0.5451890     1.4596650
  H        0.3655990    -1.6940980     0.2090450
  H       -1.4956300     0.5168070     1.2806640
  H       -1.9758410     1.2324740    -0.2546010
  H        2.8643550    -1.4881460     0.3640660
  H        2.7338870     0.2452880     0.0032600
  H        2.2845280    -0.9484100    -1.2186000
  H       -1.8677700    -1.6459920     0.3360700
  H       -2.2749210    -1.0002390    -1.1082240
  H        0.5361330     1.8319630     0.8766110
units angstrom
no_reorient  #important for SAPT in psi4, default
symmetry c1  #important for SAPT in psi4, default
}

set PROPERTIES_ORIGIN ["COM"]
properties('MP2/aug-cc-pvtz', properties = ['dipole'])
--------------------------------------------------------------------------

    Molecular point group: c1
  Charge       = 0
  Multiplicity = 1
  Basis Set: AUG-CC-PVTZ
    Blend: AUG-CC-PVTZ
  Basis Set: (AUG-CC-PVTZ AUX)
    Blend: AUG-CC-PVTZ-JKFIT

    Orbital Energies [Eh]
    ---------------------

    Doubly Occupied:

       1A    -20.559355     2A    -15.548161     3A    -11.278009
       4A    -11.251169     5A    -11.227887     6A    -11.214502
       7A     -1.359364     8A     -1.181197     9A     -1.055166
      10A     -0.961141    11A     -0.862156    12A     -0.805340
      13A     -0.675667    14A     -0.659490    15A     -0.644790
      16A     -0.632728    17A     -0.580912    18A     -0.554142
      19A     -0.543498    20A     -0.519644    21A     -0.500921
      22A     -0.488671    23A     -0.481294    24A     -0.452940
      25A     -0.391176

  @DF-RHF Final Energy:  -287.28591354983246

   => Energetics <=

    Nuclear Repulsion Energy =            259.9238654973795519
    One-Electron Energy =                -905.5609203543806416
    Two-Electron Energy =                 358.3511413071686320
    Total Energy =                       -287.2859135498324576
  Basis Set: (AUG-CC-PVTZ AUX)
    Blend: AUG-CC-PVTZ-RI
    Molecular point group: c1

    Geometry (in Angstrom), charge = 0, multiplicity = 1:

       Center              X                  Y                   Z               Mass
    ------------   -----------------  -----------------  -----------------  -----------------
         O            0.568833781824     1.629470448927    -0.076265151511    15.994914619570
         N           -2.257332218176    -0.861237551073    -0.097153151511    14.003074004430
         C           -0.003417218176     0.329215448927    -0.274190151511    12.000000000000
         C            0.850942781824    -0.751109551073     0.379911848489    12.000000000000
         C           -1.441787518176     0.328234448927     0.193520248489    12.000000000000
         C            2.285049781824    -0.765233551073    -0.139411151511    12.000000000000
         H            0.012789781824     0.190529448927    -1.363389151511     1.007825032230
         H            0.844118781824    -0.581472551073     1.466926848489     1.007825032230
         H            0.385286781824    -1.730381551073     0.216306848489     1.007825032230
         H           -1.475942218176     0.480523448927     1.287925848489     1.007825032230
         H           -1.956153218176     1.196190448927    -0.247339151511     1.007825032230
         H            2.884042781824    -1.524429551073     0.371327848489     1.007825032230
         H            2.753574781824     0.209004448927     0.010521848489     1.007825032230
         H            2.304215781824    -0.984693551073    -1.211338151511     1.007825032230
         H           -1.848082218176    -1.682275551073     0.343331848489     1.007825032230
         H           -2.255233218176    -1.036522551073    -1.100962151511     1.007825032230
         H            0.555820781824     1.795679448927     0.883872848489     1.007825032230

  Basis Set: AUG-CC-PVTZ
    Blend: AUG-CC-PVTZ
  Basis Set: (AUG-CC-PVTZ AUX)
    Blend: AUG-CC-PVTZ-JKFIT
	 Reference Energy          =    -287.2859135498324576 [Eh]
	 Singles Energy            =      -0.0000000000000000 [Eh]
	 Same-Spin Energy          =      -0.2928801496104979 [Eh]
	 Opposite-Spin Energy      =      -1.0020175802429614 [Eh]
	 Correlation Energy        =      -1.2948977298534592 [Eh]
	 Total Energy              =    -288.5808112796859177 [Eh]

	 ================> DF-SCS-MP2 Energies <==================
	-----------------------------------------------------------
	 SCS Same-Spin Scale       =       0.3333333333333333 [-]
	 SCS Opposite-Spin Scale   =       1.2000000000000000 [-]
	 SCS Same-Spin Energy      =      -0.0976267165368326 [Eh]
	 SCS Opposite-Spin Energy  =      -1.2024210962915536 [Eh]
	 SCS Correlation Energy    =      -1.3000478128283861 [Eh]
	 SCS Total Energy          =    -288.5859613626608393 [Eh]
	-----------------------------------------------------------

  Dipole Moment: [D]
     X:     0.7407      Y:    -1.2974      Z:     0.6224     Total:     1.6184

*** Psi4 exiting successfully. Buy a developer a beer!
