                               Psi4 1.4a3.dev225

  ==> Input File <==

--------------------------------------------------------------------------
#psi4
#
memory 32 gb

molecule  {
0 1
  O        0.5491460     1.6657540    -0.0835270
  N       -2.2770200    -0.8249540    -0.1044150
  C       -0.0231050     0.3654990    -0.2814520
  C        0.8312550    -0.7148260     0.3726500
  C       -1.4804950     0.3645050     0.1924430
  C        2.2653620    -0.7289500    -0.1466730
  H       -0.0068980     0.2268130    -1.3706510
  H        0.8244310    -0.5451890     1.4596650
  H        0.3740916    -1.6762382     0.2120288
  H       -1.4956300     0.5168070     1.2806640
  H       -1.9758410     1.2324740    -0.2546010
  H        2.8643550    -1.4881460     0.3640660
  H        2.7338870     0.2452880     0.0032600
  H        2.2845280    -0.9484100    -1.2186000
  H       -1.8677700    -1.6459920     0.3360700
  H       -2.2749210    -1.0002390    -1.1082240
  H        0.5361330     1.8319630     0.8766110
units angstrom
no_reorient  #important for SAPT in psi4, default
symmetry c1  #important for SAPT in psi4, default
}

set PROPERTIES_ORIGIN ["COM"]
properties('MP2/aug-cc-pvtz', properties = ['dipole'])
--------------------------------------------------------------------------

    Molecular point group: c1
  Charge       = 0
  Multiplicity = 1
  Basis Set: AUG-CC-PVTZ
    Blend: AUG-CC-PVTZ
  Basis Set: (AUG-CC-PVTZ AUX)
    Blend: AUG-CC-PVTZ-JKFIT

    Orbital Energies [Eh]
    ---------------------

    Doubly Occupied:

       1A    -20.558773     2A    -15.547934     3A    -11.277970
       4A    -11.250719     5A    -11.225077     6A    -11.214088
       7A     -1.358369     8A     -1.183022     9A     -1.055080
      10A     -0.958072    11A     -0.863283    12A     -0.805983
      13A     -0.676950    14A     -0.658060    15A     -0.645617
      16A     -0.632266    17A     -0.580981    18A     -0.555769
      19A     -0.543493    20A     -0.520926    21A     -0.502314
      22A     -0.489420    23A     -0.481422    24A     -0.453224
      25A     -0.387749

  @DF-RHF Final Energy:  -287.28661586172313

   => Energetics <=

    Nuclear Repulsion Energy =            259.8009674973507117
    One-Electron Energy =                -905.3220444964910030
    Two-Electron Energy =                 358.2344611374171564
    Total Energy =                       -287.2866158617231349
  Basis Set: (AUG-CC-PVTZ AUX)
    Blend: AUG-CC-PVTZ-RI
    Molecular point group: c1

    Geometry (in Angstrom), charge = 0, multiplicity = 1:

       Center              X                  Y                   Z               Mass
    ------------   -----------------  -----------------  -----------------  -----------------
         O            0.571299737409     1.629270148753    -0.077131999575    15.994914619570
         N           -2.254866262591    -0.861437851247    -0.098019999575    14.003074004430
         C           -0.000951262591     0.329015148753    -0.275056999575    12.000000000000
         C            0.853408737409    -0.751309851247     0.379045000425    12.000000000000
         C           -1.458341262591     0.328021148753     0.198838000425    12.000000000000
         C            2.287515737409    -0.765433851247    -0.140277999575    12.000000000000
         H            0.015255737409     0.190329148753    -1.364255999575     1.007825032230
         H            0.846584737409    -0.581672851247     1.466060000425     1.007825032230
         H            0.396245337409    -1.712722051247     0.218423800425     1.007825032230
         H           -1.473476262591     0.480323148753     1.287059000425     1.007825032230
         H           -1.953687262591     1.195990148753    -0.248205999575     1.007825032230
         H            2.886508737409    -1.524629851247     0.370461000425     1.007825032230
         H            2.756040737409     0.208804148753     0.009655000425     1.007825032230
         H            2.306681737409    -0.984893851247    -1.212204999575     1.007825032230
         H           -1.845616262591    -1.682475851247     0.342465000425     1.007825032230
         H           -2.252767262591    -1.036722851247    -1.101828999575     1.007825032230
         H            0.558286737409     1.795479148753     0.883006000425     1.007825032230

  Basis Set: AUG-CC-PVTZ
    Blend: AUG-CC-PVTZ
  Basis Set: (AUG-CC-PVTZ AUX)
    Blend: AUG-CC-PVTZ-JKFIT
	 Reference Energy          =    -287.2866158617231349 [Eh]
	 Singles Energy            =      -0.0000000000000000 [Eh]
	 Same-Spin Energy          =      -0.2927574617869367 [Eh]
	 Opposite-Spin Energy      =      -1.0016732071920500 [Eh]
	 Correlation Energy        =      -1.2944306689789866 [Eh]
	 Total Energy              =    -288.5810465307021104 [Eh]

	 ================> DF-SCS-MP2 Energies <==================
	-----------------------------------------------------------
	 SCS Same-Spin Scale       =       0.3333333333333333 [-]
	 SCS Opposite-Spin Scale   =       1.2000000000000000 [-]
	 SCS Same-Spin Energy      =      -0.0975858205956456 [Eh]
	 SCS Opposite-Spin Energy  =      -1.2020078486304600 [Eh]
	 SCS Correlation Energy    =      -1.2995936692261054 [Eh]
	 SCS Total Energy          =    -288.5862095309492474 [Eh]
	-----------------------------------------------------------

  Dipole Moment: [D]
     X:     0.7109      Y:    -1.3130      Z:     0.6279     Total:     1.6198

*** Psi4 exiting successfully. Buy a developer a beer!
