                               Psi4 1.4a3.dev225

  ==> Input File <==

--------------------------------------------------------------------------
#psi4
#
memory 32 gb

molecule  {
0 1
  O        0.5491460     1.6657540    -0.0835270
  N       -2.2770200    -0.8249540    -0.1044150
  C       -0.0231050     0.3654990    -0.2814520
  C        0.8312550    -0.7148260     0.3726500
  C       -1.4804950     0.3645050     0.1924430
  C        2.2653620    -0.7289500    -0.1466730
  H       -0.0076359     0.2331277    -1.3210569
  H        0.8244310    -0.5451890     1.4596650
  H        0.3655990    -1.6940980     0.2090450
  H       -1.4956300     0.5168070     1.2806640
  H       -1.9758410     1.2324740    -0.2546010
  H        2.8643550    -1.4881460     0.3640660
  H        2.7338870     0.2452880     0.0032600
  H        2.2845280    -0.9484100    -1.2186000
  H       -1.8677700    -1.6459920     0.3360700
  H       -2.2749210    -1.0002390    -1.1082240
  H        0.5361330     1.8319630     0.8766110
units angstrom
no_reorient  #important for SAPT in psi4, default
symmetry c1  #important for SAPT in psi4, default
}

set PROPERTIES_ORIGIN ["COM"]
properties('MP2/aug-cc-pvtz', properties = ['dipole'])
--------------------------------------------------------------------------

    Molecular point group: c1
  Charge       = 0
  Multiplicity = 1
  Basis Set: AUG-CC-PVTZ
    Blend: AUG-CC-PVTZ
  Basis Set: (AUG-CC-PVTZ AUX)
    Blend: AUG-CC-PVTZ-JKFIT

    Orbital Energies [Eh]
    ---------------------

    Doubly Occupied:

       1A    -20.558249     2A    -15.547818     3A    -11.271714
       4A    -11.250208     5A    -11.227058     6A    -11.214279
       7A     -1.358164     8A     -1.182968     9A     -1.054908
      10A     -0.959545    11A     -0.863095    12A     -0.810262
      13A     -0.676493    14A     -0.657862    15A     -0.645755
      16A     -0.632110    17A     -0.581549    18A     -0.556625
      19A     -0.544300    20A     -0.522083    21A     -0.501787
      22A     -0.489235    23A     -0.482433    24A     -0.453842
      25A     -0.387374

  @DF-RHF Final Energy:  -287.28571944936533

   => Energetics <=

    Nuclear Repulsion Energy =            259.9721157677883525
    One-Electron Energy =                -905.6562387920795345
    Two-Electron Energy =                 358.3984035749259078
    Total Energy =                       -287.2857194493653310
  Basis Set: (AUG-CC-PVTZ AUX)
    Blend: AUG-CC-PVTZ-RI
    Molecular point group: c1

    Geometry (in Angstrom), charge = 0, multiplicity = 1:

       Center              X                  Y                   Z               Mass
    ------------   -----------------  -----------------  -----------------  -----------------
         O            0.571404163819     1.629400760674    -0.077659310802    15.994914619570
         N           -2.254761836181    -0.861307239326    -0.098547310802    14.003074004430
         C           -0.000846836181     0.329145760674    -0.275584310802    12.000000000000
         C            0.853513163819    -0.751179239326     0.378517689198    12.000000000000
         C           -1.458236836181     0.328151760674     0.198310689198    12.000000000000
         C            2.287620163819    -0.765303239326    -0.140805310802    12.000000000000
         H            0.014622263819     0.196774460674    -1.315189210802     1.007825032230
         H            0.846689163819    -0.581542239326     1.465532689198     1.007825032230
         H            0.387857163819    -1.730451239326     0.214912689198     1.007825032230
         H           -1.473371836181     0.480453760674     1.286531689198     1.007825032230
         H           -1.953582836181     1.196120760674    -0.248733310802     1.007825032230
         H            2.886613163819    -1.524499239326     0.369933689198     1.007825032230
         H            2.756145163819     0.208934760674     0.009127689198     1.007825032230
         H            2.306786163819    -0.984763239326    -1.212732310802     1.007825032230
         H           -1.845511836181    -1.682345239326     0.341937689198     1.007825032230
         H           -2.252662836181    -1.036592239326    -1.102356310802     1.007825032230
         H            0.558391163819     1.795609760674     0.882478689198     1.007825032230

  Basis Set: AUG-CC-PVTZ
    Blend: AUG-CC-PVTZ
  Basis Set: (AUG-CC-PVTZ AUX)
    Blend: AUG-CC-PVTZ-JKFIT
	 Reference Energy          =    -287.2857194493653310 [Eh]
	 Singles Energy            =      -0.0000000000000000 [Eh]
	 Same-Spin Energy          =      -0.2927104167214417 [Eh]
	 Opposite-Spin Energy      =      -1.0014874423948801 [Eh]
	 Correlation Energy        =      -1.2941978591163217 [Eh]
	 Total Energy              =    -288.5799173084816402 [Eh]

	 ================> DF-SCS-MP2 Energies <==================
	-----------------------------------------------------------
	 SCS Same-Spin Scale       =       0.3333333333333333 [-]
	 SCS Opposite-Spin Scale   =       1.2000000000000000 [-]
	 SCS Same-Spin Energy      =      -0.0975701389071472 [Eh]
	 SCS Opposite-Spin Energy  =      -1.2017849308738560 [Eh]
	 SCS Correlation Energy    =      -1.2993550697810032 [Eh]
	 SCS Total Energy          =    -288.5850745191463602 [Eh]
	-----------------------------------------------------------

  Dipole Moment: [D]
     X:     0.7158      Y:    -1.3093      Z:     0.5972     Total:     1.6072

*** Psi4 exiting successfully. Buy a developer a beer!
