                               Psi4 1.4a3.dev225

  ==> Input File <==

--------------------------------------------------------------------------
#psi4
#
memory 32 gb

molecule  {
0 1
  O        0.5491460     1.6657540    -0.0835270
  N       -2.2770200    -0.8249540    -0.1044150
  C       -0.0231050     0.3654990    -0.2814520
  C        0.8312550    -0.7148260     0.3726500
  C       -1.4804950     0.3645050     0.1924430
  C        2.2653620    -0.7289500    -0.1466730
  H       -0.0068980     0.2268130    -1.3706510
  H        0.8244310    -0.5451890     1.4596650
  H        0.3655990    -1.6940980     0.2090450
  H       -1.4956300     0.5168070     1.2806640
  H       -1.9758410     1.2324740    -0.2546010
  H        2.8643550    -1.4881460     0.3640660
  H        2.7338870     0.2452880     0.0032600
  H        2.2845280    -0.9484100    -1.2186000
  H       -1.8275549    -1.7266716     0.3793544
  H       -2.2749210    -1.0002390    -1.1082240
  H        0.5361330     1.8319630     0.8766110
units angstrom
no_reorient  #important for SAPT in psi4, default
symmetry c1  #important for SAPT in psi4, default
}

set PROPERTIES_ORIGIN ["COM"]
properties('MP2/aug-cc-pvtz', properties = ['dipole'])
--------------------------------------------------------------------------

    Molecular point group: c1
  Charge       = 0
  Multiplicity = 1
  Basis Set: AUG-CC-PVTZ
    Blend: AUG-CC-PVTZ
  Basis Set: (AUG-CC-PVTZ AUX)
    Blend: AUG-CC-PVTZ-JKFIT

    Orbital Energies [Eh]
    ---------------------

    Doubly Occupied:

       1A    -20.559020     2A    -15.558395     3A    -11.278126
       4A    -11.251243     5A    -11.227305     6A    -11.214176
       7A     -1.358586     8A     -1.172737     9A     -1.053228
      10A     -0.954839    11A     -0.860638    12A     -0.804824
      13A     -0.666122    14A     -0.657258    15A     -0.642832
      16A     -0.628840    17A     -0.580746    18A     -0.551041
      19A     -0.541515    20A     -0.520912    21A     -0.501288
      22A     -0.488176    23A     -0.479058    24A     -0.453223
      25A     -0.386765

  @DF-RHF Final Energy:  -287.27666072035782

   => Energetics <=

    Nuclear Repulsion Energy =            259.2865931323729569
    One-Electron Energy =                -904.3447232035971410
    Two-Electron Energy =                 357.7814693508664163
    Total Energy =                       -287.2766607203578246
  Basis Set: (AUG-CC-PVTZ AUX)
    Blend: AUG-CC-PVTZ-RI
    Molecular point group: c1

    Geometry (in Angstrom), charge = 0, multiplicity = 1:

       Center              X                  Y                   Z               Mass
    ------------   -----------------  -----------------  -----------------  -----------------
         O            0.570940854707     1.630384943808    -0.077587927960    15.994914619570
         N           -2.255225145293    -0.860323056192    -0.098475927960    14.003074004430
         C           -0.001310145293     0.330129943808    -0.275512927960    12.000000000000
         C            0.853049854707    -0.750195056192     0.378589072040    12.000000000000
         C           -1.458700145293     0.329135943808     0.198382072040    12.000000000000
         C            2.287156854707    -0.764319056192    -0.140733927960    12.000000000000
         H            0.014896854707     0.191443943808    -1.364711927960     1.007825032230
         H            0.846225854707    -0.580558056192     1.465604072040     1.007825032230
         H            0.387393854707    -1.729467056192     0.214984072040     1.007825032230
         H           -1.473835145293     0.481437943808     1.286603072040     1.007825032230
         H           -1.954046145293     1.197104943808    -0.248661927960     1.007825032230
         H            2.886149854707    -1.523515056192     0.370005072040     1.007825032230
         H            2.755681854707     0.209918943808     0.009199072040     1.007825032230
         H            2.306322854707    -0.983779056192    -1.212660927960     1.007825032230
         H           -1.805760045293    -1.762040656192     0.385293472040     1.007825032230
         H           -2.253126145293    -1.035608056192    -1.102284927960     1.007825032230
         H            0.557927854707     1.796593943808     0.882550072040     1.007825032230

  Basis Set: AUG-CC-PVTZ
    Blend: AUG-CC-PVTZ
  Basis Set: (AUG-CC-PVTZ AUX)
    Blend: AUG-CC-PVTZ-JKFIT
	 Reference Energy          =    -287.2766607203578246 [Eh]
	 Singles Energy            =      -0.0000000000000000 [Eh]
	 Same-Spin Energy          =      -0.2932797505190216 [Eh]
	 Opposite-Spin Energy      =      -1.0036161792651814 [Eh]
	 Correlation Energy        =      -1.2968959297842031 [Eh]
	 Total Energy              =    -288.5735566501420521 [Eh]

	 ================> DF-SCS-MP2 Energies <==================
	-----------------------------------------------------------
	 SCS Same-Spin Scale       =       0.3333333333333333 [-]
	 SCS Opposite-Spin Scale   =       1.2000000000000000 [-]
	 SCS Same-Spin Energy      =      -0.0977599168396738 [Eh]
	 SCS Opposite-Spin Energy  =      -1.2043394151182176 [Eh]
	 SCS Correlation Energy    =      -1.3020993319578915 [Eh]
	 SCS Total Energy          =    -288.5787600523157153 [Eh]
	-----------------------------------------------------------

  Dipole Moment: [D]
     X:     0.7209      Y:    -1.2991      Z:     0.6424     Total:     1.6187

*** Psi4 exiting successfully. Buy a developer a beer!
