                               Psi4 1.4a3.dev225

  ==> Input File <==

--------------------------------------------------------------------------
#psi4
#
memory 32 gb

molecule  {
0 1
  O        0.5491460     1.6657540    -0.0835270
  N       -2.2770200    -0.8249540    -0.1044150
  C       -0.0231050     0.3654990    -0.2814520
  C        0.8312550    -0.7148260     0.3726500
  C       -1.4804950     0.3645050     0.1924430
  C        2.2653620    -0.7289500    -0.1466730
  H       -0.0068980     0.2268130    -1.3706510
  H        0.8244310    -0.5451890     1.4596650
  H        0.4505247    -1.5154998     0.2388830
  H       -1.4956300     0.5168070     1.2806640
  H       -1.9758410     1.2324740    -0.2546010
  H        2.8643550    -1.4881460     0.3640660
  H        2.7338870     0.2452880     0.0032600
  H        2.2845280    -0.9484100    -1.2186000
  H       -1.8677700    -1.6459920     0.3360700
  H       -2.2749210    -1.0002390    -1.1082240
  H        0.5361330     1.8319630     0.8766110
units angstrom
no_reorient  #important for SAPT in psi4, default
symmetry c1  #important for SAPT in psi4, default
}

set PROPERTIES_ORIGIN ["COM"]
properties('MP2/aug-cc-pvtz', properties = ['dipole'])
--------------------------------------------------------------------------

    Molecular point group: c1
  Charge       = 0
  Multiplicity = 1
  Basis Set: AUG-CC-PVTZ
    Blend: AUG-CC-PVTZ
  Basis Set: (AUG-CC-PVTZ AUX)
    Blend: AUG-CC-PVTZ-JKFIT

    Orbital Energies [Eh]
    ---------------------

    Doubly Occupied:

       1A    -20.557044     2A    -15.549115     3A    -11.276640
       4A    -11.250735     5A    -11.212595     6A    -11.201971
       7A     -1.356817     8A     -1.184013     9A     -1.067022
      10A     -0.957859    11A     -0.870986    12A     -0.815254
      13A     -0.684934    14A     -0.659536    15A     -0.654326
      16A     -0.632462    17A     -0.581982    18A     -0.556127
      19A     -0.543601    20A     -0.520604    21A     -0.508373
      22A     -0.494684    23A     -0.481626    24A     -0.452335
      25A     -0.388287

  @DF-RHF Final Energy:  -287.25360290802666

   => Energetics <=

    Nuclear Repulsion Energy =            260.7211058942376667
    One-Electron Energy =                -907.0315610383662488
    Two-Electron Energy =                 359.0568522361019177
    Total Energy =                       -287.2536029080266644
  Basis Set: (AUG-CC-PVTZ AUX)
    Blend: AUG-CC-PVTZ-RI
    Molecular point group: c1

    Geometry (in Angstrom), charge = 0, multiplicity = 1:

       Center              X                  Y                   Z               Mass
    ------------   -----------------  -----------------  -----------------  -----------------
         O            0.570435035149     1.627451684530    -0.077435806269    15.994914619570
         N           -2.255730964851    -0.863256315470    -0.098323806269    14.003074004430
         C           -0.001815964851     0.327196684530    -0.275360806269    12.000000000000
         C            0.852544035149    -0.753128315470     0.378741193731    12.000000000000
         C           -1.459205964851     0.326202684530     0.198534193731    12.000000000000
         C            2.286651035149    -0.767252315470    -0.140581806269    12.000000000000
         H            0.014391035149     0.188510684530    -1.364559806269     1.007825032230
         H            0.845720035149    -0.583491315470     1.465756193731     1.007825032230
         H            0.471813735149    -1.553802115470     0.244974193731     1.007825032230
         H           -1.474340964851     0.478504684530     1.286755193731     1.007825032230
         H           -1.954551964851     1.194171684530    -0.248509806269     1.007825032230
         H            2.885644035149    -1.526448315470     0.370157193731     1.007825032230
         H            2.755176035149     0.206985684530     0.009351193731     1.007825032230
         H            2.305817035149    -0.986712315470    -1.212508806269     1.007825032230
         H           -1.846480964851    -1.684294315470     0.342161193731     1.007825032230
         H           -2.253631964851    -1.038541315470    -1.102132806269     1.007825032230
         H            0.557422035149     1.793660684530     0.882702193731     1.007825032230

  Basis Set: AUG-CC-PVTZ
    Blend: AUG-CC-PVTZ
  Basis Set: (AUG-CC-PVTZ AUX)
    Blend: AUG-CC-PVTZ-JKFIT
	 Reference Energy          =    -287.2536029080266644 [Eh]
	 Singles Energy            =      -0.0000000000000000 [Eh]
	 Same-Spin Energy          =      -0.2927077477347579 [Eh]
	 Opposite-Spin Energy      =      -1.0010528792744871 [Eh]
	 Correlation Energy        =      -1.2937606270092450 [Eh]
	 Total Energy              =    -288.5473635350359132 [Eh]

	 ================> DF-SCS-MP2 Energies <==================
	-----------------------------------------------------------
	 SCS Same-Spin Scale       =       0.3333333333333333 [-]
	 SCS Opposite-Spin Scale   =       1.2000000000000000 [-]
	 SCS Same-Spin Energy      =      -0.0975692492449193 [Eh]
	 SCS Opposite-Spin Energy  =      -1.2012634551293844 [Eh]
	 SCS Correlation Energy    =      -1.2988327043743038 [Eh]
	 SCS Total Energy          =    -288.5524356124009842 [Eh]
	-----------------------------------------------------------

  Dipole Moment: [D]
     X:     0.6485      Y:    -1.3928      Z:     0.6341     Total:     1.6620

*** Psi4 exiting successfully. Buy a developer a beer!
