                               Psi4 1.4a3.dev225

  ==> Input File <==

--------------------------------------------------------------------------
#psi4
#
memory 32 gb

molecule  {
0 1
  O        0.5491460     1.6657540    -0.0835270
  N       -2.2770200    -0.8249540    -0.1044150
  C       -0.0231050     0.3654990    -0.2814520
  C        0.8312550    -0.7148260     0.3726500
  C       -1.4804950     0.3645050     0.1924430
  C        2.2653620    -0.7289500    -0.1466730
  H       -0.0068980     0.2268130    -1.3706510
  H        0.8244310    -0.5451890     1.4596650
  H        0.3571064    -1.7119578     0.2060612
  H       -1.4956300     0.5168070     1.2806640
  H       -1.9758410     1.2324740    -0.2546010
  H        2.8643550    -1.4881460     0.3640660
  H        2.7338870     0.2452880     0.0032600
  H        2.2845280    -0.9484100    -1.2186000
  H       -1.8677700    -1.6459920     0.3360700
  H       -2.2749210    -1.0002390    -1.1082240
  H        0.5361330     1.8319630     0.8766110
units angstrom
no_reorient  #important for SAPT in psi4, default
symmetry c1  #important for SAPT in psi4, default
}

set PROPERTIES_ORIGIN ["COM"]
properties('MP2/aug-cc-pvtz', properties = ['dipole'])
--------------------------------------------------------------------------

    Molecular point group: c1
  Charge       = 0
  Multiplicity = 1
  Basis Set: AUG-CC-PVTZ
    Blend: AUG-CC-PVTZ
  Basis Set: (AUG-CC-PVTZ AUX)
    Blend: AUG-CC-PVTZ-JKFIT

    Orbital Energies [Eh]
    ---------------------

    Doubly Occupied:

       1A    -20.559285     2A    -15.547613     3A    -11.278380
       4A    -11.250738     5A    -11.230119     6A    -11.214551
       7A     -1.358830     8A     -1.182779     9A     -1.053495
      10A     -0.958207    11A     -0.862355    12A     -0.804420
      13A     -0.675988    14A     -0.658227    15A     -0.643192
      16A     -0.632007    17A     -0.580807    18A     -0.555740
      19A     -0.543541    20A     -0.521094    21A     -0.501907
      22A     -0.487428    23A     -0.480763    24A     -0.453456
      25A     -0.387594

  @DF-RHF Final Energy:  -287.28600055960123

   => Energetics <=

    Nuclear Repulsion Energy =            259.6240812558866651
    One-Electron Energy =                -904.9751308718026621
    Two-Electron Energy =                 358.0650490563148196
    Total Energy =                       -287.2860005596012343
  Basis Set: (AUG-CC-PVTZ AUX)
    Blend: AUG-CC-PVTZ-RI
    Molecular point group: c1

    Geometry (in Angstrom), charge = 0, multiplicity = 1:

       Center              X                  Y                   Z               Mass
    ------------   -----------------  -----------------  -----------------  -----------------
         O            0.571491894221     1.629674251411    -0.077064486976    15.994914619570
         N           -2.254674105779    -0.861033748589    -0.097952486976    14.003074004430
         C           -0.000759105779     0.329419251411    -0.274989486976    12.000000000000
         C            0.853600894221    -0.750905748589     0.379112513024    12.000000000000
         C           -1.458149105779     0.328425251411     0.198905513024    12.000000000000
         C            2.287707894221    -0.765029748589    -0.140210486976    12.000000000000
         H            0.015447894221     0.190733251411    -1.364188486976     1.007825032230
         H            0.846776894221    -0.581268748589     1.466127513024     1.007825032230
         H            0.379452294221    -1.748037548589     0.212523713024     1.007825032230
         H           -1.473284105779     0.480727251411     1.287126513024     1.007825032230
         H           -1.953495105779     1.196394251411    -0.248138486976     1.007825032230
         H            2.886700894221    -1.524225748589     0.370528513024     1.007825032230
         H            2.756232894221     0.209208251411     0.009722513024     1.007825032230
         H            2.306873894221    -0.984489748589    -1.212137486976     1.007825032230
         H           -1.845424105779    -1.682071748589     0.342532513024     1.007825032230
         H           -2.252575105779    -1.036318748589    -1.101761486976     1.007825032230
         H            0.558478894221     1.795883251411     0.883073513024     1.007825032230

  Basis Set: AUG-CC-PVTZ
    Blend: AUG-CC-PVTZ
  Basis Set: (AUG-CC-PVTZ AUX)
    Blend: AUG-CC-PVTZ-JKFIT
	 Reference Energy          =    -287.2860005596012343 [Eh]
	 Singles Energy            =      -0.0000000000000000 [Eh]
	 Same-Spin Energy          =      -0.2927913538056268 [Eh]
	 Opposite-Spin Energy      =      -1.0019611480270170 [Eh]
	 Correlation Energy        =      -1.2947525018326438 [Eh]
	 Total Energy              =    -288.5807530614338816 [Eh]

	 ================> DF-SCS-MP2 Energies <==================
	-----------------------------------------------------------
	 SCS Same-Spin Scale       =       0.3333333333333333 [-]
	 SCS Opposite-Spin Scale   =       1.2000000000000000 [-]
	 SCS Same-Spin Energy      =      -0.0975971179352089 [Eh]
	 SCS Opposite-Spin Energy  =      -1.2023533776324202 [Eh]
	 SCS Correlation Energy    =      -1.2999504955676291 [Eh]
	 SCS Total Energy          =    -288.5859510551688913 [Eh]
	-----------------------------------------------------------

  Dipole Moment: [D]
     X:     0.7287      Y:    -1.2876      Z:     0.6268     Total:     1.6068

*** Psi4 exiting successfully. Buy a developer a beer!
