                               Psi4 1.4a3.dev225

  ==> Input File <==

--------------------------------------------------------------------------
#psi4
#
memory 32 gb

molecule  {
0 1
  O        0.5491460     1.6657540    -0.0835270
  N       -2.2770200    -0.8249540    -0.1044150
  C       -0.0231050     0.3654990    -0.2814520
  C        0.8312550    -0.7148260     0.3726500
  C       -1.4804950     0.3645050     0.1924430
  C        2.2653620    -0.7289500    -0.1466730
  H       -0.0068980     0.2268130    -1.3706510
  H        0.8244310    -0.5451890     1.4596650
  H        0.3655990    -1.6940980     0.2090450
  H       -1.4956300     0.5168070     1.2806640
  H       -1.8853503     1.0739118    -0.1729342
  H        2.8643550    -1.4881460     0.3640660
  H        2.7338870     0.2452880     0.0032600
  H        2.2845280    -0.9484100    -1.2186000
  H       -1.8677700    -1.6459920     0.3360700
  H       -2.2749210    -1.0002390    -1.1082240
  H        0.5361330     1.8319630     0.8766110
units angstrom
no_reorient  #important for SAPT in psi4, default
symmetry c1  #important for SAPT in psi4, default
}

set PROPERTIES_ORIGIN ["COM"]
properties('MP2/aug-cc-pvtz', properties = ['dipole'])
--------------------------------------------------------------------------

    Molecular point group: c1
  Charge       = 0
  Multiplicity = 1
  Basis Set: AUG-CC-PVTZ
    Blend: AUG-CC-PVTZ
  Basis Set: (AUG-CC-PVTZ AUX)
    Blend: AUG-CC-PVTZ-JKFIT

    Orbital Energies [Eh]
    ---------------------

    Doubly Occupied:

       1A    -20.559420     2A    -15.546160     3A    -11.276861
       4A    -11.226446     5A    -11.226085     6A    -11.213542
       7A     -1.359052     8A     -1.185552     9A     -1.053401
      10A     -0.969283    11A     -0.878674    12A     -0.806686
      13A     -0.688930    14A     -0.658036    15A     -0.644118
      16A     -0.631669    17A     -0.586258    18A     -0.566533
      19A     -0.544338    20A     -0.520175    21A     -0.511994
      22A     -0.487659    23A     -0.481660    24A     -0.453707
      25A     -0.387559

  @DF-RHF Final Energy:  -287.25322497064997

   => Energetics <=

    Nuclear Repulsion Energy =            260.7949477279576627
    One-Electron Energy =                -907.1687508487150353
    Two-Electron Energy =                 359.1205781501074625
    Total Energy =                       -287.2532249706499670
  Basis Set: (AUG-CC-PVTZ AUX)
    Blend: AUG-CC-PVTZ-RI
    Molecular point group: c1

    Geometry (in Angstrom), charge = 0, multiplicity = 1:

       Center              X                  Y                   Z               Mass
    ------------   -----------------  -----------------  -----------------  -----------------
         O            0.570372077241     1.631266044538    -0.078022155383    15.994914619570
         N           -2.255793922759    -0.859441955462    -0.098910155383    14.003074004430
         C           -0.001878922759     0.331011044538    -0.275947155383    12.000000000000
         C            0.852481077241    -0.749313955462     0.378154844617    12.000000000000
         C           -1.459268922759     0.330017044538     0.197947844617    12.000000000000
         C            2.286588077241    -0.763437955462    -0.141168155383    12.000000000000
         H            0.014328077241     0.192325044538    -1.365146155383     1.007825032230
         H            0.845657077241    -0.579676955462     1.465169844617     1.007825032230
         H            0.386825077241    -1.728585955462     0.214549844617     1.007825032230
         H           -1.474403922759     0.482319044538     1.286168844617     1.007825032230
         H           -1.864124222759     1.039423844538    -0.167429355383     1.007825032230
         H            2.885581077241    -1.522633955462     0.369570844617     1.007825032230
         H            2.755113077241     0.210800044538     0.008764844617     1.007825032230
         H            2.305754077241    -0.982897955462    -1.213095155383     1.007825032230
         H           -1.846543922759    -1.680479955462     0.341574844617     1.007825032230
         H           -2.253694922759    -1.034726955462    -1.102719155383     1.007825032230
         H            0.557359077241     1.797475044538     0.882115844617     1.007825032230

  Basis Set: AUG-CC-PVTZ
    Blend: AUG-CC-PVTZ
  Basis Set: (AUG-CC-PVTZ AUX)
    Blend: AUG-CC-PVTZ-JKFIT
	 Reference Energy          =    -287.2532249706499670 [Eh]
	 Singles Energy            =      -0.0000000000000000 [Eh]
	 Same-Spin Energy          =      -0.2927280445328438 [Eh]
	 Opposite-Spin Energy      =      -1.0010700655467124 [Eh]
	 Correlation Energy        =      -1.2937981100795564 [Eh]
	 Total Energy              =    -288.5470230807295025 [Eh]

	 ================> DF-SCS-MP2 Energies <==================
	-----------------------------------------------------------
	 SCS Same-Spin Scale       =       0.3333333333333333 [-]
	 SCS Opposite-Spin Scale   =       1.2000000000000000 [-]
	 SCS Same-Spin Energy      =      -0.0975760148442813 [Eh]
	 SCS Opposite-Spin Energy  =      -1.2012840786560548 [Eh]
	 SCS Correlation Energy    =      -1.2988600935003360 [Eh]
	 SCS Total Energy          =    -288.5520850641502761 [Eh]
	-----------------------------------------------------------

  Dipole Moment: [D]
     X:     0.6839      Y:    -1.2264      Z:     0.6166     Total:     1.5336

*** Psi4 exiting successfully. Buy a developer a beer!
