                               Psi4 1.4a3.dev225

  ==> Input File <==

--------------------------------------------------------------------------
#psi4
#
memory 32 gb

molecule  {
0 1
  O        0.5491460     1.6657540    -0.0835270
  N       -2.1720966    -0.9047666    -0.0267059
  C       -0.0231050     0.3654990    -0.2814520
  C        0.8312550    -0.7148260     0.3726500
  C       -1.4804950     0.3645050     0.1924430
  C        2.2653620    -0.7289500    -0.1466730
  H       -0.0068980     0.2268130    -1.3706510
  H        0.8244310    -0.5451890     1.4596650
  H        0.3655990    -1.6940980     0.2090450
  H       -1.4956300     0.5168070     1.2806640
  H       -1.9758410     1.2324740    -0.2546010
  H        2.8643550    -1.4881460     0.3640660
  H        2.7338870     0.2452880     0.0032600
  H        2.2845280    -0.9484100    -1.2186000
  H       -1.8677700    -1.6459920     0.3360700
  H       -2.2749210    -1.0002390    -1.1082240
  H        0.5361330     1.8319630     0.8766110
units angstrom
no_reorient  #important for SAPT in psi4, default
symmetry c1  #important for SAPT in psi4, default
}

set PROPERTIES_ORIGIN ["COM"]
properties('MP2/aug-cc-pvtz', properties = ['dipole'])
--------------------------------------------------------------------------

    Molecular point group: c1
  Charge       = 0
  Multiplicity = 1
  Basis Set: AUG-CC-PVTZ
    Blend: AUG-CC-PVTZ
  Basis Set: (AUG-CC-PVTZ AUX)
    Blend: AUG-CC-PVTZ-JKFIT

    Orbital Energies [Eh]
    ---------------------

    Doubly Occupied:

       1A    -20.557218     2A    -15.536246     3A    -11.275842
       4A    -11.253372     5A    -11.225518     6A    -11.212950
       7A     -1.357095     8A     -1.192006     9A     -1.052959
      10A     -0.963051    11A     -0.866862    12A     -0.803906
      13A     -0.695485    14A     -0.654596    15A     -0.644053
      16A     -0.630895    17A     -0.584898    18A     -0.569159
      19A     -0.535739    20A     -0.515365    21A     -0.501918
      22A     -0.486968    23A     -0.480210    24A     -0.449758
      25A     -0.380311

  @DF-RHF Final Energy:  -287.26013270328377

   => Energetics <=

    Nuclear Repulsion Energy =            260.7536376748047360
    One-Electron Energy =                -907.1747792756294757
    Two-Electron Energy =                 359.1610088975409667
    Total Energy =                       -287.2601327032837730
  Basis Set: (AUG-CC-PVTZ AUX)
    Blend: AUG-CC-PVTZ-RI
    Molecular point group: c1

    Geometry (in Angstrom), charge = 0, multiplicity = 1:

       Center              X                  Y                   Z               Mass
    ------------   -----------------  -----------------  -----------------  -----------------
         O            0.554902965474     1.642017897868    -0.089313293078    15.994914619570
         N           -2.166339634526    -0.928502702132    -0.032492193078    14.003074004430
         C           -0.017348034526     0.341762897868    -0.287238293078    12.000000000000
         C            0.837011965474    -0.738562102132     0.366863706922    12.000000000000
         C           -1.474738034526     0.340768897868     0.186656706922    12.000000000000
         C            2.271118965474    -0.752686102132    -0.152459293078    12.000000000000
         H           -0.001141034526     0.203076897868    -1.376437293078     1.007825032230
         H            0.830187965474    -0.568925102132     1.453878706922     1.007825032230
         H            0.371355965474    -1.717834102132     0.203258706922     1.007825032230
         H           -1.489873034526     0.493070897868     1.274877706922     1.007825032230
         H           -1.970084034526     1.208737897868    -0.260387293078     1.007825032230
         H            2.870111965474    -1.511882102132     0.358279706922     1.007825032230
         H            2.739643965474     0.221551897868    -0.002526293078     1.007825032230
         H            2.290284965474    -0.972146102132    -1.224386293078     1.007825032230
         H           -1.862013034526    -1.669728102132     0.330283706922     1.007825032230
         H           -2.269164034526    -1.023975102132    -1.114010293078     1.007825032230
         H            0.541889965474     1.808226897868     0.870824706922     1.007825032230

  Basis Set: AUG-CC-PVTZ
    Blend: AUG-CC-PVTZ
  Basis Set: (AUG-CC-PVTZ AUX)
    Blend: AUG-CC-PVTZ-JKFIT
	 Reference Energy          =    -287.2601327032837730 [Eh]
	 Singles Energy            =      -0.0000000000000000 [Eh]
	 Same-Spin Energy          =      -0.2926988800010121 [Eh]
	 Opposite-Spin Energy      =      -1.0013223793864006 [Eh]
	 Correlation Energy        =      -1.2940212593874127 [Eh]
	 Total Energy              =    -288.5541539626711938 [Eh]

	 ================> DF-SCS-MP2 Energies <==================
	-----------------------------------------------------------
	 SCS Same-Spin Scale       =       0.3333333333333333 [-]
	 SCS Opposite-Spin Scale   =       1.2000000000000000 [-]
	 SCS Same-Spin Energy      =      -0.0975662933336707 [Eh]
	 SCS Opposite-Spin Energy  =      -1.2015868552636806 [Eh]
	 SCS Correlation Energy    =      -1.2991531485973513 [Eh]
	 SCS Total Energy          =    -288.5592858518810999 [Eh]
	-----------------------------------------------------------

  Dipole Moment: [D]
     X:     0.4566      Y:    -1.1886      Z:     0.5540     Total:     1.3886

*** Psi4 exiting successfully. Buy a developer a beer!
