                               Psi4 1.4a3.dev225

  ==> Input File <==

--------------------------------------------------------------------------
#psi4
#
memory 32 gb

molecule  {
0 1
  O        0.5491460     1.6657540    -0.0835270
  N       -2.2770200    -0.8249540    -0.1044150
  C       -0.0231050     0.3654990    -0.2814520
  C        0.8312550    -0.7148260     0.3726500
  C       -1.4804950     0.3645050     0.1924430
  C        2.2653620    -0.7289500    -0.1466730
  H       -0.0071932     0.2293389    -1.3508133
  H        0.8244310    -0.5451890     1.4596650
  H        0.3655990    -1.6940980     0.2090450
  H       -1.4956300     0.5168070     1.2806640
  H       -1.9758410     1.2324740    -0.2546010
  H        2.8643550    -1.4881460     0.3640660
  H        2.7338870     0.2452880     0.0032600
  H        2.2845280    -0.9484100    -1.2186000
  H       -1.8677700    -1.6459920     0.3360700
  H       -2.2749210    -1.0002390    -1.1082240
  H        0.5361330     1.8319630     0.8766110
units angstrom
no_reorient  #important for SAPT in psi4, default
symmetry c1  #important for SAPT in psi4, default
}

set PROPERTIES_ORIGIN ["COM"]
properties('MP2/aug-cc-pvtz', properties = ['dipole'])
--------------------------------------------------------------------------

    Molecular point group: c1
  Charge       = 0
  Multiplicity = 1
  Basis Set: AUG-CC-PVTZ
    Blend: AUG-CC-PVTZ
  Basis Set: (AUG-CC-PVTZ AUX)
    Blend: AUG-CC-PVTZ-JKFIT

    Orbital Energies [Eh]
    ---------------------

    Doubly Occupied:

       1A    -20.558702     2A    -15.547791     3A    -11.275603
       4A    -11.250511     5A    -11.227380     6A    -11.214298
       7A     -1.358406     8A     -1.182923     9A     -1.054481
      10A     -0.958651    11A     -0.862887    12A     -0.807142
      13A     -0.676457    14A     -0.658016    15A     -0.644903
      16A     -0.632140    17A     -0.581131    18A     -0.556068
      19A     -0.543832    20A     -0.521442    21A     -0.501951
      22A     -0.488696    23A     -0.481748    24A     -0.453575
      25A     -0.387548

  @DF-RHF Final Energy:  -287.28662250724614

   => Energetics <=

    Nuclear Repulsion Energy =            259.8140493926899239
    One-Electron Energy =                -905.3487720222708504
    Two-Electron Energy =                 358.2481001223348471
    Total Energy =                       -287.2866225072461361
  Basis Set: (AUG-CC-PVTZ AUX)
    Blend: AUG-CC-PVTZ-RI
    Molecular point group: c1

    Geometry (in Angstrom), charge = 0, multiplicity = 1:

       Center              X                  Y                   Z               Mass
    ------------   -----------------  -----------------  -----------------  -----------------
         O            0.571399155469     1.629443624092    -0.077322670965    15.994914619570
         N           -2.254766844531    -0.861264375908    -0.098210670965    14.003074004430
         C           -0.000851844531     0.329188624092    -0.275247670965    12.000000000000
         C            0.853508155469    -0.751136375908     0.378854329035    12.000000000000
         C           -1.458241844531     0.328194624092     0.198647329035    12.000000000000
         C            2.287615155469    -0.765260375908    -0.140468670965    12.000000000000
         H            0.015059955469     0.193028524092    -1.344608970965     1.007825032230
         H            0.846684155469    -0.581499375908     1.465869329035     1.007825032230
         H            0.387852155469    -1.730408375908     0.215249329035     1.007825032230
         H           -1.473376844531     0.480496624092     1.286868329035     1.007825032230
         H           -1.953587844531     1.196163624092    -0.248396670965     1.007825032230
         H            2.886608155469    -1.524456375908     0.370270329035     1.007825032230
         H            2.756140155469     0.208977624092     0.009464329035     1.007825032230
         H            2.306781155469    -0.984720375908    -1.212395670965     1.007825032230
         H           -1.845516844531    -1.682302375908     0.342274329035     1.007825032230
         H           -2.252667844531    -1.036549375908    -1.102019670965     1.007825032230
         H            0.558386155469     1.795652624092     0.882815329035     1.007825032230

  Basis Set: AUG-CC-PVTZ
    Blend: AUG-CC-PVTZ
  Basis Set: (AUG-CC-PVTZ AUX)
    Blend: AUG-CC-PVTZ-JKFIT
	 Reference Energy          =    -287.2866225072461361 [Eh]
	 Singles Energy            =      -0.0000000000000000 [Eh]
	 Same-Spin Energy          =      -0.2927472335611782 [Eh]
	 Opposite-Spin Energy      =      -1.0016737879878637 [Eh]
	 Correlation Energy        =      -1.2944210215490419 [Eh]
	 Total Energy              =    -288.5810435287951918 [Eh]

	 ================> DF-SCS-MP2 Energies <==================
	-----------------------------------------------------------
	 SCS Same-Spin Scale       =       0.3333333333333333 [-]
	 SCS Opposite-Spin Scale   =       1.2000000000000000 [-]
	 SCS Same-Spin Energy      =      -0.0975824111870594 [Eh]
	 SCS Opposite-Spin Energy  =      -1.2020085455854363 [Eh]
	 SCS Correlation Energy    =      -1.2995909567724957 [Eh]
	 SCS Total Energy          =    -288.5862134640186127 [Eh]
	-----------------------------------------------------------

  Dipole Moment: [D]
     X:     0.7181      Y:    -1.3042      Z:     0.6147     Total:     1.6107

*** Psi4 exiting successfully. Buy a developer a beer!
