                               Psi4 1.4a3.dev225

  ==> Input File <==

--------------------------------------------------------------------------
#psi4
#
memory 32 gb

molecule  {
0 1
  O        0.5491460     1.6657540    -0.0835270
  N       -2.2770200    -0.8249540    -0.1044150
  C       -0.0231050     0.3654990    -0.2814520
  C        0.8312550    -0.7148260     0.3726500
  C       -1.4804950     0.3645050     0.1924430
  C        2.1713411    -0.7280240    -0.1126259
  H       -0.0068980     0.2268130    -1.3706510
  H        0.8244310    -0.5451890     1.4596650
  H        0.3655990    -1.6940980     0.2090450
  H       -1.4956300     0.5168070     1.2806640
  H       -1.9758410     1.2324740    -0.2546010
  H        2.8643550    -1.4881460     0.3640660
  H        2.7338870     0.2452880     0.0032600
  H        2.2845280    -0.9484100    -1.2186000
  H       -1.8677700    -1.6459920     0.3360700
  H       -2.2749210    -1.0002390    -1.1082240
  H        0.5361330     1.8319630     0.8766110
units angstrom
no_reorient  #important for SAPT in psi4, default
symmetry c1  #important for SAPT in psi4, default
}

set PROPERTIES_ORIGIN ["COM"]
properties('MP2/aug-cc-pvtz', properties = ['dipole'])
--------------------------------------------------------------------------

    Molecular point group: c1
  Charge       = 0
  Multiplicity = 1
  Basis Set: AUG-CC-PVTZ
    Blend: AUG-CC-PVTZ
  Basis Set: (AUG-CC-PVTZ AUX)
    Blend: AUG-CC-PVTZ-JKFIT

    Orbital Energies [Eh]
    ---------------------

    Doubly Occupied:

       1A    -20.559511     2A    -15.548215     3A    -11.278822
       4A    -11.251125     5A    -11.223626     6A    -11.219506
       7A     -1.359341     8A     -1.183438     9A     -1.071645
      10A     -0.960440    11A     -0.856246    12A     -0.805047
      13A     -0.678729    14A     -0.659998    15A     -0.648105
      16A     -0.634903    17A     -0.582767    18A     -0.560752
      19A     -0.545027    20A     -0.518288    21A     -0.509418
      22A     -0.485200    23A     -0.468949    24A     -0.448684
      25A     -0.388198

  @DF-RHF Final Energy:  -287.27494927739127

   => Energetics <=

    Nuclear Repulsion Energy =            261.1515380739612056
    One-Electron Energy =                -907.9610186772147244
    Two-Electron Energy =                 359.5345313258622468
    Total Energy =                       -287.2749492773912721
  Basis Set: (AUG-CC-PVTZ AUX)
    Blend: AUG-CC-PVTZ-RI
    Molecular point group: c1

    Geometry (in Angstrom), charge = 0, multiplicity = 1:

       Center              X                  Y                   Z               Mass
    ------------   -----------------  -----------------  -----------------  -----------------
         O            0.584060828497     1.629347463967    -0.081684531571    15.994914619570
         N           -2.242105171503    -0.861360536033    -0.102572531571    14.003074004430
         C            0.011809828497     0.329092463967    -0.279609531571    12.000000000000
         C            0.866169828497    -0.751232536033     0.374492468429    12.000000000000
         C           -1.445580171503     0.328098463967     0.194285468429    12.000000000000
         C            2.206255928497    -0.764430536033    -0.110783431571    12.000000000000
         H            0.028016828497     0.190406463967    -1.368808531571     1.007825032230
         H            0.859345828497    -0.581595536033     1.461507468429     1.007825032230
         H            0.400513828497    -1.730504536033     0.210887468429     1.007825032230
         H           -1.460715171503     0.480400463967     1.282506468429     1.007825032230
         H           -1.940926171503     1.196067463967    -0.252758531571     1.007825032230
         H            2.899269828497    -1.524552536033     0.365908468429     1.007825032230
         H            2.768801828497     0.208881463967     0.005102468429     1.007825032230
         H            2.319442828497    -0.984816536033    -1.216757531571     1.007825032230
         H           -1.832855171503    -1.682398536033     0.337912468429     1.007825032230
         H           -2.240006171503    -1.036645536033    -1.106381531571     1.007825032230
         H            0.571047828497     1.795556463967     0.878453468429     1.007825032230

  Basis Set: AUG-CC-PVTZ
    Blend: AUG-CC-PVTZ
  Basis Set: (AUG-CC-PVTZ AUX)
    Blend: AUG-CC-PVTZ-JKFIT
	 Reference Energy          =    -287.2749492773912721 [Eh]
	 Singles Energy            =      -0.0000000000000000 [Eh]
	 Same-Spin Energy          =      -0.2937571609519871 [Eh]
	 Opposite-Spin Energy      =      -1.0029564266109807 [Eh]
	 Correlation Energy        =      -1.2967135875629678 [Eh]
	 Total Energy              =    -288.5716628649542486 [Eh]

	 ================> DF-SCS-MP2 Energies <==================
	-----------------------------------------------------------
	 SCS Same-Spin Scale       =       0.3333333333333333 [-]
	 SCS Opposite-Spin Scale   =       1.2000000000000000 [-]
	 SCS Same-Spin Energy      =      -0.0979190536506624 [Eh]
	 SCS Opposite-Spin Energy  =      -1.2035477119331768 [Eh]
	 SCS Correlation Energy    =      -1.3014667655838392 [Eh]
	 SCS Total Energy          =    -288.5764160429750973 [Eh]
	-----------------------------------------------------------

  Dipole Moment: [D]
     X:     0.6941      Y:    -1.2873      Z:     0.6395     Total:     1.5962

*** Psi4 exiting successfully. Buy a developer a beer!
