                               Psi4 1.4a3.dev225

  ==> Input File <==

--------------------------------------------------------------------------
#psi4
#
memory 32 gb

molecule  {
0 1
  O        0.5491460     1.6657540    -0.0835270
  N       -2.2770200    -0.8249540    -0.1044150
  C       -0.0231050     0.3654990    -0.2814520
  C        0.8312550    -0.7148260     0.3726500
  C       -1.4804950     0.3645050     0.1924430
  C        2.2653620    -0.7289500    -0.1466730
  H       -0.0068980     0.2268130    -1.3706510
  H        0.8244310    -0.5451890     1.4596650
  H        0.3655990    -1.6940980     0.2090450
  H       -1.4956300     0.5168070     1.2806640
  H       -1.9758410     1.2324740    -0.2546010
  H        2.8643550    -1.4881460     0.3640660
  H        2.7338870     0.2452880     0.0032600
  H        2.2845280    -0.9484100    -1.2186000
  H       -1.7873398    -1.8073513     0.4226389
  H       -2.2749210    -1.0002390    -1.1082240
  H        0.5361330     1.8319630     0.8766110
units angstrom
no_reorient  #important for SAPT in psi4, default
symmetry c1  #important for SAPT in psi4, default
}

set PROPERTIES_ORIGIN ["COM"]
properties('MP2/aug-cc-pvtz', properties = ['dipole'])
--------------------------------------------------------------------------

    Molecular point group: c1
  Charge       = 0
  Multiplicity = 1
  Basis Set: AUG-CC-PVTZ
    Blend: AUG-CC-PVTZ
  Basis Set: (AUG-CC-PVTZ AUX)
    Blend: AUG-CC-PVTZ-JKFIT

    Orbital Energies [Eh]
    ---------------------

    Doubly Occupied:

       1A    -20.559136     2A    -15.567918     3A    -11.278243
       4A    -11.252061     5A    -11.226936     6A    -11.214017
       7A     -1.358700     8A     -1.166243     9A     -1.052452
      10A     -0.952579    11A     -0.859103    12A     -0.804670
      13A     -0.661777    14A     -0.655601    15A     -0.641438
      16A     -0.623825    17A     -0.580766    18A     -0.548410
      19A     -0.536999    20A     -0.520891    21A     -0.500351
      22A     -0.487956    23A     -0.475887    24A     -0.453216
      25A     -0.386088

  @DF-RHF Final Energy:  -287.25828271555042

   => Energetics <=

    Nuclear Repulsion Energy =            258.9157911728401587
    One-Electron Energy =                -903.6176280266280401
    Two-Electron Energy =                 357.4435541382374595
    Total Energy =                       -287.2582827155504219
  Basis Set: (AUG-CC-PVTZ AUX)
    Blend: AUG-CC-PVTZ-RI
    Molecular point group: c1

    Geometry (in Angstrom), charge = 0, multiplicity = 1:

       Center              X                  Y                   Z               Mass
    ------------   -----------------  -----------------  -----------------  -----------------
         O            0.570485893599     1.631297688665    -0.078077613777    15.994914619570
         N           -2.255680106401    -0.859410311335    -0.098965613777    14.003074004430
         C           -0.001765106401     0.331042688665    -0.276002613777    12.000000000000
         C            0.852594893599    -0.749282311335     0.378099386223    12.000000000000
         C           -1.459155106401     0.330048688665     0.197892386223    12.000000000000
         C            2.286701893599    -0.763406311335    -0.141223613777    12.000000000000
         H            0.014441893599     0.192356688665    -1.365201613777     1.007825032230
         H            0.845770893599    -0.579645311335     1.465114386223     1.007825032230
         H            0.386938893599    -1.728554311335     0.214494386223     1.007825032230
         H           -1.474290106401     0.482350688665     1.286113386223     1.007825032230
         H           -1.954501106401     1.198017688665    -0.249151613777     1.007825032230
         H            2.885694893599    -1.522602311335     0.369515386223     1.007825032230
         H            2.755226893599     0.210831688665     0.008709386223     1.007825032230
         H            2.305867893599    -0.982866311335    -1.213150613777     1.007825032230
         H           -1.765999906401    -1.841807611335     0.428088286223     1.007825032230
         H           -2.253581106401    -1.034695311335    -1.102774613777     1.007825032230
         H            0.557472893599     1.797506688665     0.882060386223     1.007825032230

  Basis Set: AUG-CC-PVTZ
    Blend: AUG-CC-PVTZ
  Basis Set: (AUG-CC-PVTZ AUX)
    Blend: AUG-CC-PVTZ-JKFIT
	 Reference Energy          =    -287.2582827155504219 [Eh]
	 Singles Energy            =      -0.0000000000000000 [Eh]
	 Same-Spin Energy          =      -0.2937473510088908 [Eh]
	 Opposite-Spin Energy      =      -1.0056571665862659 [Eh]
	 Correlation Energy        =      -1.2994045175951567 [Eh]
	 Total Energy              =    -288.5576872331456002 [Eh]

	 ================> DF-SCS-MP2 Energies <==================
	-----------------------------------------------------------
	 SCS Same-Spin Scale       =       0.3333333333333333 [-]
	 SCS Opposite-Spin Scale   =       1.2000000000000000 [-]
	 SCS Same-Spin Energy      =      -0.0979157836696303 [Eh]
	 SCS Opposite-Spin Energy  =      -1.2067885999035191 [Eh]
	 SCS Correlation Energy    =      -1.3047043835731493 [Eh]
	 SCS Total Energy          =    -288.5629870991235748 [Eh]
	-----------------------------------------------------------

  Dipole Moment: [D]
     X:     0.7230      Y:    -1.2838      Z:     0.6520     Total:     1.6112

*** Psi4 exiting successfully. Buy a developer a beer!
