                               Psi4 1.4a3.dev225

  ==> Input File <==

--------------------------------------------------------------------------
#psi4
#
memory 32 gb

molecule  {
0 1
  O        0.5491460     1.6657540    -0.0835270
  N       -2.2770200    -0.8249540    -0.1044150
  C       -0.0231050     0.3654990    -0.2814520
  C        0.8312550    -0.7148260     0.3726500
  C       -1.4804950     0.3645050     0.1924430
  C        2.2653620    -0.7289500    -0.1466730
  H       -0.0068980     0.2268130    -1.3706510
  H        0.8244310    -0.5451890     1.4596650
  H        0.3231362    -1.7833971     0.1941260
  H       -1.4956300     0.5168070     1.2806640
  H       -1.9758410     1.2324740    -0.2546010
  H        2.8643550    -1.4881460     0.3640660
  H        2.7338870     0.2452880     0.0032600
  H        2.2845280    -0.9484100    -1.2186000
  H       -1.8677700    -1.6459920     0.3360700
  H       -2.2749210    -1.0002390    -1.1082240
  H        0.5361330     1.8319630     0.8766110
units angstrom
no_reorient  #important for SAPT in psi4, default
symmetry c1  #important for SAPT in psi4, default
}

set PROPERTIES_ORIGIN ["COM"]
properties('MP2/aug-cc-pvtz', properties = ['dipole'])
--------------------------------------------------------------------------

    Molecular point group: c1
  Charge       = 0
  Multiplicity = 1
  Basis Set: AUG-CC-PVTZ
    Blend: AUG-CC-PVTZ
  Basis Set: (AUG-CC-PVTZ AUX)
    Blend: AUG-CC-PVTZ-JKFIT

    Orbital Energies [Eh]
    ---------------------

    Doubly Occupied:

       1A    -20.560447     2A    -15.546912     3A    -11.279323
       4A    -11.250809     5A    -11.239883     6A    -11.215615
       7A     -1.359877     8A     -1.182268     9A     -1.051219
      10A     -0.958576    11A     -0.861083    12A     -0.801957
      13A     -0.674606    14A     -0.658738    15A     -0.639513
      16A     -0.630663    17A     -0.580543    18A     -0.555758
      19A     -0.543729    20A     -0.521528    21A     -0.501859
      22A     -0.485251    23A     -0.476552    24A     -0.453772
      25A     -0.387230

  @DF-RHF Final Energy:  -287.27997242843230

   => Energetics <=

    Nuclear Repulsion Energy =            259.2933959605741165
    One-Electron Energy =                -904.3113107879954669
    Two-Electron Energy =                 357.7379423989890483
    Total Energy =                       -287.2799724284323020
  Basis Set: (AUG-CC-PVTZ AUX)
    Blend: AUG-CC-PVTZ-RI
    Molecular point group: c1

    Geometry (in Angstrom), charge = 0, multiplicity = 1:

       Center              X                  Y                   Z               Mass
    ------------   -----------------  -----------------  -----------------  -----------------
         O            0.571876205583     1.630482457857    -0.076929461778    15.994914619570
         N           -2.254289794417    -0.860225542143    -0.097817461778    14.003074004430
         C           -0.000374794417     0.330227457857    -0.274854461778    12.000000000000
         C            0.853985205583    -0.750097542143     0.379247538222    12.000000000000
         C           -1.457764794417     0.329233457857     0.199040538222    12.000000000000
         C            2.288092205583    -0.764221542143    -0.140075461778    12.000000000000
         H            0.015832205583     0.191541457857    -1.364053461778     1.007825032230
         H            0.847161205583    -0.580460542143     1.466262538222     1.007825032230
         H            0.345866405583    -1.818668642143     0.200723538222     1.007825032230
         H           -1.472899794417     0.481535457857     1.287261538222     1.007825032230
         H           -1.953110794417     1.197202457857    -0.248003461778     1.007825032230
         H            2.887085205583    -1.523417542143     0.370663538222     1.007825032230
         H            2.756617205583     0.210016457857     0.009857538222     1.007825032230
         H            2.307258205583    -0.983681542143    -1.212002461778     1.007825032230
         H           -1.845039794417    -1.681263542143     0.342667538222     1.007825032230
         H           -2.252190794417    -1.035510542143    -1.101626461778     1.007825032230
         H            0.558863205583     1.796691457857     0.883208538222     1.007825032230

  Basis Set: AUG-CC-PVTZ
    Blend: AUG-CC-PVTZ
  Basis Set: (AUG-CC-PVTZ AUX)
    Blend: AUG-CC-PVTZ-JKFIT
	 Reference Energy          =    -287.2799724284323020 [Eh]
	 Singles Energy            =      -0.0000000000000000 [Eh]
	 Same-Spin Energy          =      -0.2928671552934564 [Eh]
	 Opposite-Spin Energy      =      -1.0026373043660568 [Eh]
	 Correlation Energy        =      -1.2955044596595133 [Eh]
	 Total Energy              =    -288.5754768880918277 [Eh]

	 ================> DF-SCS-MP2 Energies <==================
	-----------------------------------------------------------
	 SCS Same-Spin Scale       =       0.3333333333333333 [-]
	 SCS Opposite-Spin Scale   =       1.2000000000000000 [-]
	 SCS Same-Spin Energy      =      -0.0976223850978188 [Eh]
	 SCS Opposite-Spin Energy  =      -1.2031647652392681 [Eh]
	 SCS Correlation Energy    =      -1.3007871503370869 [Eh]
	 SCS Total Energy          =    -288.5807595787694027 [Eh]
	-----------------------------------------------------------

  Dipole Moment: [D]
     X:     0.7685      Y:    -1.2285      Z:     0.6248     Total:     1.5780

*** Psi4 exiting successfully. Buy a developer a beer!
