                               Psi4 1.4a3.dev225

  ==> Input File <==

--------------------------------------------------------------------------
#psi4
#
memory 32 gb

molecule  {
0 1
  O        0.5491460     1.6657540    -0.0835270
  N       -2.2770200    -0.8249540    -0.1044150
  C       -0.0231050     0.3654990    -0.2814520
  C        0.8312550    -0.7148260     0.3726500
  C       -1.4804950     0.3645050     0.1924430
  C        2.2465578    -0.7287648    -0.1398636
  H       -0.0068980     0.2268130    -1.3706510
  H        0.8244310    -0.5451890     1.4596650
  H        0.3655990    -1.6940980     0.2090450
  H       -1.4956300     0.5168070     1.2806640
  H       -1.9758410     1.2324740    -0.2546010
  H        2.8643550    -1.4881460     0.3640660
  H        2.7338870     0.2452880     0.0032600
  H        2.2845280    -0.9484100    -1.2186000
  H       -1.8677700    -1.6459920     0.3360700
  H       -2.2749210    -1.0002390    -1.1082240
  H        0.5361330     1.8319630     0.8766110
units angstrom
no_reorient  #important for SAPT in psi4, default
symmetry c1  #important for SAPT in psi4, default
}

set PROPERTIES_ORIGIN ["COM"]
properties('MP2/aug-cc-pvtz', properties = ['dipole'])
--------------------------------------------------------------------------

    Molecular point group: c1
  Charge       = 0
  Multiplicity = 1
  Basis Set: AUG-CC-PVTZ
    Blend: AUG-CC-PVTZ
  Basis Set: (AUG-CC-PVTZ AUX)
    Blend: AUG-CC-PVTZ-JKFIT

    Orbital Energies [Eh]
    ---------------------

    Doubly Occupied:

       1A    -20.559104     2A    -15.547853     3A    -11.278263
       4A    -11.250792     5A    -11.226873     6A    -11.215134
       7A     -1.358722     8A     -1.182993     9A     -1.057252
      10A     -0.958529    11A     -0.861529    12A     -0.805212
      13A     -0.676822    14A     -0.658463    15A     -0.644993
      16A     -0.632583    17A     -0.580788    18A     -0.555684
      19A     -0.543974    20A     -0.518855    21A     -0.505699
      22A     -0.486340    23A     -0.481043    24A     -0.452727
      25A     -0.387815

  @DF-RHF Final Energy:  -287.28597014375026

   => Energetics <=

    Nuclear Repulsion Energy =            259.9907059024197338
    One-Electron Energy =                -905.6972699398318127
    Two-Electron Energy =                 358.4205938936618736
    Total Energy =                       -287.2859701437502622
  Basis Set: (AUG-CC-PVTZ AUX)
    Blend: AUG-CC-PVTZ-RI
    Molecular point group: c1

    Geometry (in Angstrom), charge = 0, multiplicity = 1:

       Center              X                  Y                   Z               Mass
    ------------   -----------------  -----------------  -----------------  -----------------
         O            0.573928821046     1.629447252859    -0.078015498240    15.994914619570
         N           -2.252237178954    -0.861260747141    -0.098903498240    14.003074004430
         C            0.001677821046     0.329192252859    -0.275940498240    12.000000000000
         C            0.856037821046    -0.751132747141     0.378161501760    12.000000000000
         C           -1.455712178954     0.328198252859     0.197954501760    12.000000000000
         C            2.271340621046    -0.765071547141    -0.134352098240    12.000000000000
         H            0.017884821046     0.190506252859    -1.365139498240     1.007825032230
         H            0.849213821046    -0.581495747141     1.465176501760     1.007825032230
         H            0.390381821046    -1.730404747141     0.214556501760     1.007825032230
         H           -1.470847178954     0.480500252859     1.286175501760     1.007825032230
         H           -1.951058178954     1.196167252859    -0.249089498240     1.007825032230
         H            2.889137821046    -1.524452747141     0.369577501760     1.007825032230
         H            2.758669821046     0.208981252859     0.008771501760     1.007825032230
         H            2.309310821046    -0.984716747141    -1.213088498240     1.007825032230
         H           -1.842987178954    -1.682298747141     0.341581501760     1.007825032230
         H           -2.250138178954    -1.036545747141    -1.102712498240     1.007825032230
         H            0.560915821046     1.795656252859     0.882122501760     1.007825032230

  Basis Set: AUG-CC-PVTZ
    Blend: AUG-CC-PVTZ
  Basis Set: (AUG-CC-PVTZ AUX)
    Blend: AUG-CC-PVTZ-JKFIT
	 Reference Energy          =    -287.2859701437502622 [Eh]
	 Singles Energy            =      -0.0000000000000000 [Eh]
	 Same-Spin Energy          =      -0.2929100573140996 [Eh]
	 Opposite-Spin Energy      =      -1.0019341973645497 [Eh]
	 Correlation Energy        =      -1.2948442546786492 [Eh]
	 Total Energy              =    -288.5808143984289131 [Eh]

	 ================> DF-SCS-MP2 Energies <==================
	-----------------------------------------------------------
	 SCS Same-Spin Scale       =       0.3333333333333333 [-]
	 SCS Opposite-Spin Scale   =       1.2000000000000000 [-]
	 SCS Same-Spin Energy      =      -0.0976366857713665 [Eh]
	 SCS Opposite-Spin Energy  =      -1.2023210368374595 [Eh]
	 SCS Correlation Energy    =      -1.2999577226088259 [Eh]
	 SCS Total Energy          =    -288.5859278663590999 [Eh]
	-----------------------------------------------------------

  Dipole Moment: [D]
     X:     0.7169      Y:    -1.2985      Z:     0.6291     Total:     1.6112

*** Psi4 exiting successfully. Buy a developer a beer!
