                               Psi4 1.4a3.dev225

  ==> Input File <==

--------------------------------------------------------------------------
#psi4
#
memory 32 gb

molecule  {
0 1
  O        0.5491460     1.6657540    -0.0835270
  N       -2.2770200    -0.8249540    -0.1044150
  C       -0.0231050     0.3654990    -0.2814520
  C        0.8312550    -0.7148260     0.3726500
  C       -1.4804950     0.3645050     0.1924430
  C        2.2653620    -0.7289500    -0.1466730
  H       -0.0066028     0.2242871    -1.3904887
  H        0.8244310    -0.5451890     1.4596650
  H        0.3655990    -1.6940980     0.2090450
  H       -1.4956300     0.5168070     1.2806640
  H       -1.9758410     1.2324740    -0.2546010
  H        2.8643550    -1.4881460     0.3640660
  H        2.7338870     0.2452880     0.0032600
  H        2.2845280    -0.9484100    -1.2186000
  H       -1.8677700    -1.6459920     0.3360700
  H       -2.2749210    -1.0002390    -1.1082240
  H        0.5361330     1.8319630     0.8766110
units angstrom
no_reorient  #important for SAPT in psi4, default
symmetry c1  #important for SAPT in psi4, default
}

set PROPERTIES_ORIGIN ["COM"]
properties('MP2/aug-cc-pvtz', properties = ['dipole'])
--------------------------------------------------------------------------

    Molecular point group: c1
  Charge       = 0
  Multiplicity = 1
  Basis Set: AUG-CC-PVTZ
    Blend: AUG-CC-PVTZ
  Basis Set: (AUG-CC-PVTZ AUX)
    Blend: AUG-CC-PVTZ-JKFIT

    Orbital Energies [Eh]
    ---------------------

    Doubly Occupied:

       1A    -20.559358     2A    -15.547764     3A    -11.280711
       4A    -11.250956     5A    -11.227851     6A    -11.214333
       7A     -1.358803     8A     -1.182886     9A     -1.054049
      10A     -0.957679    11A     -0.862725    12A     -0.803301
      13A     -0.676433    14A     -0.658265    15A     -0.643892
      16A     -0.632177    17A     -0.580679    18A     -0.555478
      19A     -0.543195    20A     -0.520569    21A     -0.502195
      22A     -0.488167    23A     -0.480508    24A     -0.453054
      25A     -0.387806

  @DF-RHF Final Energy:  -287.28600073296667

   => Energetics <=

    Nuclear Repulsion Energy =            259.6110439792379339
    One-Electron Energy =                -904.9484229628909588
    Two-Electron Energy =                 358.0513782506863549
    Total Energy =                       -287.2860007329666701
  Basis Set: (AUG-CC-PVTZ AUX)
    Blend: AUG-CC-PVTZ-RI
    Molecular point group: c1

    Geometry (in Angstrom), charge = 0, multiplicity = 1:

       Center              X                  Y                   Z               Mass
    ------------   -----------------  -----------------  -----------------  -----------------
         O            0.571392476161     1.629500776071    -0.076873815586    15.994914619570
         N           -2.254773523839    -0.861207223929    -0.097761815586    14.003074004430
         C           -0.000858523839     0.329245776071    -0.274798815586    12.000000000000
         C            0.853501476161    -0.751079223929     0.379303184414    12.000000000000
         C           -1.458248523839     0.328251776071     0.199096184414    12.000000000000
         C            2.287608476161    -0.765203223929    -0.140019815586    12.000000000000
         H            0.015643676161     0.188033876071    -1.383835515586     1.007825032230
         H            0.846677476161    -0.581442223929     1.466318184414     1.007825032230
         H            0.387845476161    -1.730351223929     0.215698184414     1.007825032230
         H           -1.473383523839     0.480553776071     1.287317184414     1.007825032230
         H           -1.953594523839     1.196220776071    -0.247947815586     1.007825032230
         H            2.886601476161    -1.524399223929     0.370719184414     1.007825032230
         H            2.756133476161     0.209034776071     0.009913184414     1.007825032230
         H            2.306774476161    -0.984663223929    -1.211946815586     1.007825032230
         H           -1.845523523839    -1.682245223929     0.342723184414     1.007825032230
         H           -2.252674523839    -1.036492223929    -1.101570815586     1.007825032230
         H            0.558379476161     1.795709776071     0.883264184414     1.007825032230

  Basis Set: AUG-CC-PVTZ
    Blend: AUG-CC-PVTZ
  Basis Set: (AUG-CC-PVTZ AUX)
    Blend: AUG-CC-PVTZ-JKFIT
	 Reference Energy          =    -287.2860007329666701 [Eh]
	 Singles Energy            =      -0.0000000000000000 [Eh]
	 Same-Spin Energy          =      -0.2928017865873054 [Eh]
	 Opposite-Spin Energy      =      -1.0019605354151724 [Eh]
	 Correlation Energy        =      -1.2947623220024778 [Eh]
	 Total Energy              =    -288.5807630549691680 [Eh]

	 ================> DF-SCS-MP2 Energies <==================
	-----------------------------------------------------------
	 SCS Same-Spin Scale       =       0.3333333333333333 [-]
	 SCS Opposite-Spin Scale   =       1.2000000000000000 [-]
	 SCS Same-Spin Energy      =      -0.0976005955291018 [Eh]
	 SCS Opposite-Spin Energy  =      -1.2023526424982067 [Eh]
	 SCS Correlation Energy    =      -1.2999532380273084 [Eh]
	 SCS Total Energy          =    -288.5859539709939554 [Eh]
	-----------------------------------------------------------

  Dipole Moment: [D]
     X:     0.7212      Y:    -1.2971      Z:     0.6409     Total:     1.6166

*** Psi4 exiting successfully. Buy a developer a beer!
