                               Psi4 1.4a3.dev225

  ==> Input File <==

--------------------------------------------------------------------------
#psi4
#
memory 32 gb

molecule  {
0 1
  O        0.5491460     1.6657540    -0.0835270
  N       -2.2770200    -0.8249540    -0.1044150
  C       -0.0231050     0.3654990    -0.2814520
  C        0.8312550    -0.7148260     0.3726500
  C       -1.4804950     0.3645050     0.1924430
  C        2.2841662    -0.7291352    -0.1534824
  H       -0.0068980     0.2268130    -1.3706510
  H        0.8244310    -0.5451890     1.4596650
  H        0.3655990    -1.6940980     0.2090450
  H       -1.4956300     0.5168070     1.2806640
  H       -1.9758410     1.2324740    -0.2546010
  H        2.8643550    -1.4881460     0.3640660
  H        2.7338870     0.2452880     0.0032600
  H        2.2845280    -0.9484100    -1.2186000
  H       -1.8677700    -1.6459920     0.3360700
  H       -2.2749210    -1.0002390    -1.1082240
  H        0.5361330     1.8319630     0.8766110
units angstrom
no_reorient  #important for SAPT in psi4, default
symmetry c1  #important for SAPT in psi4, default
}

set PROPERTIES_ORIGIN ["COM"]
properties('MP2/aug-cc-pvtz', properties = ['dipole'])
--------------------------------------------------------------------------

    Molecular point group: c1
  Charge       = 0
  Multiplicity = 1
  Basis Set: AUG-CC-PVTZ
    Blend: AUG-CC-PVTZ
  Basis Set: (AUG-CC-PVTZ AUX)
    Blend: AUG-CC-PVTZ-JKFIT

    Orbital Energies [Eh]
    ---------------------

    Doubly Occupied:

       1A    -20.558949     2A    -15.547704     3A    -11.278092
       4A    -11.250669     5A    -11.228313     6A    -11.213617
       7A     -1.358476     8A     -1.182817     9A     -1.051454
      10A     -0.957776    11A     -0.864019    12A     -0.805118
      13A     -0.676093    14A     -0.657826    15A     -0.643821
      16A     -0.631791    17A     -0.581191    18A     -0.556286
      19A     -0.543070    20A     -0.523022    21A     -0.498577
      22A     -0.490899    23A     -0.480124    24A     -0.453840
      25A     -0.387513

  @DF-RHF Final Energy:  -287.28637316902910

   => Energetics <=

    Nuclear Repulsion Energy =            259.4360126363079644
    One-Electron Energy =                -904.6026585065599193
    Two-Electron Energy =                 357.8802727012228502
    Total Energy =                       -287.2863731690291047
  Basis Set: (AUG-CC-PVTZ AUX)
    Blend: AUG-CC-PVTZ-RI
    Molecular point group: c1

    Geometry (in Angstrom), charge = 0, multiplicity = 1:

       Center              X                  Y                   Z               Mass
    ------------   -----------------  -----------------  -----------------  -----------------
         O            0.568862810585     1.629497147305    -0.076180988310    15.994914619570
         N           -2.257303189415    -0.861210852695    -0.097068988310    14.003074004430
         C           -0.003388189415     0.329242147305    -0.274105988310    12.000000000000
         C            0.850971810585    -0.751082852695     0.379996011690    12.000000000000
         C           -1.460778189415     0.328248147305     0.199789011690    12.000000000000
         C            2.303883010585    -0.765392052695    -0.146136388310    12.000000000000
         H            0.012818810585     0.190556147305    -1.363304988310     1.007825032230
         H            0.844147810585    -0.581445852695     1.467011011690     1.007825032230
         H            0.385315810585    -1.730354852695     0.216391011690     1.007825032230
         H           -1.475913189415     0.480550147305     1.288010011690     1.007825032230
         H           -1.956124189415     1.196217147305    -0.247254988310     1.007825032230
         H            2.884071810585    -1.524402852695     0.371412011690     1.007825032230
         H            2.753603810585     0.209031147305     0.010606011690     1.007825032230
         H            2.304244810585    -0.984666852695    -1.211253988310     1.007825032230
         H           -1.848053189415    -1.682248852695     0.343416011690     1.007825032230
         H           -2.255204189415    -1.036495852695    -1.100877988310     1.007825032230
         H            0.555849810585     1.795706147305     0.883957011690     1.007825032230

  Basis Set: AUG-CC-PVTZ
    Blend: AUG-CC-PVTZ
  Basis Set: (AUG-CC-PVTZ AUX)
    Blend: AUG-CC-PVTZ-JKFIT
	 Reference Energy          =    -287.2863731690291047 [Eh]
	 Singles Energy            =      -0.0000000000000000 [Eh]
	 Same-Spin Energy          =      -0.2926657209418895 [Eh]
	 Opposite-Spin Energy      =      -1.0017403104109672 [Eh]
	 Correlation Energy        =      -1.2944060313528567 [Eh]
	 Total Energy              =    -288.5807792003819827 [Eh]

	 ================> DF-SCS-MP2 Energies <==================
	-----------------------------------------------------------
	 SCS Same-Spin Scale       =       0.3333333333333333 [-]
	 SCS Opposite-Spin Scale   =       1.2000000000000000 [-]
	 SCS Same-Spin Energy      =      -0.0975552403139632 [Eh]
	 SCS Opposite-Spin Energy  =      -1.2020883724931606 [Eh]
	 SCS Correlation Energy    =      -1.2996436128071238 [Eh]
	 SCS Total Energy          =    -288.5860167818362356 [Eh]
	-----------------------------------------------------------

  Dipole Moment: [D]
     X:     0.7213      Y:    -1.3026      Z:     0.6259     Total:     1.6152

*** Psi4 exiting successfully. Buy a developer a beer!
