                               Psi4 1.4a3.dev225

  ==> Input File <==

--------------------------------------------------------------------------
#psi4
#
memory 32 gb

molecule  {
0 1
  O        0.5491460     1.6657540    -0.0835270
  N       -2.2770200    -0.8249540    -0.1044150
  C       -0.0231050     0.3654990    -0.2814520
  C        0.8312550    -0.7148260     0.3726500
  C       -1.4804950     0.3645050     0.1924430
  C        2.2653620    -0.7289500    -0.1466730
  H       -0.0068980     0.2268130    -1.3706510
  H        0.8245551    -0.5482728     1.4399046
  H        0.3655990    -1.6940980     0.2090450
  H       -1.4956300     0.5168070     1.2806640
  H       -1.9758410     1.2324740    -0.2546010
  H        2.8643550    -1.4881460     0.3640660
  H        2.7338870     0.2452880     0.0032600
  H        2.2845280    -0.9484100    -1.2186000
  H       -1.8677700    -1.6459920     0.3360700
  H       -2.2749210    -1.0002390    -1.1082240
  H        0.5361330     1.8319630     0.8766110
units angstrom
no_reorient  #important for SAPT in psi4, default
symmetry c1  #important for SAPT in psi4, default
}

set PROPERTIES_ORIGIN ["COM"]
properties('MP2/aug-cc-pvtz', properties = ['dipole'])
--------------------------------------------------------------------------

    Molecular point group: c1
  Charge       = 0
  Multiplicity = 1
  Basis Set: AUG-CC-PVTZ
    Blend: AUG-CC-PVTZ
  Basis Set: (AUG-CC-PVTZ AUX)
    Blend: AUG-CC-PVTZ-JKFIT

    Orbital Energies [Eh]
    ---------------------

    Doubly Occupied:

       1A    -20.559027     2A    -15.547743     3A    -11.277923
       4A    -11.250722     5A    -11.225030     6A    -11.214058
       7A     -1.358592     8A     -1.182880     9A     -1.054988
      10A     -0.958049    11A     -0.863182    12A     -0.806372
      13A     -0.676470    14A     -0.658302    15A     -0.644991
      16A     -0.632394    17A     -0.581446    18A     -0.555681
      19A     -0.543464    20A     -0.521078    21A     -0.502022
      22A     -0.489906    23A     -0.481083    24A     -0.453319
      25A     -0.387615

  @DF-RHF Final Energy:  -287.28657578792684

   => Energetics <=

    Nuclear Repulsion Energy =            259.8040529001292498
    One-Electron Energy =                -905.3285786335959529
    Two-Electron Energy =                 358.2379499455398673
    Total Energy =                       -287.2865757879268358
  Basis Set: (AUG-CC-PVTZ AUX)
    Blend: AUG-CC-PVTZ-RI
    Molecular point group: c1

    Geometry (in Angstrom), charge = 0, multiplicity = 1:

       Center              X                  Y                   Z               Mass
    ------------   -----------------  -----------------  -----------------  -----------------
         O            0.571394411848     1.629507087700    -0.076874690096    15.994914619570
         N           -2.254771588152    -0.861200912300    -0.097762690096    14.003074004430
         C           -0.000856588152     0.329252087700    -0.274799690096    12.000000000000
         C            0.853503411848    -0.751072912300     0.379302309904    12.000000000000
         C           -1.458246588152     0.328258087700     0.199095309904    12.000000000000
         C            2.287610411848    -0.765196912300    -0.140020690096    12.000000000000
         H            0.015350411848     0.190566087700    -1.363998690096     1.007825032230
         H            0.846803511848    -0.584519712300     1.446556909904     1.007825032230
         H            0.387847411848    -1.730344912300     0.215697309904     1.007825032230
         H           -1.473381588152     0.480560087700     1.287316309904     1.007825032230
         H           -1.953592588152     1.196227087700    -0.247948690096     1.007825032230
         H            2.886603411848    -1.524392912300     0.370718309904     1.007825032230
         H            2.756135411848     0.209041087700     0.009912309904     1.007825032230
         H            2.306776411848    -0.984656912300    -1.211947690096     1.007825032230
         H           -1.845521588152    -1.682238912300     0.342722309904     1.007825032230
         H           -2.252672588152    -1.036485912300    -1.101571690096     1.007825032230
         H            0.558381411848     1.795716087700     0.883263309904     1.007825032230

  Basis Set: AUG-CC-PVTZ
    Blend: AUG-CC-PVTZ
  Basis Set: (AUG-CC-PVTZ AUX)
    Blend: AUG-CC-PVTZ-JKFIT
	 Reference Energy          =    -287.2865757879268358 [Eh]
	 Singles Energy            =      -0.0000000000000000 [Eh]
	 Same-Spin Energy          =      -0.2927706934665288 [Eh]
	 Opposite-Spin Energy      =      -1.0017005795473177 [Eh]
	 Correlation Energy        =      -1.2944712730138466 [Eh]
	 Total Energy              =    -288.5810470609407048 [Eh]

	 ================> DF-SCS-MP2 Energies <==================
	-----------------------------------------------------------
	 SCS Same-Spin Scale       =       0.3333333333333333 [-]
	 SCS Opposite-Spin Scale   =       1.2000000000000000 [-]
	 SCS Same-Spin Energy      =      -0.0975902311555096 [Eh]
	 SCS Opposite-Spin Energy  =      -1.2020406954567813 [Eh]
	 SCS Correlation Energy    =      -1.2996309266122910 [Eh]
	 SCS Total Energy          =    -288.5862067145391165 [Eh]
	-----------------------------------------------------------

  Dipole Moment: [D]
     X:     0.7170      Y:    -1.2991      Z:     0.6424     Total:     1.6169

*** Psi4 exiting successfully. Buy a developer a beer!
