                               Psi4 1.4a3.dev225

  ==> Input File <==

--------------------------------------------------------------------------
#psi4
#
memory 32 gb

molecule  {
0 1
  O        0.5491460     1.6657540    -0.0835270
  N       -2.2770200    -0.8249540    -0.1044150
  C       -0.0231050     0.3654990    -0.2814520
  C        0.8312550    -0.7148260     0.3726500
  C       -1.4804950     0.3645050     0.1924430
  C        2.2653620    -0.7289500    -0.1466730
  H       -0.0068980     0.2268130    -1.3706510
  H        0.8244310    -0.5451890     1.4596650
  H        0.3655990    -1.6940980     0.2090450
  H       -1.4956300     0.5168070     1.2806640
  H       -1.9758410     1.2324740    -0.2546010
  H        2.8643550    -1.4881460     0.3640660
  H        2.7338870     0.2452880     0.0032600
  H        2.2845280    -0.9484100    -1.2186000
  H       -1.8677700    -1.6459920     0.3360700
  H       -2.2749210    -1.0002390    -1.1082240
  H        0.5334623     1.8660745     1.0736625
units angstrom
no_reorient  #important for SAPT in psi4, default
symmetry c1  #important for SAPT in psi4, default
}

set PROPERTIES_ORIGIN ["COM"]
properties('MP2/aug-cc-pvtz', properties = ['dipole'])
--------------------------------------------------------------------------

    Molecular point group: c1
  Charge       = 0
  Multiplicity = 1
  Basis Set: AUG-CC-PVTZ
    Blend: AUG-CC-PVTZ
  Basis Set: (AUG-CC-PVTZ AUX)
    Blend: AUG-CC-PVTZ-JKFIT

    Orbital Energies [Eh]
    ---------------------

    Doubly Occupied:

       1A    -20.575042     2A    -15.547061     3A    -11.277464
       4A    -11.249895     5A    -11.226766     6A    -11.213596
       7A     -1.328297     8A     -1.181500     9A     -1.050215
      10A     -0.953691    11A     -0.861466    12A     -0.792728
      13A     -0.675322    14A     -0.643330    15A     -0.636248
      16A     -0.621108    17A     -0.579663    18A     -0.554029
      19A     -0.531018    20A     -0.519561    21A     -0.500643
      22A     -0.487462    23A     -0.477644    24A     -0.450220
      25A     -0.386520

  @DF-RHF Final Energy:  -287.25122952952557

   => Energetics <=

    Nuclear Repulsion Energy =            258.7080647510693439
    One-Electron Energy =                -903.2776054323099970
    Two-Electron Energy =                 357.3183111517150223
    Total Energy =                       -287.2512295295255740
  Basis Set: (AUG-CC-PVTZ AUX)
    Blend: AUG-CC-PVTZ-RI
    Molecular point group: c1

    Geometry (in Angstrom), charge = 0, multiplicity = 1:

       Center              X                  Y                   Z               Mass
    ------------   -----------------  -----------------  -----------------  -----------------
         O            0.571426029954     1.629086290166    -0.079327524535    15.994914619570
         N           -2.254739970046    -0.861621709834    -0.100215524535    14.003074004430
         C           -0.000824970046     0.328831290166    -0.277252524535    12.000000000000
         C            0.853535029954    -0.751493709834     0.376849475465    12.000000000000
         C           -1.458214970046     0.327837290166     0.196642475465    12.000000000000
         C            2.287642029954    -0.765617709834    -0.142473524535    12.000000000000
         H            0.015382029954     0.190145290166    -1.366451524535     1.007825032230
         H            0.846711029954    -0.581856709834     1.463864475465     1.007825032230
         H            0.387879029954    -1.730765709834     0.213244475465     1.007825032230
         H           -1.473349970046     0.480139290166     1.284863475465     1.007825032230
         H           -1.953560970046     1.195806290166    -0.250401524535     1.007825032230
         H            2.886635029954    -1.524813709834     0.368265475465     1.007825032230
         H            2.756167029954     0.208620290166     0.007459475465     1.007825032230
         H            2.306808029954    -0.985077709834    -1.214400524535     1.007825032230
         H           -1.845489970046    -1.682659709834     0.340269475465     1.007825032230
         H           -2.252640970046    -1.036906709834    -1.104024524535     1.007825032230
         H            0.555742329954     1.829406790166     1.077861975465     1.007825032230

  Basis Set: AUG-CC-PVTZ
    Blend: AUG-CC-PVTZ
  Basis Set: (AUG-CC-PVTZ AUX)
    Blend: AUG-CC-PVTZ-JKFIT
	 Reference Energy          =    -287.2512295295255740 [Eh]
	 Singles Energy            =      -0.0000000000000000 [Eh]
	 Same-Spin Energy          =      -0.2949815469799068 [Eh]
	 Opposite-Spin Energy      =      -1.0085443945441792 [Eh]
	 Correlation Energy        =      -1.3035259415240861 [Eh]
	 Total Energy              =    -288.5547554710496456 [Eh]

	 ================> DF-SCS-MP2 Energies <==================
	-----------------------------------------------------------
	 SCS Same-Spin Scale       =       0.3333333333333333 [-]
	 SCS Opposite-Spin Scale   =       1.2000000000000000 [-]
	 SCS Same-Spin Energy      =      -0.0983271823266356 [Eh]
	 SCS Opposite-Spin Energy  =      -1.2102532734530149 [Eh]
	 SCS Correlation Energy    =      -1.3085804557796505 [Eh]
	 SCS Total Energy          =    -288.5598099853052076 [Eh]
	-----------------------------------------------------------

  Dipole Moment: [D]
     X:     0.7294      Y:    -1.2516      Z:     0.7140     Total:     1.6150

*** Psi4 exiting successfully. Buy a developer a beer!
