                               Psi4 1.4a3.dev225

  ==> Input File <==

--------------------------------------------------------------------------
#psi4
#
memory 32 gb

molecule  {
0 1
  O        0.5491460     1.6657540    -0.0835270
  N       -2.2770200    -0.8249540    -0.1044150
  C       -0.0231050     0.3654990    -0.2814520
  C        0.8312550    -0.7148260     0.3726500
  C       -1.4995147     0.3644920     0.1986276
  C        2.2653620    -0.7289500    -0.1466730
  H       -0.0068980     0.2268130    -1.3706510
  H        0.8244310    -0.5451890     1.4596650
  H        0.3655990    -1.6940980     0.2090450
  H       -1.4956300     0.5168070     1.2806640
  H       -1.9758410     1.2324740    -0.2546010
  H        2.8643550    -1.4881460     0.3640660
  H        2.7338870     0.2452880     0.0032600
  H        2.2845280    -0.9484100    -1.2186000
  H       -1.8677700    -1.6459920     0.3360700
  H       -2.2749210    -1.0002390    -1.1082240
  H        0.5361330     1.8319630     0.8766110
units angstrom
no_reorient  #important for SAPT in psi4, default
symmetry c1  #important for SAPT in psi4, default
}

set PROPERTIES_ORIGIN ["COM"]
properties('MP2/aug-cc-pvtz', properties = ['dipole'])
--------------------------------------------------------------------------

    Molecular point group: c1
  Charge       = 0
  Multiplicity = 1
  Basis Set: AUG-CC-PVTZ
    Blend: AUG-CC-PVTZ
  Basis Set: (AUG-CC-PVTZ AUX)
    Blend: AUG-CC-PVTZ-JKFIT

    Orbital Energies [Eh]
    ---------------------

    Doubly Occupied:

       1A    -20.558680     2A    -15.547446     3A    -11.278233
       4A    -11.250382     5A    -11.227329     6A    -11.214118
       7A     -1.357835     8A     -1.184663     9A     -1.053381
      10A     -0.955262    11A     -0.863437    12A     -0.804956
      13A     -0.677394    14A     -0.656797    15A     -0.643916
      16A     -0.631716    17A     -0.581030    18A     -0.557424
      19A     -0.543497    20A     -0.522083    21A     -0.503234
      22A     -0.488126    23A     -0.480979    24A     -0.453620
      25A     -0.383977

  @DF-RHF Final Energy:  -287.28642966056100

   => Energetics <=

    Nuclear Repulsion Energy =            259.5023940143049117
    One-Electron Energy =                -904.7386152087776736
    Two-Electron Energy =                 357.9497915339118208
    Total Energy =                       -287.2864296605609979
  Basis Set: (AUG-CC-PVTZ AUX)
    Blend: AUG-CC-PVTZ-RI
    Molecular point group: c1

    Geometry (in Angstrom), charge = 0, multiplicity = 1:

       Center              X                  Y                   Z               Mass
    ------------   -----------------  -----------------  -----------------  -----------------
         O            0.573957849807     1.629473951237    -0.077931335039    15.994914619570
         N           -2.252208150193    -0.861234048763    -0.098819335039    14.003074004430
         C            0.001706849807     0.329218951237    -0.275856335039    12.000000000000
         C            0.856066849807    -0.751106048763     0.378245664961    12.000000000000
         C           -1.474702850193     0.328211951237     0.204223264961    12.000000000000
         C            2.290173849807    -0.765230048763    -0.141077335039    12.000000000000
         H            0.017913849807     0.190532951237    -1.365055335039     1.007825032230
         H            0.849242849807    -0.581469048763     1.465260664961     1.007825032230
         H            0.390410849807    -1.730378048763     0.214640664961     1.007825032230
         H           -1.470818150193     0.480526951237     1.286259664961     1.007825032230
         H           -1.951029150193     1.196193951237    -0.249005335039     1.007825032230
         H            2.889166849807    -1.524426048763     0.369661664961     1.007825032230
         H            2.758698849807     0.209007951237     0.008855664961     1.007825032230
         H            2.309339849807    -0.984690048763    -1.213004335039     1.007825032230
         H           -1.842958150193    -1.682272048763     0.341665664961     1.007825032230
         H           -2.250109150193    -1.036519048763    -1.102628335039     1.007825032230
         H            0.560944849807     1.795682951237     0.882206664961     1.007825032230

  Basis Set: AUG-CC-PVTZ
    Blend: AUG-CC-PVTZ
  Basis Set: (AUG-CC-PVTZ AUX)
    Blend: AUG-CC-PVTZ-JKFIT
	 Reference Energy          =    -287.2864296605609979 [Eh]
	 Singles Energy            =      -0.0000000000000000 [Eh]
	 Same-Spin Energy          =      -0.2927043806246532 [Eh]
	 Opposite-Spin Energy      =      -1.0016716593855479 [Eh]
	 Correlation Energy        =      -1.2943760400102011 [Eh]
	 Total Energy              =    -288.5808057005712044 [Eh]

	 ================> DF-SCS-MP2 Energies <==================
	-----------------------------------------------------------
	 SCS Same-Spin Scale       =       0.3333333333333333 [-]
	 SCS Opposite-Spin Scale   =       1.2000000000000000 [-]
	 SCS Same-Spin Energy      =      -0.0975681268748844 [Eh]
	 SCS Opposite-Spin Energy  =      -1.2020059912626575 [Eh]
	 SCS Correlation Energy    =      -1.2995741181375420 [Eh]
	 SCS Total Energy          =    -288.5860037786985117 [Eh]
	-----------------------------------------------------------

  Dipole Moment: [D]
     X:     0.6976      Y:    -1.3049      Z:     0.6320     Total:     1.6089

*** Psi4 exiting successfully. Buy a developer a beer!
