                               Psi4 1.4a3.dev225

  ==> Input File <==

--------------------------------------------------------------------------
#psi4
#
memory 32 gb

molecule  {
0 1
  O        0.5491460     1.6657540    -0.0835270
  N       -2.2770200    -0.8249540    -0.1044150
  C       -0.0231050     0.3654990    -0.2814520
  C        0.8312550    -0.7148260     0.3726500
  C       -1.4804950     0.3645050     0.1924430
  C        2.2653620    -0.7289500    -0.1466730
  H       -0.0068980     0.2268130    -1.3706510
  H        0.8244310    -0.5451890     1.4596650
  H        0.3655990    -1.6940980     0.2090450
  H       -1.4956300     0.5168070     1.2806640
  H       -1.9758410     1.2324740    -0.2546010
  H        2.8643550    -1.4881460     0.3640660
  H        2.7338870     0.2452880     0.0032600
  H        2.2845280    -0.9484100    -1.2186000
  H       -1.8758130    -1.6298561     0.3274131
  H       -2.2749210    -1.0002390    -1.1082240
  H        0.5361330     1.8319630     0.8766110
units angstrom
no_reorient  #important for SAPT in psi4, default
symmetry c1  #important for SAPT in psi4, default
}

set PROPERTIES_ORIGIN ["COM"]
properties('MP2/aug-cc-pvtz', properties = ['dipole'])
--------------------------------------------------------------------------

    Molecular point group: c1
  Charge       = 0
  Multiplicity = 1
  Basis Set: AUG-CC-PVTZ
    Blend: AUG-CC-PVTZ
  Basis Set: (AUG-CC-PVTZ AUX)
    Blend: AUG-CC-PVTZ-JKFIT

    Orbital Energies [Eh]
    ---------------------

    Doubly Occupied:

       1A    -20.559037     2A    -15.545513     3A    -11.278196
       4A    -11.250659     5A    -11.227664     6A    -11.214339
       7A     -1.358610     8A     -1.185481     9A     -1.054482
      10A     -0.958930    11A     -0.863298    12A     -0.805268
      13A     -0.679153    14A     -0.658252    15A     -0.644643
      16A     -0.632630    17A     -0.580939    18A     -0.556754
      19A     -0.543736    20A     -0.521038    21A     -0.502210
      22A     -0.488445    23A     -0.481517    24A     -0.453378
      25A     -0.387892

  @DF-RHF Final Energy:  -287.28689172218537

   => Energetics <=

    Nuclear Repulsion Energy =            259.8043595785066486
    One-Electron Energy =                -905.3183760137264926
    Two-Electron Energy =                 358.2271247130345273
    Total Energy =                       -287.2868917221853735
  Basis Set: (AUG-CC-PVTZ AUX)
    Blend: AUG-CC-PVTZ-RI
    Molecular point group: c1

    Geometry (in Angstrom), charge = 0, multiplicity = 1:

       Center              X                  Y                   Z               Mass
    ------------   -----------------  -----------------  -----------------  -----------------
         O            0.571486807811     1.629289651563    -0.077000306112    15.994914619570
         N           -2.254679192189    -0.861418348437    -0.097888306112    14.003074004430
         C           -0.000764192189     0.329034651563    -0.274925306112    12.000000000000
         C            0.853595807811    -0.751290348437     0.379176693888    12.000000000000
         C           -1.458154192189     0.328040651563     0.198969693888    12.000000000000
         C            2.287702807811    -0.765414348437    -0.140146306112    12.000000000000
         H            0.015442807811     0.190348651563    -1.364124306112     1.007825032230
         H            0.846771807811    -0.581653348437     1.466191693888     1.007825032230
         H            0.387939807811    -1.730562348437     0.215571693888     1.007825032230
         H           -1.473289192189     0.480342651563     1.287190693888     1.007825032230
         H           -1.953500192189     1.196009651563    -0.248074306112     1.007825032230
         H            2.886695807811    -1.524610348437     0.370592693888     1.007825032230
         H            2.756227807811     0.208823651563     0.009786693888     1.007825032230
         H            2.306868807811    -0.984874348437    -1.212073306112     1.007825032230
         H           -1.853472192189    -1.666320448437     0.333939793888     1.007825032230
         H           -2.252580192189    -1.036703348437    -1.101697306112     1.007825032230
         H            0.558473807811     1.795498651563     0.883137693888     1.007825032230

  Basis Set: AUG-CC-PVTZ
    Blend: AUG-CC-PVTZ
  Basis Set: (AUG-CC-PVTZ AUX)
    Blend: AUG-CC-PVTZ-JKFIT
	 Reference Energy          =    -287.2868917221853735 [Eh]
	 Singles Energy            =      -0.0000000000000000 [Eh]
	 Same-Spin Energy          =      -0.2926714188886610 [Eh]
	 Opposite-Spin Energy      =      -1.0014843671327058 [Eh]
	 Correlation Energy        =      -1.2941557860213668 [Eh]
	 Total Energy              =    -288.5810475082067228 [Eh]

	 ================> DF-SCS-MP2 Energies <==================
	-----------------------------------------------------------
	 SCS Same-Spin Scale       =       0.3333333333333333 [-]
	 SCS Opposite-Spin Scale   =       1.2000000000000000 [-]
	 SCS Same-Spin Energy      =      -0.0975571396295537 [Eh]
	 SCS Opposite-Spin Energy  =      -1.2017812405592470 [Eh]
	 SCS Correlation Energy    =      -1.2993383801888005 [Eh]
	 SCS Total Energy          =    -288.5862301023742020 [Eh]
	-----------------------------------------------------------

  Dipole Moment: [D]
     X:     0.7196      Y:    -1.2994      Z:     0.6237     Total:     1.6110

*** Psi4 exiting successfully. Buy a developer a beer!
