                               Psi4 1.4a3.dev225

  ==> Input File <==

--------------------------------------------------------------------------
#psi4
#
memory 32 gb

molecule  {
0 1
  O        0.5491460     1.6657540    -0.0835270
  N       -2.2770200    -0.8249540    -0.1044150
  C       -0.0231050     0.3654990    -0.2814520
  C        0.9135319    -0.6792542     0.3152762
  C       -1.4804950     0.3645050     0.1924430
  C        2.2653620    -0.7289500    -0.1466730
  H       -0.0068980     0.2268130    -1.3706510
  H        0.8244310    -0.5451890     1.4596650
  H        0.3655990    -1.6940980     0.2090450
  H       -1.4956300     0.5168070     1.2806640
  H       -1.9758410     1.2324740    -0.2546010
  H        2.8643550    -1.4881460     0.3640660
  H        2.7338870     0.2452880     0.0032600
  H        2.2845280    -0.9484100    -1.2186000
  H       -1.8677700    -1.6459920     0.3360700
  H       -2.2749210    -1.0002390    -1.1082240
  H        0.5361330     1.8319630     0.8766110
units angstrom
no_reorient  #important for SAPT in psi4, default
symmetry c1  #important for SAPT in psi4, default
}

set PROPERTIES_ORIGIN ["COM"]
properties('MP2/aug-cc-pvtz', properties = ['dipole'])
--------------------------------------------------------------------------

    Molecular point group: c1
  Charge       = 0
  Multiplicity = 1
  Basis Set: AUG-CC-PVTZ
    Blend: AUG-CC-PVTZ
  Basis Set: (AUG-CC-PVTZ AUX)
    Blend: AUG-CC-PVTZ-JKFIT

    Orbital Energies [Eh]
    ---------------------

    Doubly Occupied:

       1A    -20.557341     2A    -15.548258     3A    -11.279092
       4A    -11.253738     5A    -11.233963     6A    -11.211256
       7A     -1.358393     8A     -1.183312     9A     -1.067823
      10A     -0.964967    11A     -0.863084    12A     -0.797240
      13A     -0.676520    14A     -0.658156    15A     -0.641039
      16A     -0.635531    17A     -0.585862    18A     -0.564574
      19A     -0.546588    20A     -0.525410    21A     -0.515372
      22A     -0.483993    23A     -0.461649    24A     -0.444080
      25A     -0.390033

  @DF-RHF Final Energy:  -287.27304972685289

   => Energetics <=

    Nuclear Repulsion Energy =            260.1934984913340259
    One-Electron Energy =                -906.0385473918727257
    Two-Electron Energy =                 358.5719991736858105
    Total Energy =                       -287.2730497268528893
  Basis Set: (AUG-CC-PVTZ AUX)
    Blend: AUG-CC-PVTZ-RI
    Molecular point group: c1

    Geometry (in Angstrom), charge = 0, multiplicity = 1:

       Center              X                  Y                   Z               Mass
    ------------   -----------------  -----------------  -----------------  -----------------
         O            0.560312769579     1.624680528250    -0.069369749881    15.994914619570
         N           -2.265853230421    -0.866027471750    -0.090257749881    14.003074004430
         C           -0.011938230421     0.324425528250    -0.267294749881    12.000000000000
         C            0.924698669579    -0.720327671750     0.329433450119    12.000000000000
         C           -1.469328230421     0.323431528250     0.206600250119    12.000000000000
         C            2.276528769579    -0.770023471750    -0.132515749881    12.000000000000
         H            0.004268769579     0.185739528250    -1.356493749881     1.007825032230
         H            0.835597769579    -0.586262471750     1.473822250119     1.007825032230
         H            0.376765769579    -1.735171471750     0.223202250119     1.007825032230
         H           -1.484463230421     0.475733528250     1.294821250119     1.007825032230
         H           -1.964674230421     1.191400528250    -0.240443749881     1.007825032230
         H            2.875521769579    -1.529219471750     0.378223250119     1.007825032230
         H            2.745053769579     0.204214528250     0.017417250119     1.007825032230
         H            2.295694769579    -0.989483471750    -1.204442749881     1.007825032230
         H           -1.856603230421    -1.687065471750     0.350227250119     1.007825032230
         H           -2.263754230421    -1.041312471750    -1.094066749881     1.007825032230
         H            0.547299769579     1.790889528250     0.890768250119     1.007825032230

  Basis Set: AUG-CC-PVTZ
    Blend: AUG-CC-PVTZ
  Basis Set: (AUG-CC-PVTZ AUX)
    Blend: AUG-CC-PVTZ-JKFIT
	 Reference Energy          =    -287.2730497268528893 [Eh]
	 Singles Energy            =      -0.0000000000000000 [Eh]
	 Same-Spin Energy          =      -0.2936585699866036 [Eh]
	 Opposite-Spin Energy      =      -1.0029809324563475 [Eh]
	 Correlation Energy        =      -1.2966395024429511 [Eh]
	 Total Energy              =    -288.5696892292958182 [Eh]

	 ================> DF-SCS-MP2 Energies <==================
	-----------------------------------------------------------
	 SCS Same-Spin Scale       =       0.3333333333333333 [-]
	 SCS Opposite-Spin Scale   =       1.2000000000000000 [-]
	 SCS Same-Spin Energy      =      -0.0978861899955345 [Eh]
	 SCS Opposite-Spin Energy  =      -1.2035771189476170 [Eh]
	 SCS Correlation Energy    =      -1.3014633089431515 [Eh]
	 SCS Total Energy          =    -288.5745130357960306 [Eh]
	-----------------------------------------------------------

  Dipole Moment: [D]
     X:     0.7400      Y:    -1.2922      Z:     0.5800     Total:     1.5980

*** Psi4 exiting successfully. Buy a developer a beer!
