                               Psi4 1.4a3.dev225

  ==> Input File <==

--------------------------------------------------------------------------
#psi4
#
memory 32 gb

molecule  {
0 1
  O        0.5491460     1.6657540    -0.0835270
  N       -2.2770200    -0.8249540    -0.1044150
  C       -0.0231050     0.3654990    -0.2814520
  C        0.8745204    -0.8330828     0.4708014
  C       -1.4804950     0.3645050     0.1924430
  C        2.2653620    -0.7289500    -0.1466730
  H       -0.0068980     0.2268130    -1.3706510
  H        0.8244310    -0.5451890     1.4596650
  H        0.3655990    -1.6940980     0.2090450
  H       -1.4956300     0.5168070     1.2806640
  H       -1.9758410     1.2324740    -0.2546010
  H        2.8643550    -1.4881460     0.3640660
  H        2.7338870     0.2452880     0.0032600
  H        2.2845280    -0.9484100    -1.2186000
  H       -1.8677700    -1.6459920     0.3360700
  H       -2.2749210    -1.0002390    -1.1082240
  H        0.5361330     1.8319630     0.8766110
units angstrom
no_reorient  #important for SAPT in psi4, default
symmetry c1  #important for SAPT in psi4, default
}

set PROPERTIES_ORIGIN ["COM"]
properties('MP2/aug-cc-pvtz', properties = ['dipole'])
--------------------------------------------------------------------------

    Molecular point group: c1
  Charge       = 0
  Multiplicity = 1
  Basis Set: AUG-CC-PVTZ
    Blend: AUG-CC-PVTZ
  Basis Set: (AUG-CC-PVTZ AUX)
    Blend: AUG-CC-PVTZ-JKFIT

    Orbital Energies [Eh]
    ---------------------

    Doubly Occupied:

       1A    -20.560403     2A    -15.547591     3A    -11.282109
       4A    -11.249112     5A    -11.223808     6A    -11.214201
       7A     -1.356585     8A     -1.181736     9A     -1.044642
      10A     -0.954452    11A     -0.857949    12A     -0.811087
      13A     -0.675441    14A     -0.656400    15A     -0.651583
      16A     -0.620371    17A     -0.585735    18A     -0.553068
      19A     -0.546105    20A     -0.521522    21A     -0.512112
      22A     -0.504717    23A     -0.483466    24A     -0.423277
      25A     -0.379842

  @DF-RHF Final Energy:  -287.26580019920516

   => Energetics <=

    Nuclear Repulsion Energy =            257.7730868268182007
    One-Electron Energy =                -901.2831446818610175
    Two-Electron Energy =                 356.2442576558376004
    Total Energy =                       -287.2658001992051595
  Basis Set: (AUG-CC-PVTZ AUX)
    Blend: AUG-CC-PVTZ-RI
    Molecular point group: c1

    Geometry (in Angstrom), charge = 0, multiplicity = 1:

       Center              X                  Y                   Z               Mass
    ------------   -----------------  -----------------  -----------------  -----------------
         O            0.565567783541     1.645401890945    -0.090319651767    15.994914619570
         N           -2.260598216459    -0.845306109055    -0.111207651767    14.003074004430
         C           -0.006683216459     0.345146890945    -0.288244651767    12.000000000000
         C            0.890942183541    -0.853434909055     0.464008748233    12.000000000000
         C           -1.464073216459     0.344152890945     0.185650348233    12.000000000000
         C            2.281783783541    -0.749302109055    -0.153465651767    12.000000000000
         H            0.009523783541     0.206460890945    -1.377443651767     1.007825032230
         H            0.840852783541    -0.565541109055     1.452872348233     1.007825032230
         H            0.382020783541    -1.714450109055     0.202252348233     1.007825032230
         H           -1.479208216459     0.496454890945     1.273871348233     1.007825032230
         H           -1.959419216459     1.212121890945    -0.261393651767     1.007825032230
         H            2.880776783541    -1.508498109055     0.357273348233     1.007825032230
         H            2.750308783541     0.224935890945    -0.003532651767     1.007825032230
         H            2.300949783541    -0.968762109055    -1.225392651767     1.007825032230
         H           -1.851348216459    -1.666344109055     0.329277348233     1.007825032230
         H           -2.258499216459    -1.020591109055    -1.115016651767     1.007825032230
         H            0.552554783541     1.811610890945     0.869818348233     1.007825032230

  Basis Set: AUG-CC-PVTZ
    Blend: AUG-CC-PVTZ
  Basis Set: (AUG-CC-PVTZ AUX)
    Blend: AUG-CC-PVTZ-JKFIT
	 Reference Energy          =    -287.2658001992051595 [Eh]
	 Singles Energy            =      -0.0000000000000000 [Eh]
	 Same-Spin Energy          =      -0.2928057303876457 [Eh]
	 Opposite-Spin Energy      =      -1.0028818198045679 [Eh]
	 Correlation Energy        =      -1.2956875501922136 [Eh]
	 Total Energy              =    -288.5614877493973722 [Eh]

	 ================> DF-SCS-MP2 Energies <==================
	-----------------------------------------------------------
	 SCS Same-Spin Scale       =       0.3333333333333333 [-]
	 SCS Opposite-Spin Scale   =       1.2000000000000000 [-]
	 SCS Same-Spin Energy      =      -0.0976019101292152 [Eh]
	 SCS Opposite-Spin Energy  =      -1.2034581837654814 [Eh]
	 SCS Correlation Energy    =      -1.3010600938946966 [Eh]
	 SCS Total Energy          =    -288.5668602930998645 [Eh]
	-----------------------------------------------------------

  Dipole Moment: [D]
     X:     0.6904      Y:    -1.2157      Z:     0.6269     Total:     1.5322

*** Psi4 exiting successfully. Buy a developer a beer!
