                               Psi4 1.4a3.dev225

  ==> Input File <==

--------------------------------------------------------------------------
#psi4
#
memory 32 gb

molecule  {
0 1
  O        0.5491460     1.6657540    -0.0835270
  N       -2.2770200    -0.8249540    -0.1044150
  C       -0.0231050     0.3654990    -0.2814520
  C        0.8312550    -0.7148260     0.3726500
  C       -1.4804950     0.3645050     0.1924430
  C        2.2653620    -0.7289500    -0.1466730
  H       -0.0068980     0.2268130    -1.3706510
  H        0.8247411    -0.5528984     1.4102639
  H        0.3655990    -1.6940980     0.2090450
  H       -1.4956300     0.5168070     1.2806640
  H       -1.9758410     1.2324740    -0.2546010
  H        2.8643550    -1.4881460     0.3640660
  H        2.7338870     0.2452880     0.0032600
  H        2.2845280    -0.9484100    -1.2186000
  H       -1.8677700    -1.6459920     0.3360700
  H       -2.2749210    -1.0002390    -1.1082240
  H        0.5361330     1.8319630     0.8766110
units angstrom
no_reorient  #important for SAPT in psi4, default
symmetry c1  #important for SAPT in psi4, default
}

set PROPERTIES_ORIGIN ["COM"]
properties('MP2/aug-cc-pvtz', properties = ['dipole'])
--------------------------------------------------------------------------

    Molecular point group: c1
  Charge       = 0
  Multiplicity = 1
  Basis Set: AUG-CC-PVTZ
    Blend: AUG-CC-PVTZ
  Basis Set: (AUG-CC-PVTZ AUX)
    Blend: AUG-CC-PVTZ-JKFIT

    Orbital Energies [Eh]
    ---------------------

    Doubly Occupied:

       1A    -20.559040     2A    -15.547699     3A    -11.277575
       4A    -11.250718     5A    -11.221123     6A    -11.213693
       7A     -1.358597     8A     -1.182855     9A     -1.056259
      10A     -0.957939    11A     -0.863888    12A     -0.808271
      13A     -0.676549    14A     -0.658643    15A     -0.645993
      16A     -0.632689    17A     -0.582286    18A     -0.555587
      19A     -0.543401    20A     -0.521225    21A     -0.502029
      22A     -0.491991    23A     -0.480936    24A     -0.453266
      25A     -0.387535

  @DF-RHF Final Energy:  -287.28561732522456

   => Energetics <=

    Nuclear Repulsion Energy =            259.9469073994224573
    One-Electron Energy =                -905.6054798438883608
    Two-Electron Energy =                 358.3729551192413396
    Total Energy =                       -287.2856173252245640
  Basis Set: (AUG-CC-PVTZ AUX)
    Blend: AUG-CC-PVTZ-RI
    Molecular point group: c1

    Geometry (in Angstrom), charge = 0, multiplicity = 1:

       Center              X                  Y                   Z               Mass
    ------------   -----------------  -----------------  -----------------  -----------------
         O            0.571392307595     1.629559417996    -0.076539359195    15.994914619570
         N           -2.254773692405    -0.861148582004    -0.097427359195    14.003074004430
         C           -0.000858692405     0.329304417996    -0.274464359195    12.000000000000
         C            0.853501307595    -0.751020582004     0.379637640805    12.000000000000
         C           -1.458248692405     0.328310417996     0.199430640805    12.000000000000
         C            2.287608307595    -0.765144582004    -0.139685359195    12.000000000000
         H            0.015348307595     0.190618417996    -1.363663359195     1.007825032230
         H            0.846987407595    -0.589092982004     1.417251540805     1.007825032230
         H            0.387845307595    -1.730292582004     0.216032640805     1.007825032230
         H           -1.473383692405     0.480612417996     1.287651640805     1.007825032230
         H           -1.953594692405     1.196279417996    -0.247613359195     1.007825032230
         H            2.886601307595    -1.524340582004     0.371053640805     1.007825032230
         H            2.756133307595     0.209093417996     0.010247640805     1.007825032230
         H            2.306774307595    -0.984604582004    -1.211612359195     1.007825032230
         H           -1.845523692405    -1.682186582004     0.343057640805     1.007825032230
         H           -2.252674692405    -1.036433582004    -1.101236359195     1.007825032230
         H            0.558379307595     1.795768417996     0.883598640805     1.007825032230

  Basis Set: AUG-CC-PVTZ
    Blend: AUG-CC-PVTZ
  Basis Set: (AUG-CC-PVTZ AUX)
    Blend: AUG-CC-PVTZ-JKFIT
	 Reference Energy          =    -287.2856173252245640 [Eh]
	 Singles Energy            =      -0.0000000000000000 [Eh]
	 Same-Spin Energy          =      -0.2927676400561297 [Eh]
	 Opposite-Spin Energy      =      -1.0015517335949862 [Eh]
	 Correlation Energy        =      -1.2943193736511158 [Eh]
	 Total Energy              =    -288.5799366988756560 [Eh]

	 ================> DF-SCS-MP2 Energies <==================
	-----------------------------------------------------------
	 SCS Same-Spin Scale       =       0.3333333333333333 [-]
	 SCS Opposite-Spin Scale   =       1.2000000000000000 [-]
	 SCS Same-Spin Energy      =      -0.0975892133520432 [Eh]
	 SCS Opposite-Spin Energy  =      -1.2018620803139834 [Eh]
	 SCS Correlation Energy    =      -1.2994512936660267 [Eh]
	 SCS Total Energy          =    -288.5850686188906025 [Eh]
	-----------------------------------------------------------

  Dipole Moment: [D]
     X:     0.7132      Y:    -1.2968      Z:     0.6634     Total:     1.6219

*** Psi4 exiting successfully. Buy a developer a beer!
