                               Psi4 1.4a3.dev225

  ==> Input File <==

--------------------------------------------------------------------------
#psi4
#
memory 32 gb

molecule  {
0 1
  O        0.5491460     1.6657540    -0.0835270
  N       -2.3101093    -0.7954064    -0.1296364
  C       -0.0231050     0.3654990    -0.2814520
  C        0.8312550    -0.7148260     0.3726500
  C       -1.4804950     0.3645050     0.1924430
  C        2.2653620    -0.7289500    -0.1466730
  H       -0.0068980     0.2268130    -1.3706510
  H        0.8244310    -0.5451890     1.4596650
  H        0.3655990    -1.6940980     0.2090450
  H       -1.4956300     0.5168070     1.2806640
  H       -1.9758410     1.2324740    -0.2546010
  H        2.8643550    -1.4881460     0.3640660
  H        2.7338870     0.2452880     0.0032600
  H        2.2845280    -0.9484100    -1.2186000
  H       -1.8677700    -1.6459920     0.3360700
  H       -2.2749210    -1.0002390    -1.1082240
  H        0.5361330     1.8319630     0.8766110
units angstrom
no_reorient  #important for SAPT in psi4, default
symmetry c1  #important for SAPT in psi4, default
}

set PROPERTIES_ORIGIN ["COM"]
properties('MP2/aug-cc-pvtz', properties = ['dipole'])
--------------------------------------------------------------------------

    Molecular point group: c1
  Charge       = 0
  Multiplicity = 1
  Basis Set: AUG-CC-PVTZ
    Blend: AUG-CC-PVTZ
  Basis Set: (AUG-CC-PVTZ AUX)
    Blend: AUG-CC-PVTZ-JKFIT

    Orbital Energies [Eh]
    ---------------------

    Doubly Occupied:

       1A    -20.559709     2A    -15.552207     3A    -11.279128
       4A    -11.250597     5A    -11.228262     6A    -11.214757
       7A     -1.359192     8A     -1.181579     9A     -1.054876
      10A     -0.957816    11A     -0.862485    12A     -0.806005
      13A     -0.670577    14A     -0.659953    15A     -0.645111
      16A     -0.630859    17A     -0.581355    18A     -0.551490
      19A     -0.543887    20A     -0.522413    21A     -0.500607
      22A     -0.488878    23A     -0.480769    24A     -0.454512
      25A     -0.390612

  @DF-RHF Final Energy:  -287.28289020118905

   => Energetics <=

    Nuclear Repulsion Energy =            259.4037105579853346
    One-Electron Energy =                -904.5179266072879045
    Two-Electron Energy =                 357.8313258481134653
    Total Energy =                       -287.2828902011890477
  Basis Set: (AUG-CC-PVTZ AUX)
    Blend: AUG-CC-PVTZ-RI
    Molecular point group: c1

    Geometry (in Angstrom), charge = 0, multiplicity = 1:

       Center              X                  Y                   Z               Mass
    ------------   -----------------  -----------------  -----------------  -----------------
         O            0.576597104306     1.624827629426    -0.073133705569    15.994914619570
         N           -2.282658195694    -0.836332770574    -0.119243105569    14.003074004430
         C            0.004346104306     0.324572629426    -0.271058705569    12.000000000000
         C            0.858706104306    -0.755752370574     0.383043294431    12.000000000000
         C           -1.453043895694     0.323578629426     0.202836294431    12.000000000000
         C            2.292813104306    -0.769876370574    -0.136279705569    12.000000000000
         H            0.020553104306     0.185886629426    -1.360257705569     1.007825032230
         H            0.851882104306    -0.586115370574     1.470058294431     1.007825032230
         H            0.393050104306    -1.735024370574     0.219438294431     1.007825032230
         H           -1.468178895694     0.475880629426     1.291057294431     1.007825032230
         H           -1.948389895694     1.191547629426    -0.244207705569     1.007825032230
         H            2.891806104306    -1.529072370574     0.374459294431     1.007825032230
         H            2.761338104306     0.204361629426     0.013653294431     1.007825032230
         H            2.311979104306    -0.989336370574    -1.208206705569     1.007825032230
         H           -1.840318895694    -1.686918370574     0.346463294431     1.007825032230
         H           -2.247469895694    -1.041165370574    -1.097830705569     1.007825032230
         H            0.563584104306     1.791036629426     0.887004294431     1.007825032230

  Basis Set: AUG-CC-PVTZ
    Blend: AUG-CC-PVTZ
  Basis Set: (AUG-CC-PVTZ AUX)
    Blend: AUG-CC-PVTZ-JKFIT
	 Reference Energy          =    -287.2828902011890477 [Eh]
	 Singles Energy            =      -0.0000000000000000 [Eh]
	 Same-Spin Energy          =      -0.2929455315518230 [Eh]
	 Opposite-Spin Energy      =      -1.0025289779588422 [Eh]
	 Correlation Energy        =      -1.2954745095106652 [Eh]
	 Total Energy              =    -288.5783647106997023 [Eh]

	 ================> DF-SCS-MP2 Energies <==================
	-----------------------------------------------------------
	 SCS Same-Spin Scale       =       0.3333333333333333 [-]
	 SCS Opposite-Spin Scale   =       1.2000000000000000 [-]
	 SCS Same-Spin Energy      =      -0.0976485105172743 [Eh]
	 SCS Opposite-Spin Energy  =      -1.2030347735506106 [Eh]
	 SCS Correlation Energy    =      -1.3006832840678850 [Eh]
	 SCS Total Energy          =    -288.5835734852569203 [Eh]
	-----------------------------------------------------------

  Dipole Moment: [D]
     X:     0.8014      Y:    -1.3220      Z:     0.6488     Total:     1.6766

*** Psi4 exiting successfully. Buy a developer a beer!
