                               Psi4 1.4a3.dev225

  ==> Input File <==

--------------------------------------------------------------------------
#psi4
#
memory 32 gb

molecule  {
0 1
  O        0.5491460     1.6657540    -0.0835270
  N       -2.2770200    -0.8249540    -0.1044150
  C       -0.0231050     0.3654990    -0.2814520
  C        0.8312550    -0.7148260     0.3726500
  C       -1.4804950     0.3645050     0.1924430
  C        2.4534039    -0.7308020    -0.2147673
  H       -0.0068980     0.2268130    -1.3706510
  H        0.8244310    -0.5451890     1.4596650
  H        0.3655990    -1.6940980     0.2090450
  H       -1.4956300     0.5168070     1.2806640
  H       -1.9758410     1.2324740    -0.2546010
  H        2.8643550    -1.4881460     0.3640660
  H        2.7338870     0.2452880     0.0032600
  H        2.2845280    -0.9484100    -1.2186000
  H       -1.8677700    -1.6459920     0.3360700
  H       -2.2749210    -1.0002390    -1.1082240
  H        0.5361330     1.8319630     0.8766110
units angstrom
no_reorient  #important for SAPT in psi4, default
symmetry c1  #important for SAPT in psi4, default
}

set PROPERTIES_ORIGIN ["COM"]
properties('MP2/aug-cc-pvtz', properties = ['dipole'])
--------------------------------------------------------------------------

    Molecular point group: c1
  Charge       = 0
  Multiplicity = 1
  Basis Set: AUG-CC-PVTZ
    Blend: AUG-CC-PVTZ
  Basis Set: (AUG-CC-PVTZ AUX)
    Blend: AUG-CC-PVTZ-JKFIT

    Orbital Energies [Eh]
    ---------------------

    Doubly Occupied:

       1A    -20.558580     2A    -15.547269     3A    -11.278014
       4A    -11.250433     5A    -11.233466     6A    -11.213240
       7A     -1.357806     8A     -1.182331     9A     -1.033797
      10A     -0.955996    11A     -0.873234    12A     -0.804407
      13A     -0.674091    14A     -0.655927    15A     -0.640832
      16A     -0.630648    17A     -0.590144    18A     -0.571555
      19A     -0.543140    20A     -0.531620    21A     -0.507330
      22A     -0.488361    23A     -0.456601    24A     -0.438879
      25A     -0.384640

  @DF-RHF Final Energy:  -287.25965363425740

   => Energetics <=

    Nuclear Repulsion Energy =            257.0780373456316283
    One-Electron Energy =                -899.8707048633316390
    Two-Electron Energy =                 355.5330138834426066
    Total Energy =                       -287.2596536342574041
  Basis Set: (AUG-CC-PVTZ AUX)
    Blend: AUG-CC-PVTZ-RI
    Molecular point group: c1

    Geometry (in Angstrom), charge = 0, multiplicity = 1:

       Center              X                  Y                   Z               Mass
    ------------   -----------------  -----------------  -----------------  -----------------
         O            0.546065776982     1.629721672311    -0.067925653212    15.994914619570
         N           -2.280100223018    -0.860986327689    -0.088813653212    14.003074004430
         C           -0.026185223018     0.329466672311    -0.265850653212    12.000000000000
         C            0.828174776982    -0.750858327689     0.388251346788    12.000000000000
         C           -1.483575223018     0.328472672311     0.208044346788    12.000000000000
         C            2.450323676982    -0.766834327689    -0.199165953212    12.000000000000
         H           -0.009978223018     0.190780672311    -1.355049653212     1.007825032230
         H            0.821350776982    -0.581221327689     1.475266346788     1.007825032230
         H            0.362518776982    -1.730130327689     0.224646346788     1.007825032230
         H           -1.498710223018     0.480774672311     1.296265346788     1.007825032230
         H           -1.978921223018     1.196441672311    -0.238999653212     1.007825032230
         H            2.861274776982    -1.524178327689     0.379667346788     1.007825032230
         H            2.730806776982     0.209255672311     0.018861346788     1.007825032230
         H            2.281447776982    -0.984442327689    -1.202998653212     1.007825032230
         H           -1.870850223018    -1.682024327689     0.351671346788     1.007825032230
         H           -2.278001223018    -1.036271327689    -1.092622653212     1.007825032230
         H            0.533052776982     1.795930672311     0.892212346788     1.007825032230

  Basis Set: AUG-CC-PVTZ
    Blend: AUG-CC-PVTZ
  Basis Set: (AUG-CC-PVTZ AUX)
    Blend: AUG-CC-PVTZ-JKFIT
	 Reference Energy          =    -287.2596536342574041 [Eh]
	 Singles Energy            =      -0.0000000000000000 [Eh]
	 Same-Spin Energy          =      -0.2927980161126273 [Eh]
	 Opposite-Spin Energy      =      -1.0031611864122785 [Eh]
	 Correlation Energy        =      -1.2959592025249058 [Eh]
	 Total Energy              =    -288.5556128367823021 [Eh]

	 ================> DF-SCS-MP2 Energies <==================
	-----------------------------------------------------------
	 SCS Same-Spin Scale       =       0.3333333333333333 [-]
	 SCS Opposite-Spin Scale   =       1.2000000000000000 [-]
	 SCS Same-Spin Energy      =      -0.0975993387042091 [Eh]
	 SCS Opposite-Spin Energy  =      -1.2037934236947341 [Eh]
	 SCS Correlation Energy    =      -1.3013927623989432 [Eh]
	 SCS Total Energy          =    -288.5610463966563657 [Eh]
	-----------------------------------------------------------

  Dipole Moment: [D]
     X:     0.6806      Y:    -1.3085      Z:     0.6290     Total:     1.6035

*** Psi4 exiting successfully. Buy a developer a beer!
