                               Psi4 1.4a3.dev225

  ==> Input File <==

--------------------------------------------------------------------------
#psi4
#
memory 32 gb

molecule  {
0 1
  O        0.5491460     1.6657540    -0.0835270
  N       -2.2770200    -0.8249540    -0.1044150
  C       -0.0231050     0.3654990    -0.2814520
  C        0.9433201    -0.8565306     0.4584476
  C       -1.4804950     0.3645050     0.1924430
  C        2.2653620    -0.7289500    -0.1466730
  H       -0.0068980     0.2268130    -1.3706510
  H        0.8244310    -0.5451890     1.4596650
  H        0.3655990    -1.6940980     0.2090450
  H       -1.4956300     0.5168070     1.2806640
  H       -1.9758410     1.2324740    -0.2546010
  H        2.8643550    -1.4881460     0.3640660
  H        2.7338870     0.2452880     0.0032600
  H        2.2845280    -0.9484100    -1.2186000
  H       -1.8677700    -1.6459920     0.3360700
  H       -2.2749210    -1.0002390    -1.1082240
  H        0.5361330     1.8319630     0.8766110
units angstrom
no_reorient  #important for SAPT in psi4, default
symmetry c1  #important for SAPT in psi4, default
}

set PROPERTIES_ORIGIN ["COM"]
properties('MP2/aug-cc-pvtz', properties = ['dipole'])
--------------------------------------------------------------------------

    Molecular point group: c1
  Charge       = 0
  Multiplicity = 1
  Basis Set: AUG-CC-PVTZ
    Blend: AUG-CC-PVTZ
  Basis Set: (AUG-CC-PVTZ AUX)
    Blend: AUG-CC-PVTZ-JKFIT

    Orbital Energies [Eh]
    ---------------------

    Doubly Occupied:

       1A    -20.559946     2A    -15.547869     3A    -11.282243
       4A    -11.250162     5A    -11.226762     6A    -11.211965
       7A     -1.355670     8A     -1.181720     9A     -1.052413
      10A     -0.956287    11A     -0.854215    12A     -0.808819
      13A     -0.675393    14A     -0.655375    15A     -0.647811
      16A     -0.620155    17A     -0.587118    18A     -0.556720
      19A     -0.554678    20A     -0.523985    21A     -0.514305
      22A     -0.504165    23A     -0.483579    24A     -0.412179
      25A     -0.375222

  @DF-RHF Final Energy:  -287.25687291564367

   => Energetics <=

    Nuclear Repulsion Energy =            257.4790263190043333
    One-Electron Energy =                -900.6742905277692444
    Two-Electron Energy =                 355.9383912931212421
    Total Energy =                       -287.2568729156436689
  Basis Set: (AUG-CC-PVTZ AUX)
    Blend: AUG-CC-PVTZ-RI
    Molecular point group: c1

    Geometry (in Angstrom), charge = 0, multiplicity = 1:

       Center              X                  Y                   Z               Mass
    ------------   -----------------  -----------------  -----------------  -----------------
         O            0.556300173116     1.648560408725    -0.088655542685    15.994914619570
         N           -2.269865826884    -0.842147591275    -0.109543542685    14.003074004430
         C           -0.015950826884     0.348305408725    -0.286580542685    12.000000000000
         C            0.950474273116    -0.873724191275     0.453319057315    12.000000000000
         C           -1.473340826884     0.347311408725     0.187314457315    12.000000000000
         C            2.272516173116    -0.746143591275    -0.151801542685    12.000000000000
         H            0.000256173116     0.209619408725    -1.375779542685     1.007825032230
         H            0.831585173116    -0.562382591275     1.454536457315     1.007825032230
         H            0.372753173116    -1.711291591275     0.203916457315     1.007825032230
         H           -1.488475826884     0.499613408725     1.275535457315     1.007825032230
         H           -1.968686826884     1.215280408725    -0.259729542685     1.007825032230
         H            2.871509173116    -1.505339591275     0.358937457315     1.007825032230
         H            2.741041173116     0.228094408725    -0.001868542685     1.007825032230
         H            2.291682173116    -0.965603591275    -1.223728542685     1.007825032230
         H           -1.860615826884    -1.663185591275     0.330941457315     1.007825032230
         H           -2.267766826884    -1.017432591275    -1.113352542685     1.007825032230
         H            0.543287173116     1.814769408725     0.871482457315     1.007825032230

  Basis Set: AUG-CC-PVTZ
    Blend: AUG-CC-PVTZ
  Basis Set: (AUG-CC-PVTZ AUX)
    Blend: AUG-CC-PVTZ-JKFIT
	 Reference Energy          =    -287.2568729156436689 [Eh]
	 Singles Energy            =      -0.0000000000000000 [Eh]
	 Same-Spin Energy          =      -0.2935642294733197 [Eh]
	 Opposite-Spin Energy      =      -1.0040443551072222 [Eh]
	 Correlation Energy        =      -1.2976085845805421 [Eh]
	 Total Energy              =    -288.5544815002241990 [Eh]

	 ================> DF-SCS-MP2 Energies <==================
	-----------------------------------------------------------
	 SCS Same-Spin Scale       =       0.3333333333333333 [-]
	 SCS Opposite-Spin Scale   =       1.2000000000000000 [-]
	 SCS Same-Spin Energy      =      -0.0978547431577732 [Eh]
	 SCS Opposite-Spin Energy  =      -1.2048532261286666 [Eh]
	 SCS Correlation Energy    =      -1.3027079692864398 [Eh]
	 SCS Total Energy          =    -288.5595808849300852 [Eh]
	-----------------------------------------------------------

  Dipole Moment: [D]
     X:     0.6888      Y:    -1.1934      Z:     0.6032     Total:     1.5041

*** Psi4 exiting successfully. Buy a developer a beer!
