                               Psi4 1.4a3.dev225

  ==> Input File <==

--------------------------------------------------------------------------
#psi4
#
memory 32 gb

molecule  {
0 1
  O        0.5491460     1.6657540    -0.0835270
  N       -2.2770200    -0.8249540    -0.1044150
  C       -0.0231050     0.3654990    -0.2814520
  C        0.8312550    -0.7148260     0.3726500
  C       -1.4804950     0.3645050     0.1924430
  C        2.2653620    -0.7289500    -0.1466730
  H       -0.0068980     0.2268130    -1.3706510
  H        0.8250513    -0.5606078     1.3608628
  H        0.3655990    -1.6940980     0.2090450
  H       -1.4956300     0.5168070     1.2806640
  H       -1.9758410     1.2324740    -0.2546010
  H        2.8643550    -1.4881460     0.3640660
  H        2.7338870     0.2452880     0.0032600
  H        2.2845280    -0.9484100    -1.2186000
  H       -1.8677700    -1.6459920     0.3360700
  H       -2.2749210    -1.0002390    -1.1082240
  H        0.5361330     1.8319630     0.8766110
units angstrom
no_reorient  #important for SAPT in psi4, default
symmetry c1  #important for SAPT in psi4, default
}

set PROPERTIES_ORIGIN ["COM"]
properties('MP2/aug-cc-pvtz', properties = ['dipole'])
--------------------------------------------------------------------------

    Molecular point group: c1
  Charge       = 0
  Multiplicity = 1
  Basis Set: AUG-CC-PVTZ
    Blend: AUG-CC-PVTZ
  Basis Set: (AUG-CC-PVTZ AUX)
    Blend: AUG-CC-PVTZ-JKFIT

    Orbital Energies [Eh]
    ---------------------

    Doubly Occupied:

       1A    -20.559076     2A    -15.547638     3A    -11.277053
       4A    -11.250724     5A    -11.214585     6A    -11.213098
       7A     -1.358624     8A     -1.182830     9A     -1.058842
      10A     -0.957802    11A     -0.865432    12A     -0.811665
      13A     -0.676797    14A     -0.659505    15A     -0.647741
      16A     -0.633044    17A     -0.583680    18A     -0.555462
      19A     -0.543325    20A     -0.521578    21A     -0.502333
      22A     -0.494865    23A     -0.480699    24A     -0.453153
      25A     -0.387422

  @DF-RHF Final Energy:  -287.28079410660024

   => Energetics <=

    Nuclear Repulsion Energy =            260.1966311225505137
    One-Electron Energy =                -906.0809053390787540
    Two-Electron Energy =                 358.6034801099279434
    Total Energy =                       -287.2807941066002400
  Basis Set: (AUG-CC-PVTZ AUX)
    Blend: AUG-CC-PVTZ-RI
    Molecular point group: c1

    Geometry (in Angstrom), charge = 0, multiplicity = 1:

       Center              X                  Y                   Z               Mass
    ------------   -----------------  -----------------  -----------------  -----------------
         O            0.571388798243     1.629646635911    -0.075980475114    15.994914619570
         N           -2.254777201757    -0.861061364089    -0.096868475114    14.003074004430
         C           -0.000862201757     0.329391635911    -0.273905475114    12.000000000000
         C            0.853497798243    -0.750933364089     0.380196524886    12.000000000000
         C           -1.458252201757     0.328397635911     0.199989524886    12.000000000000
         C            2.287604798243    -0.765057364089    -0.139126475114    12.000000000000
         H            0.015344798243     0.190705635911    -1.363104475114     1.007825032230
         H            0.847294098243    -0.596715164089     1.368409324886     1.007825032230
         H            0.387841798243    -1.730205364089     0.216591524886     1.007825032230
         H           -1.473387201757     0.480699635911     1.288210524886     1.007825032230
         H           -1.953598201757     1.196366635911    -0.247054475114     1.007825032230
         H            2.886597798243    -1.524253364089     0.371612524886     1.007825032230
         H            2.756129798243     0.209180635911     0.010806524886     1.007825032230
         H            2.306770798243    -0.984517364089    -1.211053475114     1.007825032230
         H           -1.845527201757    -1.682099364089     0.343616524886     1.007825032230
         H           -2.252678201757    -1.036346364089    -1.100677475114     1.007825032230
         H            0.558375798243     1.795855635911     0.884157524886     1.007825032230

  Basis Set: AUG-CC-PVTZ
    Blend: AUG-CC-PVTZ
  Basis Set: (AUG-CC-PVTZ AUX)
    Blend: AUG-CC-PVTZ-JKFIT
	 Reference Energy          =    -287.2807941066002400 [Eh]
	 Singles Energy            =      -0.0000000000000000 [Eh]
	 Same-Spin Energy          =      -0.2927696321887523 [Eh]
	 Opposite-Spin Energy      =      -1.0013623847333659 [Eh]
	 Correlation Energy        =      -1.2941320169221182 [Eh]
	 Total Energy              =    -288.5749261235223457 [Eh]

	 ================> DF-SCS-MP2 Energies <==================
	-----------------------------------------------------------
	 SCS Same-Spin Scale       =       0.3333333333333333 [-]
	 SCS Opposite-Spin Scale   =       1.2000000000000000 [-]
	 SCS Same-Spin Energy      =      -0.0975898773962508 [Eh]
	 SCS Opposite-Spin Energy  =      -1.2016348616800390 [Eh]
	 SCS Correlation Energy    =      -1.2992247390762897 [Eh]
	 SCS Total Energy          =    -288.5800188456765341 [Eh]
	-----------------------------------------------------------

  Dipole Moment: [D]
     X:     0.7068      Y:    -1.2931      Z:     0.6947     Total:     1.6292

*** Psi4 exiting successfully. Buy a developer a beer!
