                               Psi4 1.4a3.dev225

  ==> Input File <==

--------------------------------------------------------------------------
#psi4
#
memory 32 gb

molecule  {
0 1
  O        0.5491460     1.6657540    -0.0835270
  N       -2.2770200    -0.8249540    -0.1044150
  C       -0.0231050     0.3654990    -0.2814520
  C        0.8592713    -0.7502521     0.3940994
  C       -1.4804950     0.3645050     0.1924430
  C        2.2653620    -0.7289500    -0.1466730
  H       -0.0068980     0.2268130    -1.3706510
  H        0.8244310    -0.5451890     1.4596650
  H        0.3655990    -1.6940980     0.2090450
  H       -1.4956300     0.5168070     1.2806640
  H       -1.9758410     1.2324740    -0.2546010
  H        2.8643550    -1.4881460     0.3640660
  H        2.7338870     0.2452880     0.0032600
  H        2.2845280    -0.9484100    -1.2186000
  H       -1.8677700    -1.6459920     0.3360700
  H       -2.2749210    -1.0002390    -1.1082240
  H        0.5361330     1.8319630     0.8766110
units angstrom
no_reorient  #important for SAPT in psi4, default
symmetry c1  #important for SAPT in psi4, default
}

set PROPERTIES_ORIGIN ["COM"]
properties('MP2/aug-cc-pvtz', properties = ['dipole'])
--------------------------------------------------------------------------

    Molecular point group: c1
  Charge       = 0
  Multiplicity = 1
  Basis Set: AUG-CC-PVTZ
    Blend: AUG-CC-PVTZ
  Basis Set: (AUG-CC-PVTZ AUX)
    Blend: AUG-CC-PVTZ-JKFIT

    Orbital Energies [Eh]
    ---------------------

    Doubly Occupied:

       1A    -20.559159     2A    -15.547820     3A    -11.279681
       4A    -11.250559     5A    -11.226381     6A    -11.213291
       7A     -1.357624     8A     -1.182558     9A     -1.052417
      10A     -0.957818    11A     -0.860009    12A     -0.806371
      13A     -0.676106    14A     -0.657233    15A     -0.644607
      16A     -0.628597    17A     -0.582857    18A     -0.555616
      19A     -0.544863    20A     -0.520117    21A     -0.507376
      22A     -0.493503    23A     -0.482819    24A     -0.442605
      25A     -0.386494

  @DF-RHF Final Energy:  -287.28452666396890

   => Energetics <=

    Nuclear Repulsion Energy =            259.1360365262546566
    One-Electron Energy =                -904.0081651304467414
    Two-Electron Energy =                 357.5876019402231805
    Total Energy =                       -287.2845266639689044
  Basis Set: (AUG-CC-PVTZ AUX)
    Blend: AUG-CC-PVTZ-RI
    Molecular point group: c1

    Geometry (in Angstrom), charge = 0, multiplicity = 1:

       Center              X                  Y                   Z               Mass
    ------------   -----------------  -----------------  -----------------  -----------------
         O            0.567621901773     1.634244245507    -0.079987568128    15.994914619570
         N           -2.258544098227    -0.856463754493    -0.100875568128    14.003074004430
         C           -0.004629098227     0.333989245507    -0.277912568128    12.000000000000
         C            0.877747201773    -0.781761854493     0.397638831872    12.000000000000
         C           -1.462019098227     0.332995245507     0.195982431872    12.000000000000
         C            2.283837901773    -0.760459754493    -0.143133568128    12.000000000000
         H            0.011577901773     0.195303245507    -1.367111568128     1.007825032230
         H            0.842906901773    -0.576698754493     1.463204431872     1.007825032230
         H            0.384074901773    -1.725607754493     0.212584431872     1.007825032230
         H           -1.477154098227     0.485297245507     1.284203431872     1.007825032230
         H           -1.957365098227     1.200964245507    -0.251061568128     1.007825032230
         H            2.882830901773    -1.519655754493     0.367605431872     1.007825032230
         H            2.752362901773     0.213778245507     0.006799431872     1.007825032230
         H            2.303003901773    -0.979919754493    -1.215060568128     1.007825032230
         H           -1.849294098227    -1.677501754493     0.339609431872     1.007825032230
         H           -2.256445098227    -1.031748754493    -1.104684568128     1.007825032230
         H            0.554608901773     1.800453245507     0.880150431872     1.007825032230

  Basis Set: AUG-CC-PVTZ
    Blend: AUG-CC-PVTZ
  Basis Set: (AUG-CC-PVTZ AUX)
    Blend: AUG-CC-PVTZ-JKFIT
	 Reference Energy          =    -287.2845266639689044 [Eh]
	 Singles Energy            =      -0.0000000000000000 [Eh]
	 Same-Spin Energy          =      -0.2926744927436054 [Eh]
	 Opposite-Spin Energy      =      -1.0018290852873961 [Eh]
	 Correlation Energy        =      -1.2945035780310015 [Eh]
	 Total Energy              =    -288.5790302419999307 [Eh]

	 ================> DF-SCS-MP2 Energies <==================
	-----------------------------------------------------------
	 SCS Same-Spin Scale       =       0.3333333333333333 [-]
	 SCS Opposite-Spin Scale   =       1.2000000000000000 [-]
	 SCS Same-Spin Energy      =      -0.0975581642478685 [Eh]
	 SCS Opposite-Spin Energy  =      -1.2021949023448752 [Eh]
	 SCS Correlation Energy    =      -1.2997530665927437 [Eh]
	 SCS Total Energy          =    -288.5842797305616614 [Eh]
	-----------------------------------------------------------

  Dipole Moment: [D]
     X:     0.7122      Y:    -1.2791      Z:     0.6259     Total:     1.5922

*** Psi4 exiting successfully. Buy a developer a beer!
