                               Psi4 1.4a3.dev225

  ==> Input File <==

--------------------------------------------------------------------------
#psi4
#
memory 32 gb

molecule  {
0 1
  O        0.5491460     1.6657540    -0.0835270
  N       -2.2770200    -0.8249540    -0.1044150
  C        0.0845912     0.4708150    -0.2287077
  C        0.8312550    -0.7148260     0.3726500
  C       -1.4804950     0.3645050     0.1924430
  C        2.2653620    -0.7289500    -0.1466730
  H       -0.0068980     0.2268130    -1.3706510
  H        0.8244310    -0.5451890     1.4596650
  H        0.3655990    -1.6940980     0.2090450
  H       -1.4956300     0.5168070     1.2806640
  H       -1.9758410     1.2324740    -0.2546010
  H        2.8643550    -1.4881460     0.3640660
  H        2.7338870     0.2452880     0.0032600
  H        2.2845280    -0.9484100    -1.2186000
  H       -1.8677700    -1.6459920     0.3360700
  H       -2.2749210    -1.0002390    -1.1082240
  H        0.5361330     1.8319630     0.8766110
units angstrom
no_reorient  #important for SAPT in psi4, default
symmetry c1  #important for SAPT in psi4, default
}

set PROPERTIES_ORIGIN ["COM"]
properties('MP2/aug-cc-pvtz', properties = ['dipole'])
--------------------------------------------------------------------------

    Molecular point group: c1
  Charge       = 0
  Multiplicity = 1
  Basis Set: AUG-CC-PVTZ
    Blend: AUG-CC-PVTZ
  Basis Set: (AUG-CC-PVTZ AUX)
    Blend: AUG-CC-PVTZ-JKFIT

    Orbital Energies [Eh]
    ---------------------

    Doubly Occupied:

       1A    -20.578309     2A    -15.546475     3A    -11.282362
       4A    -11.246251     5A    -11.224871     6A    -11.212801
       7A     -1.429144     8A     -1.175235     9A     -1.051816
      10A     -0.942140    11A     -0.858038    12A     -0.819653
      13A     -0.683894    14A     -0.672090    15A     -0.656679
      16A     -0.649586    17A     -0.586899    18A     -0.561394
      19A     -0.537852    20A     -0.527651    21A     -0.506479
      22A     -0.492125    23A     -0.464686    24A     -0.437397
      25A     -0.364933

  @DF-RHF Final Energy:  -287.26082290607542

   => Energetics <=

    Nuclear Repulsion Energy =            260.4863817357879157
    One-Electron Energy =                -906.4768888508764348
    Two-Electron Energy =                 358.7296842090131577
    Total Energy =                       -287.2608229060754184
  Basis Set: (AUG-CC-PVTZ AUX)
    Blend: AUG-CC-PVTZ-RI
    Molecular point group: c1

    Geometry (in Angstrom), charge = 0, multiplicity = 1:

       Center              X                  Y                   Z               Mass
    ------------   -----------------  -----------------  -----------------  -----------------
         O            0.556888682415     1.615285689683    -0.084203123449    15.994914619570
         N           -2.269277317585    -0.875422310317    -0.105091123449    14.003074004430
         C            0.092333882415     0.420346689683    -0.229383823449    12.000000000000
         C            0.838997682415    -0.765294310317     0.371973876551    12.000000000000
         C           -1.472752317585     0.314036689683     0.191766876551    12.000000000000
         C            2.273104682415    -0.779418310317    -0.147349123449    12.000000000000
         H            0.000844682415     0.176344689683    -1.371327123449     1.007825032230
         H            0.832173682415    -0.595657310317     1.458988876551     1.007825032230
         H            0.373341682415    -1.744566310317     0.208368876551     1.007825032230
         H           -1.487887317585     0.466338689683     1.279987876551     1.007825032230
         H           -1.968098317585     1.182005689683    -0.255277123449     1.007825032230
         H            2.872097682415    -1.538614310317     0.363389876551     1.007825032230
         H            2.741629682415     0.194819689683     0.002583876551     1.007825032230
         H            2.292270682415    -0.998878310317    -1.219276123449     1.007825032230
         H           -1.860027317585    -1.696460310317     0.335393876551     1.007825032230
         H           -2.267178317585    -1.050707310317    -1.108900123449     1.007825032230
         H            0.543875682415     1.781494689683     0.875934876551     1.007825032230

  Basis Set: AUG-CC-PVTZ
    Blend: AUG-CC-PVTZ
  Basis Set: (AUG-CC-PVTZ AUX)
    Blend: AUG-CC-PVTZ-JKFIT
	 Reference Energy          =    -287.2608229060754184 [Eh]
	 Singles Energy            =      -0.0000000000000000 [Eh]
	 Same-Spin Energy          =      -0.2936908166891886 [Eh]
	 Opposite-Spin Energy      =      -1.0018186033707537 [Eh]
	 Correlation Energy        =      -1.2955094200599424 [Eh]
	 Total Energy              =    -288.5563323261353617 [Eh]

	 ================> DF-SCS-MP2 Energies <==================
	-----------------------------------------------------------
	 SCS Same-Spin Scale       =       0.3333333333333333 [-]
	 SCS Opposite-Spin Scale   =       1.2000000000000000 [-]
	 SCS Same-Spin Energy      =      -0.0978969388963962 [Eh]
	 SCS Opposite-Spin Energy  =      -1.2021823240449043 [Eh]
	 SCS Correlation Energy    =      -1.3000792629413005 [Eh]
	 SCS Total Energy          =    -288.5609021690167424 [Eh]
	-----------------------------------------------------------

  Dipole Moment: [D]
     X:     0.9791      Y:    -0.8872      Z:     0.7434     Total:     1.5160

*** Psi4 exiting successfully. Buy a developer a beer!
