                               Psi4 1.4a3.dev225

  ==> Input File <==

--------------------------------------------------------------------------
#psi4
#
memory 32 gb

molecule  {
0 1
  O        0.5491460     1.6657540    -0.0835270
  N       -2.2936885    -0.8103591    -0.1170728
  C       -0.0231050     0.3654990    -0.2814520
  C        0.8312550    -0.7148260     0.3726500
  C       -1.4804950     0.3645050     0.1924430
  C        2.2653620    -0.7289500    -0.1466730
  H       -0.0068980     0.2268130    -1.3706510
  H        0.8244310    -0.5451890     1.4596650
  H        0.3655990    -1.6940980     0.2090450
  H       -1.4956300     0.5168070     1.2806640
  H       -1.9758410     1.2324740    -0.2546010
  H        2.8643550    -1.4881460     0.3640660
  H        2.7338870     0.2452880     0.0032600
  H        2.2845280    -0.9484100    -1.2186000
  H       -1.8677700    -1.6459920     0.3360700
  H       -2.2749210    -1.0002390    -1.1082240
  H        0.5361330     1.8319630     0.8766110
units angstrom
no_reorient  #important for SAPT in psi4, default
symmetry c1  #important for SAPT in psi4, default
}

set PROPERTIES_ORIGIN ["COM"]
properties('MP2/aug-cc-pvtz', properties = ['dipole'])
--------------------------------------------------------------------------

    Molecular point group: c1
  Charge       = 0
  Multiplicity = 1
  Basis Set: AUG-CC-PVTZ
    Blend: AUG-CC-PVTZ
  Basis Set: (AUG-CC-PVTZ AUX)
    Blend: AUG-CC-PVTZ-JKFIT

    Orbital Energies [Eh]
    ---------------------

    Doubly Occupied:

       1A    -20.559362     2A    -15.549953     3A    -11.278638
       4A    -11.250621     5A    -11.227939     6A    -11.214537
       7A     -1.358888     8A     -1.182148     9A     -1.054553
      10A     -0.957914    11A     -0.862578    12A     -0.805574
      13A     -0.673385    14A     -0.659035    15A     -0.644745
      16A     -0.631595    17A     -0.581085    18A     -0.553050
      19A     -0.544277    20A     -0.521742    21A     -0.501409
      22A     -0.488639    23A     -0.481066    24A     -0.453933
      25A     -0.389117

  @DF-RHF Final Energy:  -287.28532810500997

   => Energetics <=

    Nuclear Repulsion Energy =            259.5554636042279526
    One-Electron Energy =                -904.8300207822051107
    Two-Electron Energy =                 357.9892290729671913
    Total Energy =                       -287.2853281050099667
  Basis Set: (AUG-CC-PVTZ AUX)
    Blend: AUG-CC-PVTZ-RI
    Molecular point group: c1

    Geometry (in Angstrom), charge = 0, multiplicity = 1:

       Center              X                  Y                   Z               Mass
    ------------   -----------------  -----------------  -----------------  -----------------
         O            0.574015927972     1.627178035944    -0.075108570799    15.994914619570
         N           -2.268818572028    -0.848935064056    -0.108654370799    14.003074004430
         C            0.001764927972     0.326923035944    -0.273033570799    12.000000000000
         C            0.856124927972    -0.753401964056     0.381068429201    12.000000000000
         C           -1.455625072028     0.325929035944     0.200861429201    12.000000000000
         C            2.290231927972    -0.767525964056    -0.138254570799    12.000000000000
         H            0.017971927972     0.188237035944    -1.362232570799     1.007825032230
         H            0.849300927972    -0.583764964056     1.468083429201     1.007825032230
         H            0.390468927972    -1.732673964056     0.217463429201     1.007825032230
         H           -1.470760072028     0.478231035944     1.289082429201     1.007825032230
         H           -1.950971072028     1.193898035944    -0.246182570799     1.007825032230
         H            2.889224927972    -1.526721964056     0.372484429201     1.007825032230
         H            2.758756927972     0.206712035944     0.011678429201     1.007825032230
         H            2.309397927972    -0.986985964056    -1.210181570799     1.007825032230
         H           -1.842900072028    -1.684567964056     0.344488429201     1.007825032230
         H           -2.250051072028    -1.038814964056    -1.099805570799     1.007825032230
         H            0.561002927972     1.793387035944     0.885029429201     1.007825032230

  Basis Set: AUG-CC-PVTZ
    Blend: AUG-CC-PVTZ
  Basis Set: (AUG-CC-PVTZ AUX)
    Blend: AUG-CC-PVTZ-JKFIT
	 Reference Energy          =    -287.2853281050099667 [Eh]
	 Singles Energy            =      -0.0000000000000000 [Eh]
	 Same-Spin Energy          =      -0.2928515718741348 [Eh]
	 Opposite-Spin Energy      =      -1.0021379824640457 [Eh]
	 Correlation Energy        =      -1.2949895543381804 [Eh]
	 Total Energy              =    -288.5803176593481680 [Eh]

	 ================> DF-SCS-MP2 Energies <==================
	-----------------------------------------------------------
	 SCS Same-Spin Scale       =       0.3333333333333333 [-]
	 SCS Opposite-Spin Scale   =       1.2000000000000000 [-]
	 SCS Same-Spin Energy      =      -0.0976171906247116 [Eh]
	 SCS Opposite-Spin Energy  =      -1.2025655789568548 [Eh]
	 SCS Correlation Energy    =      -1.3001827695815664 [Eh]
	 SCS Total Energy          =    -288.5855108745915345 [Eh]
	-----------------------------------------------------------

  Dipole Moment: [D]
     X:     0.7610      Y:    -1.3123      Z:     0.6384     Total:     1.6459

*** Psi4 exiting successfully. Buy a developer a beer!
