                               Psi4 1.4a3.dev225

  ==> Input File <==

--------------------------------------------------------------------------
#psi4
#
memory 32 gb

molecule  {
0 1
  O        0.5491460     1.6657540    -0.0835270
  N       -2.2770200    -0.8249540    -0.1044150
  C       -0.0231050     0.3654990    -0.2814520
  C        0.8312550    -0.7148260     0.3726500
  C       -1.4804950     0.3645050     0.1924430
  C        2.2653620    -0.7289500    -0.1466730
  H       -0.0068980     0.2268130    -1.3706510
  H        0.8243069    -0.5421052     1.4794254
  H        0.3655990    -1.6940980     0.2090450
  H       -1.4956300     0.5168070     1.2806640
  H       -1.9758410     1.2324740    -0.2546010
  H        2.8643550    -1.4881460     0.3640660
  H        2.7338870     0.2452880     0.0032600
  H        2.2845280    -0.9484100    -1.2186000
  H       -1.8677700    -1.6459920     0.3360700
  H       -2.2749210    -1.0002390    -1.1082240
  H        0.5361330     1.8319630     0.8766110
units angstrom
no_reorient  #important for SAPT in psi4, default
symmetry c1  #important for SAPT in psi4, default
}

set PROPERTIES_ORIGIN ["COM"]
properties('MP2/aug-cc-pvtz', properties = ['dipole'])
--------------------------------------------------------------------------

    Molecular point group: c1
  Charge       = 0
  Multiplicity = 1
  Basis Set: AUG-CC-PVTZ
    Blend: AUG-CC-PVTZ
  Basis Set: (AUG-CC-PVTZ AUX)
    Blend: AUG-CC-PVTZ-JKFIT

    Orbital Energies [Eh]
    ---------------------

    Doubly Occupied:

       1A    -20.559022     2A    -15.547812     3A    -11.278428
       4A    -11.250736     5A    -11.230165     6A    -11.214582
       7A     -1.358601     8A     -1.182927     9A     -1.053586
      10A     -0.958231    11A     -0.862457    12A     -0.804035
      13A     -0.676430    14A     -0.658005    15A     -0.643825
      16A     -0.631891    17A     -0.580342    18A     -0.555828
      19A     -0.543569    20A     -0.520954    21A     -0.502151
      22A     -0.486837    23A     -0.481247    24A     -0.453349
      25A     -0.387736

  @DF-RHF Final Energy:  -287.28605430772285

   => Energetics <=

    Nuclear Repulsion Energy =            259.6209234636522751
    One-Electron Energy =                -904.9684639036078124
    Two-Electron Energy =                 358.0614861322326874
    Total Energy =                       -287.2860543077228499
  Basis Set: (AUG-CC-PVTZ AUX)
    Blend: AUG-CC-PVTZ-RI
    Molecular point group: c1

    Geometry (in Angstrom), charge = 0, multiplicity = 1:

       Center              X                  Y                   Z               Mass
    ------------   -----------------  -----------------  -----------------  -----------------
         O            0.571397219782     1.629437312463    -0.077321796455    15.994914619570
         N           -2.254768780218    -0.861270687537    -0.098209796455    14.003074004430
         C           -0.000853780218     0.329182312463    -0.275246796455    12.000000000000
         C            0.853506219782    -0.751142687537     0.378855203545    12.000000000000
         C           -1.458243780218     0.328188312463     0.198648203545    12.000000000000
         C            2.287613219782    -0.765266687537    -0.140467796455    12.000000000000
         H            0.015353219782     0.190496312463    -1.364445796455     1.007825032230
         H            0.846558119782    -0.578421887537     1.485630603545     1.007825032230
         H            0.387850219782    -1.730414687537     0.215250203545     1.007825032230
         H           -1.473378780218     0.480490312463     1.286869203545     1.007825032230
         H           -1.953589780218     1.196157312463    -0.248395796455     1.007825032230
         H            2.886606219782    -1.524462687537     0.370271203545     1.007825032230
         H            2.756138219782     0.208971312463     0.009465203545     1.007825032230
         H            2.306779219782    -0.984726687537    -1.212394796455     1.007825032230
         H           -1.845518780218    -1.682308687537     0.342275203545     1.007825032230
         H           -2.252669780218    -1.036555687537    -1.102018796455     1.007825032230
         H            0.558384219782     1.795646312463     0.882816203545     1.007825032230

  Basis Set: AUG-CC-PVTZ
    Blend: AUG-CC-PVTZ
  Basis Set: (AUG-CC-PVTZ AUX)
    Blend: AUG-CC-PVTZ-JKFIT
	 Reference Energy          =    -287.2860543077228499 [Eh]
	 Singles Energy            =      -0.0000000000000000 [Eh]
	 Same-Spin Energy          =      -0.2927775616131999 [Eh]
	 Opposite-Spin Energy      =      -1.0019322965765318 [Eh]
	 Correlation Energy        =      -1.2947098581897318 [Eh]
	 Total Energy              =    -288.5807641659125693 [Eh]

	 ================> DF-SCS-MP2 Energies <==================
	-----------------------------------------------------------
	 SCS Same-Spin Scale       =       0.3333333333333333 [-]
	 SCS Opposite-Spin Scale   =       1.2000000000000000 [-]
	 SCS Same-Spin Energy      =      -0.0975925205377333 [Eh]
	 SCS Opposite-Spin Energy  =      -1.2023187558918382 [Eh]
	 SCS Correlation Energy    =      -1.2999112764295715 [Eh]
	 SCS Total Energy          =    -288.5859655841524045 [Eh]
	-----------------------------------------------------------

  Dipole Moment: [D]
     X:     0.7223      Y:    -1.3023      Z:     0.6116     Total:     1.6099

*** Psi4 exiting successfully. Buy a developer a beer!
