                               Psi4 1.4a3.dev225

  ==> Input File <==

--------------------------------------------------------------------------
#psi4
#
memory 32 gb

molecule  {
0 1
  O        0.5491460     1.6657540    -0.0835270
  N       -2.2770200    -0.8249540    -0.1044150
  C       -0.0231050     0.3654990    -0.2814520
  C        0.8522305    -0.7064201     0.3585946
  C       -1.4804950     0.3645050     0.1924430
  C        2.2653620    -0.7289500    -0.1466730
  H       -0.0068980     0.2268130    -1.3706510
  H        0.8244310    -0.5451890     1.4596650
  H        0.3655990    -1.6940980     0.2090450
  H       -1.4956300     0.5168070     1.2806640
  H       -1.9758410     1.2324740    -0.2546010
  H        2.8643550    -1.4881460     0.3640660
  H        2.7338870     0.2452880     0.0032600
  H        2.2845280    -0.9484100    -1.2186000
  H       -1.8677700    -1.6459920     0.3360700
  H       -2.2749210    -1.0002390    -1.1082240
  H        0.5361330     1.8319630     0.8766110
units angstrom
no_reorient  #important for SAPT in psi4, default
symmetry c1  #important for SAPT in psi4, default
}

set PROPERTIES_ORIGIN ["COM"]
properties('MP2/aug-cc-pvtz', properties = ['dipole'])
--------------------------------------------------------------------------

    Molecular point group: c1
  Charge       = 0
  Multiplicity = 1
  Basis Set: AUG-CC-PVTZ
    Blend: AUG-CC-PVTZ
  Basis Set: (AUG-CC-PVTZ AUX)
    Blend: AUG-CC-PVTZ-JKFIT

    Orbital Energies [Eh]
    ---------------------

    Doubly Occupied:

       1A    -20.558567     2A    -15.547895     3A    -11.278254
       4A    -11.251442     5A    -11.228918     6A    -11.213555
       7A     -1.358489     8A     -1.182983     9A     -1.057039
      10A     -0.959848    11A     -0.862725    12A     -0.803341
      13A     -0.676358    14A     -0.657921    15A     -0.643176
      16A     -0.633002    17A     -0.581803    18A     -0.557327
      19A     -0.544211    20A     -0.521326    21A     -0.506545
      22A     -0.483581    23A     -0.480894    24A     -0.451387
      25A     -0.388331

  @DF-RHF Final Energy:  -287.28553880888012

   => Energetics <=

    Nuclear Repulsion Energy =            259.8218024743726460
    One-Electron Energy =                -905.3568410961460131
    Two-Electron Energy =                 358.2494998128931911
    Total Energy =                       -287.2855388088801192
  Basis Set: (AUG-CC-PVTZ AUX)
    Blend: AUG-CC-PVTZ-RI
    Molecular point group: c1

    Geometry (in Angstrom), charge = 0, multiplicity = 1:

       Center              X                  Y                   Z               Mass
    ------------   -----------------  -----------------  -----------------  -----------------
         O            0.568570327296     1.628339889818    -0.075204921479    15.994914619570
         N           -2.257595672704    -0.862368110182    -0.096092921479    14.003074004430
         C           -0.003680672704     0.328084889818    -0.273129921479    12.000000000000
         C            0.871654827296    -0.743834210182     0.366916678521    12.000000000000
         C           -1.461070672704     0.327090889818     0.200765078521    12.000000000000
         C            2.284786327296    -0.766364110182    -0.138350921479    12.000000000000
         H            0.012526327296     0.189398889818    -1.362328921479     1.007825032230
         H            0.843855327296    -0.582603110182     1.467987078521     1.007825032230
         H            0.385023327296    -1.731512110182     0.217367078521     1.007825032230
         H           -1.476205672704     0.479392889818     1.288986078521     1.007825032230
         H           -1.956416672704     1.195059889818    -0.246278921479     1.007825032230
         H            2.883779327296    -1.525560110182     0.372388078521     1.007825032230
         H            2.753311327296     0.207873889818     0.011582078521     1.007825032230
         H            2.303952327296    -0.985824110182    -1.210277921479     1.007825032230
         H           -1.848345672704    -1.683406110182     0.344392078521     1.007825032230
         H           -2.255496672704    -1.037653110182    -1.099901921479     1.007825032230
         H            0.555557327296     1.794548889818     0.884933078521     1.007825032230

  Basis Set: AUG-CC-PVTZ
    Blend: AUG-CC-PVTZ
  Basis Set: (AUG-CC-PVTZ AUX)
    Blend: AUG-CC-PVTZ-JKFIT
	 Reference Energy          =    -287.2855388088801192 [Eh]
	 Singles Energy            =      -0.0000000000000000 [Eh]
	 Same-Spin Energy          =      -0.2929199425358048 [Eh]
	 Opposite-Spin Energy      =      -1.0019574539115950 [Eh]
	 Correlation Energy        =      -1.2948773964473999 [Eh]
	 Total Energy              =    -288.5804162053275377 [Eh]

	 ================> DF-SCS-MP2 Energies <==================
	-----------------------------------------------------------
	 SCS Same-Spin Scale       =       0.3333333333333333 [-]
	 SCS Opposite-Spin Scale   =       1.2000000000000000 [-]
	 SCS Same-Spin Energy      =      -0.0976399808452683 [Eh]
	 SCS Opposite-Spin Energy  =      -1.2023489446939140 [Eh]
	 SCS Correlation Energy    =      -1.2999889255391823 [Eh]
	 SCS Total Energy          =    -288.5855277344193155 [Eh]
	-----------------------------------------------------------

  Dipole Moment: [D]
     X:     0.7226      Y:    -1.3005      Z:     0.6178     Total:     1.6109

*** Psi4 exiting successfully. Buy a developer a beer!
