                               Psi4 1.4a3.dev225

  ==> Input File <==

--------------------------------------------------------------------------
#psi4
#
memory 32 gb

molecule  {
0 1
  O        0.5491460     1.6657540    -0.0835270
  N       -2.2079716    -0.8796674    -0.0529184
  C       -0.0231050     0.3654990    -0.2814520
  C        0.8312550    -0.7148260     0.3726500
  C       -1.4804950     0.3645050     0.1924430
  C        2.2653620    -0.7289500    -0.1466730
  H       -0.0068980     0.2268130    -1.3706510
  H        0.8244310    -0.5451890     1.4596650
  H        0.3655990    -1.6940980     0.2090450
  H       -1.4956300     0.5168070     1.2806640
  H       -1.9758410     1.2324740    -0.2546010
  H        2.8643550    -1.4881460     0.3640660
  H        2.7338870     0.2452880     0.0032600
  H        2.2845280    -0.9484100    -1.2186000
  H       -1.8677700    -1.6459920     0.3360700
  H       -2.2749210    -1.0002390    -1.1082240
  H        0.5361330     1.8319630     0.8766110
units angstrom
no_reorient  #important for SAPT in psi4, default
symmetry c1  #important for SAPT in psi4, default
}

set PROPERTIES_ORIGIN ["COM"]
properties('MP2/aug-cc-pvtz', properties = ['dipole'])
--------------------------------------------------------------------------

    Molecular point group: c1
  Charge       = 0
  Multiplicity = 1
  Basis Set: AUG-CC-PVTZ
    Blend: AUG-CC-PVTZ
  Basis Set: (AUG-CC-PVTZ AUX)
    Blend: AUG-CC-PVTZ-JKFIT

    Orbital Energies [Eh]
    ---------------------

    Doubly Occupied:

       1A    -20.557772     2A    -15.539794     3A    -11.276521
       4A    -11.252080     5A    -11.226238     6A    -11.213410
       7A     -1.357540     8A     -1.188035     9A     -1.053261
      10A     -0.960616    11A     -0.864979    12A     -0.804072
      13A     -0.689435    14A     -0.655359    15A     -0.643639
      16A     -0.632260    17A     -0.582085    18A     -0.566589
      19A     -0.538208    20A     -0.517392    21A     -0.502910
      22A     -0.487451    23A     -0.480684    24A     -0.450949
      25A     -0.382501

  @DF-RHF Final Energy:  -287.27636203039538

   => Energetics <=

    Nuclear Repulsion Energy =            260.3843161942440929
    One-Electron Energy =                -906.4737972554630687
    Two-Electron Energy =                 358.8131190308236000
    Total Energy =                       -287.2763620303953758
  Basis Set: (AUG-CC-PVTZ AUX)
    Blend: AUG-CC-PVTZ-RI
    Molecular point group: c1

    Geometry (in Angstrom), charge = 0, multiplicity = 1:

       Center              X                  Y                   Z               Mass
    ------------   -----------------  -----------------  -----------------  -----------------
         O            0.560542136583     1.638072568711    -0.085192964919    15.994914619570
         N           -2.196575463417    -0.907348831289    -0.054584364919    14.003074004430
         C           -0.011708863417     0.337817568711    -0.283117964919    12.000000000000
         C            0.842651136583    -0.742507431289     0.370984035081    12.000000000000
         C           -1.469098863417     0.336823568711     0.190777035081    12.000000000000
         C            2.276758136583    -0.756631431289    -0.148338964919    12.000000000000
         H            0.004498136583     0.199131568711    -1.372316964919     1.007825032230
         H            0.835827136583    -0.572870431289     1.457999035081     1.007825032230
         H            0.376995136583    -1.721779431289     0.207379035081     1.007825032230
         H           -1.484233863417     0.489125568711     1.278998035081     1.007825032230
         H           -1.964444863417     1.204792568711    -0.256266964919     1.007825032230
         H            2.875751136583    -1.515827431289     0.362400035081     1.007825032230
         H            2.745283136583     0.217606568711     0.001594035081     1.007825032230
         H            2.295924136583    -0.976091431289    -1.220265964919     1.007825032230
         H           -1.856373863417    -1.673673431289     0.334404035081     1.007825032230
         H           -2.263524863417    -1.027920431289    -1.109889964919     1.007825032230
         H            0.547529136583     1.804281568711     0.874945035081     1.007825032230

  Basis Set: AUG-CC-PVTZ
    Blend: AUG-CC-PVTZ
  Basis Set: (AUG-CC-PVTZ AUX)
    Blend: AUG-CC-PVTZ-JKFIT
	 Reference Energy          =    -287.2763620303953758 [Eh]
	 Singles Energy            =      -0.0000000000000000 [Eh]
	 Same-Spin Energy          =      -0.2926440341753686 [Eh]
	 Opposite-Spin Energy      =      -1.0011958881246810 [Eh]
	 Correlation Energy        =      -1.2938399223000496 [Eh]
	 Total Energy              =    -288.5702019526954132 [Eh]

	 ================> DF-SCS-MP2 Energies <==================
	-----------------------------------------------------------
	 SCS Same-Spin Scale       =       0.3333333333333333 [-]
	 SCS Opposite-Spin Scale   =       1.2000000000000000 [-]
	 SCS Same-Spin Energy      =      -0.0975480113917895 [Eh]
	 SCS Opposite-Spin Energy  =      -1.2014350657496171 [Eh]
	 SCS Correlation Energy    =      -1.2989830771414066 [Eh]
	 SCS Total Energy          =    -288.5753451075368048 [Eh]
	-----------------------------------------------------------

  Dipole Moment: [D]
     X:     0.5469      Y:    -1.2338      Z:     0.5790     Total:     1.4686

*** Psi4 exiting successfully. Buy a developer a beer!
