                               Psi4 1.4a3.dev225

  ==> Input File <==

--------------------------------------------------------------------------
#psi4
#
memory 32 gb

molecule  {
0 1
  O        0.5491460     1.6657540    -0.0835270
  N       -2.2770200    -0.8249540    -0.1044150
  C       -0.0231050     0.3654990    -0.2814520
  C        0.8312550    -0.7148260     0.3726500
  C       -1.4804950     0.3645050     0.1924430
  C        2.2653620    -0.7289500    -0.1466730
  H       -0.0068980     0.2268130    -1.3706510
  H        0.8244310    -0.5451890     1.4596650
  H        0.3655990    -1.6940980     0.2090450
  H       -1.4956300     0.5168070     1.2806640
  H       -1.9758410     1.2324740    -0.2546010
  H        2.8643550    -1.4881460     0.3640660
  H        2.7338870     0.2452880     0.0032600
  H        2.2845280    -0.9484100    -1.2186000
  H       -1.8677700    -1.6459920     0.3360700
  H       -2.2749210    -1.0002390    -1.1082240
  H        0.5388037     1.7978515     0.6795595
units angstrom
no_reorient  #important for SAPT in psi4, default
symmetry c1  #important for SAPT in psi4, default
}

set PROPERTIES_ORIGIN ["COM"]
properties('MP2/aug-cc-pvtz', properties = ['dipole'])
--------------------------------------------------------------------------

    Molecular point group: c1
  Charge       = 0
  Multiplicity = 1
  Basis Set: AUG-CC-PVTZ
    Blend: AUG-CC-PVTZ
  Basis Set: (AUG-CC-PVTZ AUX)
    Blend: AUG-CC-PVTZ-JKFIT

    Orbital Energies [Eh]
    ---------------------

    Doubly Occupied:

       1A    -20.536406     2A    -15.548778     3A    -11.279902
       4A    -11.251885     5A    -11.228777     6A    -11.215191
       7A     -1.418867     8A     -1.184905     9A     -1.061135
      10A     -0.965671    11A     -0.865056    12A     -0.825049
      13A     -0.687806    14A     -0.677149    15A     -0.647057
      16A     -0.635759    17A     -0.582664    18A     -0.557944
      19A     -0.551771    20A     -0.523290    21A     -0.504474
      22A     -0.489701    23A     -0.484765    24A     -0.457036
      25A     -0.389508

  @DF-RHF Final Energy:  -287.24116702795385

   => Energetics <=

    Nuclear Repulsion Energy =            261.0904089087099464
    One-Electron Energy =                -907.5220653119716872
    Two-Electron Energy =                 359.1904893753078909
    Total Energy =                       -287.2411670279538498
  Basis Set: (AUG-CC-PVTZ AUX)
    Blend: AUG-CC-PVTZ-RI
    Molecular point group: c1

    Geometry (in Angstrom), charge = 0, multiplicity = 1:

       Center              X                  Y                   Z               Mass
    ------------   -----------------  -----------------  -----------------  -----------------
         O            0.571365601676     1.629858109997    -0.074868962016    15.994914619570
         N           -2.254800398324    -0.860849890003    -0.095756962016    14.003074004430
         C           -0.000885398324     0.329603109997    -0.272793962016    12.000000000000
         C            0.853474601676    -0.750721890003     0.381308037984    12.000000000000
         C           -1.458275398324     0.328609109997     0.201101037984    12.000000000000
         C            2.287581601676    -0.764845890003    -0.138014962016    12.000000000000
         H            0.015321601676     0.190917109997    -1.361992962016     1.007825032230
         H            0.846650601676    -0.581084890003     1.468323037984     1.007825032230
         H            0.387818601676    -1.729993890003     0.217703037984     1.007825032230
         H           -1.473410398324     0.480911109997     1.289322037984     1.007825032230
         H           -1.953621398324     1.196578109997    -0.245942962016     1.007825032230
         H            2.886574601676    -1.524041890003     0.372724037984     1.007825032230
         H            2.756106601676     0.209392109997     0.011918037984     1.007825032230
         H            2.306747601676    -0.984305890003    -1.209941962016     1.007825032230
         H           -1.845550398324    -1.681887890003     0.344728037984     1.007825032230
         H           -2.252701398324    -1.036134890003    -1.099565962016     1.007825032230
         H            0.561023301676     1.761955609997     0.688217537984     1.007825032230

  Basis Set: AUG-CC-PVTZ
    Blend: AUG-CC-PVTZ
  Basis Set: (AUG-CC-PVTZ AUX)
    Blend: AUG-CC-PVTZ-JKFIT
	 Reference Energy          =    -287.2411670279538498 [Eh]
	 Singles Energy            =      -0.0000000000000000 [Eh]
	 Same-Spin Energy          =      -0.2903857683943482 [Eh]
	 Opposite-Spin Energy      =      -0.9962383800553620 [Eh]
	 Correlation Energy        =      -1.2866241484497103 [Eh]
	 Total Energy              =    -288.5277911764035821 [Eh]

	 ================> DF-SCS-MP2 Energies <==================
	-----------------------------------------------------------
	 SCS Same-Spin Scale       =       0.3333333333333333 [-]
	 SCS Opposite-Spin Scale   =       1.2000000000000000 [-]
	 SCS Same-Spin Energy      =      -0.0967952561314494 [Eh]
	 SCS Opposite-Spin Energy  =      -1.1954860560664344 [Eh]
	 SCS Correlation Energy    =      -1.2922813121978838 [Eh]
	 SCS Total Energy          =    -288.5334483401517218 [Eh]
	-----------------------------------------------------------

  Dipole Moment: [D]
     X:     0.6952      Y:    -1.3884      Z:     0.5105     Total:     1.6345

*** Psi4 exiting successfully. Buy a developer a beer!
