                               Psi4 1.4a3.dev225

  ==> Input File <==

--------------------------------------------------------------------------
#psi4
#
memory 32 gb

molecule  {
0 1
  O        0.5491460     1.6657540    -0.0835270
  N       -2.2770200    -0.8249540    -0.1044150
  C       -0.0231050     0.3654990    -0.2814520
  C        0.8312550    -0.7148260     0.3726500
  C       -1.4804950     0.3645050     0.1924430
  C        2.2653620    -0.7289500    -0.1466730
  H       -0.0068980     0.2268130    -1.3706510
  H        0.8231905    -0.5143513     1.6572694
  H        0.3655990    -1.6940980     0.2090450
  H       -1.4956300     0.5168070     1.2806640
  H       -1.9758410     1.2324740    -0.2546010
  H        2.8643550    -1.4881460     0.3640660
  H        2.7338870     0.2452880     0.0032600
  H        2.2845280    -0.9484100    -1.2186000
  H       -1.8677700    -1.6459920     0.3360700
  H       -2.2749210    -1.0002390    -1.1082240
  H        0.5361330     1.8319630     0.8766110
units angstrom
no_reorient  #important for SAPT in psi4, default
symmetry c1  #important for SAPT in psi4, default
}

set PROPERTIES_ORIGIN ["COM"]
properties('MP2/aug-cc-pvtz', properties = ['dipole'])
--------------------------------------------------------------------------

    Molecular point group: c1
  Charge       = 0
  Multiplicity = 1
  Basis Set: AUG-CC-PVTZ
    Blend: AUG-CC-PVTZ
  Basis Set: (AUG-CC-PVTZ AUX)
    Blend: AUG-CC-PVTZ-JKFIT

    Orbital Energies [Eh]
    ---------------------

    Doubly Occupied:

       1A    -20.559211     2A    -15.548278     3A    -11.281267
       4A    -11.251821     5A    -11.250952     6A    -11.217520
       7A     -1.358904     8A     -1.183333     9A     -1.050588
      10A     -0.959526    11A     -0.861361    12A     -0.796540
      13A     -0.676905    14A     -0.657953    15A     -0.641923
      16A     -0.628628    17A     -0.576157    18A     -0.556864
      19A     -0.544389    20A     -0.521259    21A     -0.503858
      22A     -0.483091    23A     -0.470757    24A     -0.450858
      25A     -0.388490

  @DF-RHF Final Energy:  -287.26755742417930

   => Energetics <=

    Nuclear Repulsion Energy =            258.8825997972566597
    One-Electron Energy =                -903.4594468626279422
    Two-Electron Energy =                 357.3092896411920378
    Total Energy =                       -287.2675574241793015
  Basis Set: (AUG-CC-PVTZ AUX)
    Blend: AUG-CC-PVTZ-RI
    Molecular point group: c1

    Geometry (in Angstrom), charge = 0, multiplicity = 1:

       Center              X                  Y                   Z               Mass
    ------------   -----------------  -----------------  -----------------  -----------------
         O            0.571409849829     1.629123327291    -0.079333779598    15.994914619570
         N           -2.254756150171    -0.861584672709    -0.100221779598    14.003074004430
         C           -0.000841150171     0.328868327291    -0.277258779598    12.000000000000
         C            0.853518849829    -0.751456672709     0.376843220402    12.000000000000
         C           -1.458231150171     0.327874327291     0.196636220402    12.000000000000
         C            2.287625849829    -0.765580672709    -0.142479779598    12.000000000000
         H            0.015365849829     0.190182327291    -1.366457779598     1.007825032230
         H            0.845454349829    -0.550981972709     1.661462620402     1.007825032230
         H            0.387862849829    -1.730728672709     0.213238220402     1.007825032230
         H           -1.473366150171     0.480176327291     1.284857220402     1.007825032230
         H           -1.953577150171     1.195843327291    -0.250407779598     1.007825032230
         H            2.886618849829    -1.524776672709     0.368259220402     1.007825032230
         H            2.756150849829     0.208657327291     0.007453220402     1.007825032230
         H            2.306791849829    -0.985040672709    -1.214406779598     1.007825032230
         H           -1.845506150171    -1.682622672709     0.340263220402     1.007825032230
         H           -2.252657150171    -1.036869672709    -1.104030779598     1.007825032230
         H            0.558396849829     1.795332327291     0.880804220402     1.007825032230

  Basis Set: AUG-CC-PVTZ
    Blend: AUG-CC-PVTZ
  Basis Set: (AUG-CC-PVTZ AUX)
    Blend: AUG-CC-PVTZ-JKFIT
	 Reference Energy          =    -287.2675574241793015 [Eh]
	 Singles Energy            =      -0.0000000000000000 [Eh]
	 Same-Spin Energy          =      -0.2928006899561663 [Eh]
	 Opposite-Spin Energy      =      -1.0032651974697615 [Eh]
	 Correlation Energy        =      -1.2960658874259279 [Eh]
	 Total Energy              =    -288.5636233116052267 [Eh]

	 ================> DF-SCS-MP2 Energies <==================
	-----------------------------------------------------------
	 SCS Same-Spin Scale       =       0.3333333333333333 [-]
	 SCS Opposite-Spin Scale   =       1.2000000000000000 [-]
	 SCS Same-Spin Energy      =      -0.0976002299853888 [Eh]
	 SCS Opposite-Spin Energy  =      -1.2039182369637138 [Eh]
	 SCS Correlation Energy    =      -1.3015184669491024 [Eh]
	 SCS Total Energy          =    -288.5690758911284206 [Eh]
	-----------------------------------------------------------

  Dipole Moment: [D]
     X:     0.7464      Y:    -1.3171      Z:     0.4380     Total:     1.5760

*** Psi4 exiting successfully. Buy a developer a beer!
