                               Psi4 1.4a3.dev225

  ==> Input File <==

--------------------------------------------------------------------------
#psi4
#
memory 32 gb

molecule  {
0 1
  O        0.5491460     1.6657540    -0.0835270
  N       -2.2770200    -0.8249540    -0.1044150
  C       -0.0231050     0.3654990    -0.2814520
  C        0.8200485    -0.7006555     0.3640702
  C       -1.4804950     0.3645050     0.1924430
  C        2.2653620    -0.7289500    -0.1466730
  H       -0.0068980     0.2268130    -1.3706510
  H        0.8244310    -0.5451890     1.4596650
  H        0.3655990    -1.6940980     0.2090450
  H       -1.4956300     0.5168070     1.2806640
  H       -1.9758410     1.2324740    -0.2546010
  H        2.8643550    -1.4881460     0.3640660
  H        2.7338870     0.2452880     0.0032600
  H        2.2845280    -0.9484100    -1.2186000
  H       -1.8677700    -1.6459920     0.3360700
  H       -2.2749210    -1.0002390    -1.1082240
  H        0.5361330     1.8319630     0.8766110
units angstrom
no_reorient  #important for SAPT in psi4, default
symmetry c1  #important for SAPT in psi4, default
}

set PROPERTIES_ORIGIN ["COM"]
properties('MP2/aug-cc-pvtz', properties = ['dipole'])
--------------------------------------------------------------------------

    Molecular point group: c1
  Charge       = 0
  Multiplicity = 1
  Basis Set: AUG-CC-PVTZ
    Blend: AUG-CC-PVTZ
  Basis Set: (AUG-CC-PVTZ AUX)
    Blend: AUG-CC-PVTZ-JKFIT

    Orbital Energies [Eh]
    ---------------------

    Doubly Occupied:

       1A    -20.558984     2A    -15.547757     3A    -11.277461
       4A    -11.250804     5A    -11.228268     6A    -11.214798
       7A     -1.359034     8A     -1.183054     9A     -1.055330
      10A     -0.958212    11A     -0.864032    12A     -0.804640
      13A     -0.676593    14A     -0.658537    15A     -0.644468
      16A     -0.633637    17A     -0.580087    18A     -0.555790
      19A     -0.543223    20A     -0.521557    21A     -0.500190
      22A     -0.486152    23A     -0.479990    24A     -0.457299
      25A     -0.387978

  @DF-RHF Final Energy:  -287.28604856327973

   => Energetics <=

    Nuclear Repulsion Energy =            259.9468956643189586
    One-Electron Energy =                -905.6101345305198720
    Two-Electron Energy =                 358.3771903029211785
    Total Energy =                       -287.2860485632797349
  Basis Set: (AUG-CC-PVTZ AUX)
    Blend: AUG-CC-PVTZ-RI
    Molecular point group: c1

    Geometry (in Angstrom), charge = 0, multiplicity = 1:

       Center              X                  Y                   Z               Mass
    ------------   -----------------  -----------------  -----------------  -----------------
         O            0.572905378738     1.627563373829    -0.075942507946    15.994914619570
         N           -2.253260621262    -0.863144626171    -0.096830507946    14.003074004430
         C            0.000654378738     0.327308373829    -0.273867507946    12.000000000000
         C            0.843807878738    -0.738846126171     0.371654692054    12.000000000000
         C           -1.456735621262     0.326314373829     0.200027492054    12.000000000000
         C            2.289121378738    -0.767140626171    -0.139088507946    12.000000000000
         H            0.016861378738     0.188622373829    -1.363066507946     1.007825032230
         H            0.848190378738    -0.583379626171     1.467249492054     1.007825032230
         H            0.389358378738    -1.732288626171     0.216629492054     1.007825032230
         H           -1.471870621262     0.478616373829     1.288248492054     1.007825032230
         H           -1.952081621262     1.194283373829    -0.247016507946     1.007825032230
         H            2.888114378738    -1.526336626171     0.371650492054     1.007825032230
         H            2.757646378738     0.207097373829     0.010844492054     1.007825032230
         H            2.308287378738    -0.986600626171    -1.211015507946     1.007825032230
         H           -1.844010621262    -1.684182626171     0.343654492054     1.007825032230
         H           -2.251161621262    -1.038429626171    -1.100639507946     1.007825032230
         H            0.559892378738     1.793772373829     0.884195492054     1.007825032230

  Basis Set: AUG-CC-PVTZ
    Blend: AUG-CC-PVTZ
  Basis Set: (AUG-CC-PVTZ AUX)
    Blend: AUG-CC-PVTZ-JKFIT
	 Reference Energy          =    -287.2860485632797349 [Eh]
	 Singles Energy            =      -0.0000000000000000 [Eh]
	 Same-Spin Energy          =      -0.2928756971013173 [Eh]
	 Opposite-Spin Energy      =      -1.0019132659190517 [Eh]
	 Correlation Energy        =      -1.2947889630203691 [Eh]
	 Total Energy              =    -288.5808375263001153 [Eh]

	 ================> DF-SCS-MP2 Energies <==================
	-----------------------------------------------------------
	 SCS Same-Spin Scale       =       0.3333333333333333 [-]
	 SCS Opposite-Spin Scale   =       1.2000000000000000 [-]
	 SCS Same-Spin Energy      =      -0.0976252323671058 [Eh]
	 SCS Opposite-Spin Energy  =      -1.2022959191028619 [Eh]
	 SCS Correlation Energy    =      -1.2999211514699678 [Eh]
	 SCS Total Energy          =    -288.5859697147496945 [Eh]
	-----------------------------------------------------------

  Dipole Moment: [D]
     X:     0.7227      Y:    -1.3086      Z:     0.6271     Total:     1.6211

*** Psi4 exiting successfully. Buy a developer a beer!
