                               Psi4 1.4a3.dev225

  ==> Input File <==

--------------------------------------------------------------------------
#psi4
#
memory 32 gb

molecule  {
0 1
  O        0.5491460     1.6657540    -0.0835270
  N       -2.2770200    -0.8249540    -0.1044150
  C       -0.0231050     0.3654990    -0.2814520
  C        0.8312550    -0.7148260     0.3726500
  C       -1.4804950     0.3645050     0.1924430
  C        2.2653620    -0.7289500    -0.1466730
  H       -0.0068980     0.2268130    -1.3706510
  H        0.8244310    -0.5451890     1.4596650
  H        0.3655990    -1.6940980     0.2090450
  H       -1.4956300     0.5168070     1.2806640
  H       -1.9758410     1.2324740    -0.2546010
  H        2.8643550    -1.4881460     0.3640660
  H        2.7338870     0.2452880     0.0032600
  H        2.2845280    -0.9484100    -1.2186000
  H       -1.8597270    -1.6621279     0.3447269
  H       -2.2749210    -1.0002390    -1.1082240
  H        0.5361330     1.8319630     0.8766110
units angstrom
no_reorient  #important for SAPT in psi4, default
symmetry c1  #important for SAPT in psi4, default
}

set PROPERTIES_ORIGIN ["COM"]
properties('MP2/aug-cc-pvtz', properties = ['dipole'])
--------------------------------------------------------------------------

    Molecular point group: c1
  Charge       = 0
  Multiplicity = 1
  Basis Set: AUG-CC-PVTZ
    Blend: AUG-CC-PVTZ
  Basis Set: (AUG-CC-PVTZ AUX)
    Blend: AUG-CC-PVTZ-JKFIT

    Orbital Energies [Eh]
    ---------------------

    Doubly Occupied:

       1A    -20.559013     2A    -15.549993     3A    -11.278149
       4A    -11.250807     5A    -11.227554     6A    -11.214288
       7A     -1.358583     8A     -1.180519     9A     -1.054023
      10A     -0.957386    11A     -0.862310    12A     -0.805089
      13A     -0.673920    14A     -0.658004    15A     -0.644095
      16A     -0.631633    17A     -0.580849    18A     -0.554745
      19A     -0.543251    20A     -0.520979    21A     -0.501924
      22A     -0.488359    23A     -0.480809    24A     -0.453309
      25A     -0.387468

  @DF-RHF Final Energy:  -287.28556564568572

   => Energetics <=

    Nuclear Repulsion Energy =            259.6214386940581562
    One-Electron Energy =                -904.9798893754159508
    Two-Electron Energy =                 358.0728850356720727
    Total Energy =                       -287.2855656456857218
  Basis Set: (AUG-CC-PVTZ AUX)
    Blend: AUG-CC-PVTZ-RI
    Molecular point group: c1

    Geometry (in Angstrom), charge = 0, multiplicity = 1:

       Center              X                  Y                   Z               Mass
    ------------   -----------------  -----------------  -----------------  -----------------
         O            0.571304823820     1.629654748601    -0.077196180439    15.994914619570
         N           -2.254861176180    -0.861053251399    -0.098084180439    14.003074004430
         C           -0.000946176180     0.329399748601    -0.275121180439    12.000000000000
         C            0.853413823820    -0.750925251399     0.378980819561    12.000000000000
         C           -1.458336176180     0.328405748601     0.198773819561    12.000000000000
         C            2.287520823820    -0.765049251399    -0.140342180439    12.000000000000
         H            0.015260823820     0.190713748601    -1.364320180439     1.007825032230
         H            0.846589823820    -0.581288251399     1.465995819561     1.007825032230
         H            0.387757823820    -1.730197251399     0.215375819561     1.007825032230
         H           -1.473471176180     0.480707748601     1.286994819561     1.007825032230
         H           -1.953682176180     1.196374748601    -0.248270180439     1.007825032230
         H            2.886513823820    -1.524245251399     0.370396819561     1.007825032230
         H            2.756045823820     0.209188748601     0.009590819561     1.007825032230
         H            2.306686823820    -0.984509251399    -1.212269180439     1.007825032230
         H           -1.837568176180    -1.698227151399     0.351057719561     1.007825032230
         H           -2.252762176180    -1.036338251399    -1.101893180439     1.007825032230
         H            0.558291823820     1.795863748601     0.882941819561     1.007825032230

  Basis Set: AUG-CC-PVTZ
    Blend: AUG-CC-PVTZ
  Basis Set: (AUG-CC-PVTZ AUX)
    Blend: AUG-CC-PVTZ-JKFIT
	 Reference Energy          =    -287.2855656456857218 [Eh]
	 Singles Energy            =      -0.0000000000000000 [Eh]
	 Same-Spin Energy          =      -0.2928764929058405 [Eh]
	 Opposite-Spin Energy      =      -1.0021517468681658 [Eh]
	 Correlation Energy        =      -1.2950282397740063 [Eh]
	 Total Energy              =    -288.5805938854597343 [Eh]

	 ================> DF-SCS-MP2 Energies <==================
	-----------------------------------------------------------
	 SCS Same-Spin Scale       =       0.3333333333333333 [-]
	 SCS Opposite-Spin Scale   =       1.2000000000000000 [-]
	 SCS Same-Spin Energy      =      -0.0976254976352802 [Eh]
	 SCS Opposite-Spin Energy  =      -1.2025820962417988 [Eh]
	 SCS Correlation Energy    =      -1.3002075938770790 [Eh]
	 SCS Total Energy          =    -288.5857732395627977 [Eh]
	-----------------------------------------------------------

  Dipole Moment: [D]
     X:     0.7198      Y:    -1.3015      Z:     0.6308     Total:     1.6155

*** Psi4 exiting successfully. Buy a developer a beer!
