                               Psi4 1.4a3.dev225

  ==> Input File <==

--------------------------------------------------------------------------
#psi4
#
memory 32 gb

molecule  {
0 1
  O        0.5491460     1.6657540    -0.0835270
  N       -2.2770200    -0.8249540    -0.1044150
  C       -0.0231050     0.3654990    -0.2814520
  C        0.7448157    -0.7451345     0.4268371
  C       -1.4804950     0.3645050     0.1924430
  C        2.2653620    -0.7289500    -0.1466730
  H       -0.0068980     0.2268130    -1.3706510
  H        0.8244310    -0.5451890     1.4596650
  H        0.3655990    -1.6940980     0.2090450
  H       -1.4956300     0.5168070     1.2806640
  H       -1.9758410     1.2324740    -0.2546010
  H        2.8643550    -1.4881460     0.3640660
  H        2.7338870     0.2452880     0.0032600
  H        2.2845280    -0.9484100    -1.2186000
  H       -1.8677700    -1.6459920     0.3360700
  H       -2.2749210    -1.0002390    -1.1082240
  H        0.5361330     1.8319630     0.8766110
units angstrom
no_reorient  #important for SAPT in psi4, default
symmetry c1  #important for SAPT in psi4, default
}

set PROPERTIES_ORIGIN ["COM"]
properties('MP2/aug-cc-pvtz', properties = ['dipole'])
--------------------------------------------------------------------------

    Molecular point group: c1
  Charge       = 0
  Multiplicity = 1
  Basis Set: AUG-CC-PVTZ
    Blend: AUG-CC-PVTZ
  Basis Set: (AUG-CC-PVTZ AUX)
    Blend: AUG-CC-PVTZ-JKFIT

    Orbital Energies [Eh]
    ---------------------

    Doubly Occupied:

       1A    -20.561042     2A    -15.547357     3A    -11.278729
       4A    -11.248169     5A    -11.224457     6A    -11.217114
       7A     -1.359339     8A     -1.182770     9A     -1.046445
      10A     -0.951627    11A     -0.863860    12A     -0.811340
      13A     -0.677594    14A     -0.659970    15A     -0.651472
      16A     -0.628889    17A     -0.579265    18A     -0.551845
      19A     -0.541706    20A     -0.521012    21A     -0.509165
      22A     -0.489340    23A     -0.471616    24A     -0.454936
      25A     -0.384492

  @DF-RHF Final Energy:  -287.27688416454220

   => Energetics <=

    Nuclear Repulsion Energy =            259.3329699186598987
    One-Electron Energy =                -904.3926049592955678
    Two-Electron Energy =                 357.7827508760934165
    Total Energy =                       -287.2768841645421958
  Basis Set: (AUG-CC-PVTZ AUX)
    Blend: AUG-CC-PVTZ-RI
    Molecular point group: c1

    Geometry (in Angstrom), charge = 0, multiplicity = 1:

       Center              X                  Y                   Z               Mass
    ------------   -----------------  -----------------  -----------------  -----------------
         O            0.583039554927     1.633554883154    -0.084397474709    15.994914619570
         N           -2.243126445073    -0.857153116846    -0.105285474709    14.003074004430
         C            0.010788554927     0.333299883154    -0.282322474709    12.000000000000
         C            0.778709254927    -0.777333616846     0.425966625291    12.000000000000
         C           -1.446601445073     0.332305883154     0.191572525291    12.000000000000
         C            2.299255554927    -0.761149116846    -0.147543474709    12.000000000000
         H            0.026995554927     0.194613883154    -1.371521474709     1.007825032230
         H            0.858324554927    -0.577388116846     1.458794525291     1.007825032230
         H            0.399492554927    -1.726297116846     0.208174525291     1.007825032230
         H           -1.461736445073     0.484607883154     1.279793525291     1.007825032230
         H           -1.941947445073     1.200274883154    -0.255471474709     1.007825032230
         H            2.898248554927    -1.520345116846     0.363195525291     1.007825032230
         H            2.767780554927     0.213088883154     0.002389525291     1.007825032230
         H            2.318421554927    -0.980609116846    -1.219470474709     1.007825032230
         H           -1.833876445073    -1.678191116846     0.335199525291     1.007825032230
         H           -2.241027445073    -1.032438116846    -1.109094474709     1.007825032230
         H            0.570026554927     1.799763883154     0.875740525291     1.007825032230

  Basis Set: AUG-CC-PVTZ
    Blend: AUG-CC-PVTZ
  Basis Set: (AUG-CC-PVTZ AUX)
    Blend: AUG-CC-PVTZ-JKFIT
	 Reference Energy          =    -287.2768841645421958 [Eh]
	 Singles Energy            =      -0.0000000000000000 [Eh]
	 Same-Spin Energy          =      -0.2926789418219401 [Eh]
	 Opposite-Spin Energy      =      -1.0022057707454821 [Eh]
	 Correlation Energy        =      -1.2948847125674221 [Eh]
	 Total Energy              =    -288.5717688771096050 [Eh]

	 ================> DF-SCS-MP2 Energies <==================
	-----------------------------------------------------------
	 SCS Same-Spin Scale       =       0.3333333333333333 [-]
	 SCS Opposite-Spin Scale   =       1.2000000000000000 [-]
	 SCS Same-Spin Energy      =      -0.0975596472739800 [Eh]
	 SCS Opposite-Spin Energy  =      -1.2026469248945786 [Eh]
	 SCS Correlation Energy    =      -1.3002065721685585 [Eh]
	 SCS Total Energy          =    -288.5770907367107725 [Eh]
	-----------------------------------------------------------

  Dipole Moment: [D]
     X:     0.7188      Y:    -1.2915      Z:     0.6528     Total:     1.6158

*** Psi4 exiting successfully. Buy a developer a beer!
