                               Psi4 1.4a3.dev225

  ==> Input File <==

--------------------------------------------------------------------------
#psi4
#
memory 32 gb

molecule  {
0 1
  O        0.5491460     1.6657540    -0.0835270
  N       -2.2770200    -0.8249540    -0.1044150
  C       -0.0231050     0.3654990    -0.2814520
  C        0.8312550    -0.7148260     0.3726500
  C       -1.4632211     0.3716487     0.2425623
  C        2.2653620    -0.7289500    -0.1466730
  H       -0.0068980     0.2268130    -1.3706510
  H        0.8244310    -0.5451890     1.4596650
  H        0.3655990    -1.6940980     0.2090450
  H       -1.4956300     0.5168070     1.2806640
  H       -1.9758410     1.2324740    -0.2546010
  H        2.8643550    -1.4881460     0.3640660
  H        2.7338870     0.2452880     0.0032600
  H        2.2845280    -0.9484100    -1.2186000
  H       -1.8677700    -1.6459920     0.3360700
  H       -2.2749210    -1.0002390    -1.1082240
  H        0.5361330     1.8319630     0.8766110
units angstrom
no_reorient  #important for SAPT in psi4, default
symmetry c1  #important for SAPT in psi4, default
}

set PROPERTIES_ORIGIN ["COM"]
properties('MP2/aug-cc-pvtz', properties = ['dipole'])
--------------------------------------------------------------------------

    Molecular point group: c1
  Charge       = 0
  Multiplicity = 1
  Basis Set: AUG-CC-PVTZ
    Blend: AUG-CC-PVTZ
  Basis Set: (AUG-CC-PVTZ AUX)
    Blend: AUG-CC-PVTZ-JKFIT

    Orbital Energies [Eh]
    ---------------------

    Doubly Occupied:

       1A    -20.558624     2A    -15.546693     3A    -11.278994
       4A    -11.250001     5A    -11.227319     6A    -11.214255
       7A     -1.358883     8A     -1.175037     9A     -1.054320
      10A     -0.959135    11A     -0.864221    12A     -0.807531
      13A     -0.673291    14A     -0.658891    15A     -0.643959
      16A     -0.629622    17A     -0.581584    18A     -0.549528
      19A     -0.546809    20A     -0.527903    21A     -0.499175
      22A     -0.488526    23A     -0.481794    24A     -0.453384
      25A     -0.386689

  @DF-RHF Final Energy:  -287.28339902291521

   => Energetics <=

    Nuclear Repulsion Energy =            259.6116694453548348
    One-Electron Energy =                -904.9577990298707846
    Two-Electron Energy =                 358.0627305616006879
    Total Energy =                       -287.2833990229152050
  Basis Set: (AUG-CC-PVTZ AUX)
    Blend: AUG-CC-PVTZ-RI
    Molecular point group: c1

    Geometry (in Angstrom), charge = 0, multiplicity = 1:

       Center              X                  Y                   Z               Mass
    ------------   -----------------  -----------------  -----------------  -----------------
         O            0.569068948464     1.628509913493    -0.083849524853    15.994914619570
         N           -2.257097051536    -0.862198086507    -0.104737524853    14.003074004430
         C           -0.003182051536     0.328254913493    -0.281774524853    12.000000000000
         C            0.851177948464    -0.752070086507     0.372327475147    12.000000000000
         C           -1.443298151536     0.334404613493     0.242239775147    12.000000000000
         C            2.285284948464    -0.766194086507    -0.146995524853    12.000000000000
         H            0.013024948464     0.189568913493    -1.370973524853     1.007825032230
         H            0.844353948464    -0.582433086507     1.459342475147     1.007825032230
         H            0.385521948464    -1.731342086507     0.208722475147     1.007825032230
         H           -1.475707051536     0.479562913493     1.280341475147     1.007825032230
         H           -1.955918051536     1.195229913493    -0.254923524853     1.007825032230
         H            2.884277948464    -1.525390086507     0.363743475147     1.007825032230
         H            2.753809948464     0.208043913493     0.002937475147     1.007825032230
         H            2.304450948464    -0.985654086507    -1.218922524853     1.007825032230
         H           -1.847847051536    -1.683236086507     0.335747475147     1.007825032230
         H           -2.254998051536    -1.037483086507    -1.108546524853     1.007825032230
         H            0.556055948464     1.794718913493     0.876288475147     1.007825032230

  Basis Set: AUG-CC-PVTZ
    Blend: AUG-CC-PVTZ
  Basis Set: (AUG-CC-PVTZ AUX)
    Blend: AUG-CC-PVTZ-JKFIT
	 Reference Energy          =    -287.2833990229152050 [Eh]
	 Singles Energy            =      -0.0000000000000000 [Eh]
	 Same-Spin Energy          =      -0.2926677390157820 [Eh]
	 Opposite-Spin Energy      =      -1.0019891407853951 [Eh]
	 Correlation Energy        =      -1.2946568798011771 [Eh]
	 Total Energy              =    -288.5780559027163577 [Eh]

	 ================> DF-SCS-MP2 Energies <==================
	-----------------------------------------------------------
	 SCS Same-Spin Scale       =       0.3333333333333333 [-]
	 SCS Opposite-Spin Scale   =       1.2000000000000000 [-]
	 SCS Same-Spin Energy      =      -0.0975559130052607 [Eh]
	 SCS Opposite-Spin Energy  =      -1.2023869689424742 [Eh]
	 SCS Correlation Energy    =      -1.2999428819477348 [Eh]
	 SCS Total Energy          =    -288.5833419048629480 [Eh]
	-----------------------------------------------------------

  Dipole Moment: [D]
     X:     0.7653      Y:    -1.2580      Z:     0.6755     Total:     1.6201

*** Psi4 exiting successfully. Buy a developer a beer!
