                               Psi4 1.3.2 release

  ==> Input File <==

--------------------------------------------------------------------------
#psi4
#
memory 32 gb

molecule  {
0 1
  O        0.6578240    -1.4038190    -0.0084800
  O       -1.9400820     1.1224280     0.2266150
  O       -1.5482610    -1.4485240    -0.4053400
  C        0.3934500     1.4379940    -0.3488290
  C        1.7709580     0.7423380    -0.3578590
  C       -0.6401280     0.6164470     0.4297460
  C        1.8331233    -0.6700480     0.4198905
  C       -0.5671300    -0.8317210    -0.0237270
  H        0.4383430     2.4405150     0.0852910
  H        0.0022100     1.5496010    -1.3639530
  H        2.0656470     0.4995800    -1.3827820
  H        2.5523030     1.3896650     0.0543080
  H       -0.3983570     0.6446350     1.5043810
  H        2.6396080    -1.1506800     0.2905800
  H        1.6294670    -0.3677470     1.5171870
  H       -2.4737670     0.3533780    -0.0616490
units angstrom
no_reorient  #important for SAPT in psi4, default
symmetry c1  #important for SAPT in psi4, default
}

set PROPERTIES_ORIGIN ["COM"]
properties('MP2/aug-cc-pvtz', properties = ['dipole'])
--------------------------------------------------------------------------

    Molecular point group: c1
  Charge       = 0
  Multiplicity = 1
  Basis Set: AUG-CC-PVTZ
    Blend: AUG-CC-PVTZ
  Basis Set: (AUG-CC-PVTZ AUX)
    Blend: AUG-CC-PVTZ-JKFIT

    Orbital Energies [Eh]
    ---------------------

    Doubly Occupied:

       1A    -20.615227     2A    -20.565903     3A    -20.556825
       4A    -11.395472     5A    -11.316518     6A    -11.312427
       7A    -11.257790     8A    -11.251085     9A     -1.464378
      10A     -1.383882    11A     -1.357617    12A     -1.092899
      13A     -1.029031    14A     -0.922777    15A     -0.866556
      16A     -0.759655    17A     -0.748566    18A     -0.718759
      19A     -0.686692    20A     -0.656588    21A     -0.635321
      22A     -0.617108    23A     -0.589489    24A     -0.570015
      25A     -0.545218    26A     -0.536267    27A     -0.512657
      28A     -0.498265    29A     -0.465247    30A     -0.448021
      31A     -0.438371

  @DF-RHF Final Energy:  -418.71659757223000

   => Energetics <=

    Nuclear Repulsion Energy =            399.6773227079445405
    One-Electron Energy =               -1365.1585868008503439
    Two-Electron Energy =                 546.7646665206758598
    Total Energy =                       -418.7165975722299436
  Basis Set: (AUG-CC-PVTZ AUX)
    Blend: AUG-CC-PVTZ-RI
    Molecular point group: c1

    Geometry (in Angstrom), charge = 0, multiplicity = 1:

       Center              X                  Y                   Z               Mass
    ------------   -----------------  -----------------  -----------------  -----------------
         O            0.703362844846    -1.345835408541    -0.000592937507    15.994914619570
         O           -1.894543155154     1.180411591459     0.234502062493    15.994914619570
         O           -1.502722155154    -1.390540408541    -0.397452937507    15.994914619570
         C            0.438988844846     1.495977591459    -0.340941937507    12.000000000000
         C            1.816496844846     0.800321591459    -0.349971937507    12.000000000000
         C           -0.594589155154     0.674430591459     0.437633062493    12.000000000000
         C            1.878662144846    -0.612064408541     0.427777562493    12.000000000000
         C           -0.521591155154    -0.773737408541    -0.015839937507    12.000000000000
         H            0.483881844846     2.498498591459     0.093178062493     1.007825032230
         H            0.047748844846     1.607584591459    -1.356065937507     1.007825032230
         H            2.111185844846     0.557563591459    -1.374894937507     1.007825032230
         H            2.597841844846     1.447648591459     0.062195062493     1.007825032230
         H           -0.352818155154     0.702618591459     1.512268062493     1.007825032230
         H            2.685146844846    -1.092696408541     0.298467062493     1.007825032230
         H            1.675005844846    -0.309763408541     1.525074062493     1.007825032230
         H           -2.428228155154     0.411361591459    -0.053761937507     1.007825032230

  Basis Set: AUG-CC-PVTZ
    Blend: AUG-CC-PVTZ
  Basis Set: (AUG-CC-PVTZ AUX)
    Blend: AUG-CC-PVTZ-JKFIT
	 Reference Energy          =    -418.7165975722300004 [Eh]
	 Singles Energy            =      -0.0000000000000000 [Eh]
	 Same-Spin Energy          =      -0.4121193128660845 [Eh]
	 Opposite-Spin Energy      =      -1.2927880700725782 [Eh]
	 Correlation Energy        =      -1.7049073829386627 [Eh]
	 Total Energy              =    -420.4215049551686434 [Eh]

	 ================> DF-SCS-MP2 Energies <==================
	-----------------------------------------------------------
	 SCS Same-Spin Scale       =       0.3333333333333333 [-]
	 SCS Opposite-Spin Scale   =       1.2000000000000000 [-]
	 SCS Same-Spin Energy      =      -0.1373731042886948 [Eh]
	 SCS Opposite-Spin Energy  =      -1.5513456840870938 [Eh]
	 SCS Correlation Energy    =      -1.6887187883757886 [Eh]
	 SCS Total Energy          =    -420.4053163606058092 [Eh]
	-----------------------------------------------------------

  Dipole Moment: [D]
     X:     3.9300      Y:     1.5154      Z:     0.9433     Total:     4.3163

*** Psi4 exiting successfully. Buy a developer a beer!
