                               Psi4 1.4a3.dev225

  ==> Input File <==

--------------------------------------------------------------------------
#psi4
#
memory 32 gb

molecule  {
0 1
  O        0.6578240    -1.4038190    -0.0084800
  O       -1.9400820     1.1224280     0.2266150
  O       -1.5482610    -1.4485240    -0.4053400
  C        0.3934500     1.4379940    -0.3488290
  C        1.7709580     0.7423380    -0.3578590
  C       -0.6401280     0.6164470     0.4297460
  C        1.7409690    -0.5516630     0.4430470
  C       -0.5852499    -0.8232583    -0.0239525
  H        0.4383430     2.4405150     0.0852910
  H        0.0022100     1.5496010    -1.3639530
  H        2.0656470     0.4995800    -1.3827820
  H        2.5523030     1.3896650     0.0543080
  H       -0.3983570     0.6446350     1.5043810
  H        2.6396080    -1.1506800     0.2905800
  H        1.6294670    -0.3677470     1.5171870
  H       -2.4737670     0.3533780    -0.0616490
units angstrom
no_reorient  #important for SAPT in psi4, default
symmetry c1  #important for SAPT in psi4, default
}

set PROPERTIES_ORIGIN ["COM"]
properties('MP2/aug-cc-pvtz', properties = ['dipole'])
--------------------------------------------------------------------------

    Molecular point group: c1
  Charge       = 0
  Multiplicity = 1
  Basis Set: AUG-CC-PVTZ
    Blend: AUG-CC-PVTZ
  Basis Set: (AUG-CC-PVTZ AUX)
    Blend: AUG-CC-PVTZ-JKFIT

    Orbital Energies [Eh]
    ---------------------

    Doubly Occupied:

       1A    -20.614399     2A    -20.567417     3A    -20.560358
       4A    -11.393179     5A    -11.313590     6A    -11.311717
       7A    -11.253555     8A    -11.250145     9A     -1.463694
      10A     -1.385762    11A     -1.362298    12A     -1.102412
      13A     -1.024524    14A     -0.917817    15A     -0.865997
      16A     -0.761587    17A     -0.742828    18A     -0.710690
      19A     -0.690629    20A     -0.640459    21A     -0.632526
      22A     -0.620208    23A     -0.590040    24A     -0.572023
      25A     -0.554993    26A     -0.532910    27A     -0.516763
      28A     -0.501882    29A     -0.470755    30A     -0.451366
      31A     -0.446307

  @DF-RHF Final Energy:  -418.74576027841039

   => Energetics <=

    Nuclear Repulsion Energy =            401.5774961702966266
    One-Electron Energy =               -1369.0008542629934709
    Two-Electron Energy =                 548.6775978142864005
    Total Energy =                       -418.7457602784104438
  Basis Set: (AUG-CC-PVTZ AUX)
    Blend: AUG-CC-PVTZ-RI
    Molecular point group: c1

    Geometry (in Angstrom), charge = 0, multiplicity = 1:

       Center              X                  Y                   Z               Mass
    ------------   -----------------  -----------------  -----------------  -----------------
         O            0.714765866690    -1.358952230917    -0.002964142140    15.994914619570
         O           -1.883140133310     1.167294769083     0.232130857860    15.994914619570
         O           -1.491319133310    -1.403657230917    -0.399824142140    15.994914619570
         C            0.450391866690     1.482860769083    -0.343313142140    12.000000000000
         C            1.827899866690     0.787204769083    -0.352343142140    12.000000000000
         C           -0.583186133310     0.661313769083     0.435261857860    12.000000000000
         C            1.797910866690    -0.506796230917     0.448562857860    12.000000000000
         C           -0.528308033310    -0.778391530917    -0.018436642140    12.000000000000
         H            0.495284866690     2.485381769083     0.090806857860     1.007825032230
         H            0.059151866690     1.594467769083    -1.358437142140     1.007825032230
         H            2.122588866690     0.544446769083    -1.377266142140     1.007825032230
         H            2.609244866690     1.434531769083     0.059823857860     1.007825032230
         H           -0.341415133310     0.689501769083     1.509896857860     1.007825032230
         H            2.696549866690    -1.105813230917     0.296095857860     1.007825032230
         H            1.686408866690    -0.322880230917     1.522702857860     1.007825032230
         H           -2.416825133310     0.398244769083    -0.056133142140     1.007825032230

  Basis Set: AUG-CC-PVTZ
    Blend: AUG-CC-PVTZ
  Basis Set: (AUG-CC-PVTZ AUX)
    Blend: AUG-CC-PVTZ-JKFIT
	 Reference Energy          =    -418.7457602784103869 [Eh]
	 Singles Energy            =      -0.0000000000000000 [Eh]
	 Same-Spin Energy          =      -0.4125496024529708 [Eh]
	 Opposite-Spin Energy      =      -1.2927365558013617 [Eh]
	 Correlation Energy        =      -1.7052861582543324 [Eh]
	 Total Energy              =    -420.4510464366647398 [Eh]

	 ================> DF-SCS-MP2 Energies <==================
	-----------------------------------------------------------
	 SCS Same-Spin Scale       =       0.3333333333333333 [-]
	 SCS Opposite-Spin Scale   =       1.2000000000000000 [-]
	 SCS Same-Spin Energy      =      -0.1375165341509902 [Eh]
	 SCS Opposite-Spin Energy  =      -1.5512838669616340 [Eh]
	 SCS Correlation Energy    =      -1.6888004011126243 [Eh]
	 SCS Total Energy          =    -420.4345606795230310 [Eh]
	-----------------------------------------------------------

  Dipole Moment: [D]
     X:     3.6877      Y:     1.6699      Z:     0.9649     Total:     4.1616

*** Psi4 exiting successfully. Buy a developer a beer!
