                               Psi4 1.3.2 release

  ==> Input File <==

--------------------------------------------------------------------------
#psi4
#
memory 32 gb

molecule  {
0 1
  O        0.6668709    -1.3837359    -0.0000146
  O       -1.9400820     1.1224280     0.2266150
  O       -1.5482610    -1.4485240    -0.4053400
  C        0.3934500     1.4379940    -0.3488290
  C        1.7709580     0.7423380    -0.3578590
  C       -0.6401280     0.6164470     0.4297460
  C        1.7409690    -0.5516630     0.4430470
  C       -0.5671300    -0.8317210    -0.0237270
  H        0.4383430     2.4405150     0.0852910
  H        0.0022100     1.5496010    -1.3639530
  H        2.0656470     0.4995800    -1.3827820
  H        2.5523030     1.3896650     0.0543080
  H       -0.3983570     0.6446350     1.5043810
  H        2.6396080    -1.1506800     0.2905800
  H        1.6294670    -0.3677470     1.5171870
  H       -2.4737670     0.3533780    -0.0616490
units angstrom
no_reorient  #important for SAPT in psi4, default
symmetry c1  #important for SAPT in psi4, default
}

set PROPERTIES_ORIGIN ["COM"]
properties('MP2/aug-cc-pvtz', properties = ['dipole'])
--------------------------------------------------------------------------

    Molecular point group: c1
  Charge       = 0
  Multiplicity = 1
  Basis Set: AUG-CC-PVTZ
    Blend: AUG-CC-PVTZ
  Basis Set: (AUG-CC-PVTZ AUX)
    Blend: AUG-CC-PVTZ-JKFIT

    Orbital Energies [Eh]
    ---------------------

    Doubly Occupied:

       1A    -20.618954     2A    -20.566329     3A    -20.558341
       4A    -11.394704     5A    -11.312607     6A    -11.312509
       7A    -11.253509     8A    -11.249433     9A     -1.471445
      10A     -1.387289    11A     -1.359995    12A     -1.102367
      13A     -1.027271    14A     -0.918207    15A     -0.870123
      16A     -0.760720    17A     -0.746714    18A     -0.711639
      19A     -0.693348    20A     -0.643014    21A     -0.634652
      22A     -0.619162    23A     -0.592148    24A     -0.572062
      25A     -0.553703    26A     -0.532318    27A     -0.515897
      28A     -0.501850    29A     -0.469977    30A     -0.449886
      31A     -0.444691

  @DF-RHF Final Energy:  -418.74657728054615

   => Energetics <=

    Nuclear Repulsion Energy =            402.0802272004990527
    One-Electron Energy =               -1369.9638809641016906
    Two-Electron Energy =                 549.1370764830564895
    Total Energy =                       -418.7465772805461484
  Basis Set: (AUG-CC-PVTZ AUX)
    Blend: AUG-CC-PVTZ-RI
    Molecular point group: c1

    Geometry (in Angstrom), charge = 0, multiplicity = 1:

       Center              X                  Y                   Z               Mass
    ------------   -----------------  -----------------  -----------------  -----------------
         O            0.720692116271    -1.340762108921     0.004311145744    15.994914619570
         O           -1.886260783729     1.165401791079     0.230940745744    15.994914619570
         O           -1.494439783729    -1.405550208921    -0.401014254256    15.994914619570
         C            0.447271216271     1.480967791079    -0.344503254256    12.000000000000
         C            1.824779216271     0.785311791079    -0.353533254256    12.000000000000
         C           -0.586306783729     0.659420791079     0.434071745744    12.000000000000
         C            1.794790216271    -0.508689208921     0.447372745744    12.000000000000
         C           -0.513308783729    -0.788747208921    -0.019401254256    12.000000000000
         H            0.492164216271     2.483488791079     0.089616745744     1.007825032230
         H            0.056031216271     1.592574791079    -1.359627254256     1.007825032230
         H            2.119468216271     0.542553791079    -1.378456254256     1.007825032230
         H            2.606124216271     1.432638791079     0.058633745744     1.007825032230
         H           -0.344535783729     0.687608791079     1.508706745744     1.007825032230
         H            2.693429216271    -1.107706208921     0.294905745744     1.007825032230
         H            1.683288216271    -0.324773208921     1.521512745744     1.007825032230
         H           -2.419945783729     0.396351791079    -0.057323254256     1.007825032230

  Basis Set: AUG-CC-PVTZ
    Blend: AUG-CC-PVTZ
  Basis Set: (AUG-CC-PVTZ AUX)
    Blend: AUG-CC-PVTZ-JKFIT
	 Reference Energy          =    -418.7465772805461484 [Eh]
	 Singles Energy            =      -0.0000000000000000 [Eh]
	 Same-Spin Energy          =      -0.4125188066205790 [Eh]
	 Opposite-Spin Energy      =      -1.2921747974521482 [Eh]
	 Correlation Energy        =      -1.7046936040727272 [Eh]
	 Total Energy              =    -420.4512708846188502 [Eh]

	 ================> DF-SCS-MP2 Energies <==================
	-----------------------------------------------------------
	 SCS Same-Spin Scale       =       0.3333333333333333 [-]
	 SCS Opposite-Spin Scale   =       1.2000000000000000 [-]
	 SCS Same-Spin Energy      =      -0.1375062688735263 [Eh]
	 SCS Opposite-Spin Energy  =      -1.5506097569425779 [Eh]
	 SCS Correlation Energy    =      -1.6881160258161043 [Eh]
	 SCS Total Energy          =    -420.4346933063622487 [Eh]
	-----------------------------------------------------------

  Dipole Moment: [D]
     X:     3.8126      Y:     1.5867      Z:     0.9631     Total:     4.2404

*** Psi4 exiting successfully. Buy a developer a beer!
