                               Psi4 1.3.2 release

  ==> Input File <==

--------------------------------------------------------------------------
#psi4
#
memory 32 gb

molecule  {
0 1
  O        0.6578240    -1.4038190    -0.0084800
  O       -1.9400820     1.1224280     0.2266150
  O       -1.5482610    -1.4485240    -0.4053400
  C        0.3934500     1.4379940    -0.3488290
  C        1.7709580     0.7423380    -0.3578590
  C       -0.6401280     0.6164470     0.4297460
  C        1.8903417    -0.4341452     0.5053155
  C       -0.5671300    -0.8317210    -0.0237270
  H        0.4383430     2.4405150     0.0852910
  H        0.0022100     1.5496010    -1.3639530
  H        2.0656470     0.4995800    -1.3827820
  H        2.5523030     1.3896650     0.0543080
  H       -0.3983570     0.6446350     1.5043810
  H        2.6396080    -1.1506800     0.2905800
  H        1.6294670    -0.3677470     1.5171870
  H       -2.4737670     0.3533780    -0.0616490
units angstrom
no_reorient  #important for SAPT in psi4, default
symmetry c1  #important for SAPT in psi4, default
}

set PROPERTIES_ORIGIN ["COM"]
properties('MP2/aug-cc-pvtz', properties = ['dipole'])
--------------------------------------------------------------------------

    Molecular point group: c1
  Charge       = 0
  Multiplicity = 1
  Basis Set: AUG-CC-PVTZ
    Blend: AUG-CC-PVTZ
  Basis Set: (AUG-CC-PVTZ AUX)
    Blend: AUG-CC-PVTZ-JKFIT

    Orbital Energies [Eh]
    ---------------------

    Doubly Occupied:

       1A    -20.592357     2A    -20.562691     3A    -20.542833
       4A    -11.378351     5A    -11.327301     6A    -11.308954
       7A    -11.261996     8A    -11.253862     9A     -1.433912
      10A     -1.369336    11A     -1.335144    12A     -1.116312
      13A     -1.030617    14A     -0.920510    15A     -0.857826
      16A     -0.759361    17A     -0.731778    18A     -0.705986
      19A     -0.676836    20A     -0.637899    21A     -0.630529
      22A     -0.620615    23A     -0.578128    24A     -0.571681
      25A     -0.562333    26A     -0.535744    27A     -0.526807
      28A     -0.477507    29A     -0.460021    30A     -0.449326
      31A     -0.438401

  @DF-RHF Final Energy:  -418.71793356486427

   => Energetics <=

    Nuclear Repulsion Energy =            398.9472824830577906
    One-Electron Energy =               -1364.0205180914556422
    Two-Electron Energy =                 546.3553020435335839
    Total Energy =                       -418.7179335648643246
  Basis Set: (AUG-CC-PVTZ AUX)
    Blend: AUG-CC-PVTZ-RI
    Molecular point group: c1

    Geometry (in Angstrom), charge = 0, multiplicity = 1:

       Center              X                  Y                   Z               Mass
    ------------   -----------------  -----------------  -----------------  -----------------
         O            0.697446114866    -1.370229190420    -0.009426401192    15.994914619570
         O           -1.900459885134     1.156017809580     0.225668598808    15.994914619570
         O           -1.508638885134    -1.414934190420    -0.406286401192    15.994914619570
         C            0.433072114866     1.471583809580    -0.349775401192    12.000000000000
         C            1.810580114866     0.775927809580    -0.358805401192    12.000000000000
         C           -0.600505885134     0.650036809580     0.428799598808    12.000000000000
         C            1.929963814866    -0.400555390420     0.504369098808    12.000000000000
         C           -0.527507885134    -0.798131190420    -0.024673401192    12.000000000000
         H            0.477965114866     2.474104809580     0.084344598808     1.007825032230
         H            0.041832114866     1.583190809580    -1.364899401192     1.007825032230
         H            2.105269114866     0.533169809580    -1.383728401192     1.007825032230
         H            2.591925114866     1.423254809580     0.053361598808     1.007825032230
         H           -0.358734885134     0.678224809580     1.503434598808     1.007825032230
         H            2.679230114866    -1.117090190420     0.289633598808     1.007825032230
         H            1.669089114866    -0.334157190420     1.516240598808     1.007825032230
         H           -2.434144885134     0.386967809580    -0.062595401192     1.007825032230

  Basis Set: AUG-CC-PVTZ
    Blend: AUG-CC-PVTZ
  Basis Set: (AUG-CC-PVTZ AUX)
    Blend: AUG-CC-PVTZ-JKFIT
	 Reference Energy          =    -418.7179335648642677 [Eh]
	 Singles Energy            =      -0.0000000000000000 [Eh]
	 Same-Spin Energy          =      -0.4139588996273679 [Eh]
	 Opposite-Spin Energy      =      -1.2963989597816155 [Eh]
	 Correlation Energy        =      -1.7103578594089834 [Eh]
	 Total Energy              =    -420.4282914242732545 [Eh]

	 ================> DF-SCS-MP2 Energies <==================
	-----------------------------------------------------------
	 SCS Same-Spin Scale       =       0.3333333333333333 [-]
	 SCS Opposite-Spin Scale   =       1.2000000000000000 [-]
	 SCS Same-Spin Energy      =      -0.1379862998757893 [Eh]
	 SCS Opposite-Spin Energy  =      -1.5556787517379385 [Eh]
	 SCS Correlation Energy    =      -1.6936650516137277 [Eh]
	 SCS Total Energy          =    -420.4115986164779883 [Eh]
	-----------------------------------------------------------

  Dipole Moment: [D]
     X:     4.4619      Y:     2.0001      Z:     1.1298     Total:     5.0185

*** Psi4 exiting successfully. Buy a developer a beer!
