                               Psi4 1.3.2 release

  ==> Input File <==

--------------------------------------------------------------------------
#psi4
#
memory 32 gb

molecule  {
0 1
  O        0.7029297    -1.5034246     0.0968189
  O       -1.9400820     1.1224280     0.2266150
  O       -1.5482610    -1.4485240    -0.4053400
  C        0.3934500     1.4379940    -0.3488290
  C        1.7709580     0.7423380    -0.3578590
  C       -0.6401280     0.6164470     0.4297460
  C        1.7409690    -0.5516630     0.4430470
  C       -0.5671300    -0.8317210    -0.0237270
  H        0.4383430     2.4405150     0.0852910
  H        0.0022100     1.5496010    -1.3639530
  H        2.0656470     0.4995800    -1.3827820
  H        2.5523030     1.3896650     0.0543080
  H       -0.3983570     0.6446350     1.5043810
  H        2.6396080    -1.1506800     0.2905800
  H        1.6294670    -0.3677470     1.5171870
  H       -2.4737670     0.3533780    -0.0616490
units angstrom
no_reorient  #important for SAPT in psi4, default
symmetry c1  #important for SAPT in psi4, default
}

set PROPERTIES_ORIGIN ["COM"]
properties('MP2/aug-cc-pvtz', properties = ['dipole'])
--------------------------------------------------------------------------

    Molecular point group: c1
  Charge       = 0
  Multiplicity = 1
  Basis Set: AUG-CC-PVTZ
    Blend: AUG-CC-PVTZ
  Basis Set: (AUG-CC-PVTZ AUX)
    Blend: AUG-CC-PVTZ-JKFIT

    Orbital Energies [Eh]
    ---------------------

    Doubly Occupied:

       1A    -20.614682     2A    -20.571846     3A    -20.570477
       4A    -11.402849     5A    -11.319789     6A    -11.305633
       7A    -11.255384     8A    -11.251512     9A     -1.446844
      10A     -1.383171    11A     -1.362147    12A     -1.104012
      13A     -1.018058    14A     -0.914837    15A     -0.862921
      16A     -0.764171    17A     -0.729993    18A     -0.710566
      19A     -0.687681    20A     -0.639830    21A     -0.626599
      22A     -0.618875    23A     -0.590919    24A     -0.571484
      25A     -0.554096    26A     -0.536349    27A     -0.517323
      28A     -0.505042    29A     -0.472335    30A     -0.451708
      31A     -0.446735

  @DF-RHF Final Energy:  -418.73170546706933

   => Energetics <=

    Nuclear Repulsion Energy =            398.5787924156821873
    One-Electron Energy =               -1363.0052552467304849
    Two-Electron Energy =                 545.6947573639789653
    Total Energy =                       -418.7317054670693324
  Basis Set: (AUG-CC-PVTZ AUX)
    Blend: AUG-CC-PVTZ-RI
    Molecular point group: c1

    Geometry (in Angstrom), charge = 0, multiplicity = 1:

       Center              X                  Y                   Z               Mass
    ------------   -----------------  -----------------  -----------------  -----------------
         O            0.751780897942    -1.443954002794     0.087797993336    15.994914619570
         O           -1.891230802058     1.181898597206     0.217594093336    15.994914619570
         O           -1.499409802058    -1.389053402794    -0.414360906664    15.994914619570
         C            0.442301197942     1.497464597206    -0.357849906664    12.000000000000
         C            1.819809197942     0.801808597206    -0.366879906664    12.000000000000
         C           -0.591276802058     0.675917597206     0.420725093336    12.000000000000
         C            1.789820197942    -0.492192402794     0.434026093336    12.000000000000
         C           -0.518278802058    -0.772250402794    -0.032747906664    12.000000000000
         H            0.487194197942     2.499985597206     0.076270093336     1.007825032230
         H            0.051061197942     1.609071597206    -1.372973906664     1.007825032230
         H            2.114498197942     0.559050597206    -1.391802906664     1.007825032230
         H            2.601154197942     1.449135597206     0.045287093336     1.007825032230
         H           -0.349505802058     0.704105597206     1.495360093336     1.007825032230
         H            2.688459197942    -1.091209402794     0.281559093336     1.007825032230
         H            1.678318197942    -0.308276402794     1.508166093336     1.007825032230
         H           -2.424915802058     0.412848597206    -0.070669906664     1.007825032230

  Basis Set: AUG-CC-PVTZ
    Blend: AUG-CC-PVTZ
  Basis Set: (AUG-CC-PVTZ AUX)
    Blend: AUG-CC-PVTZ-JKFIT
	 Reference Energy          =    -418.7317054670693324 [Eh]
	 Singles Energy            =      -0.0000000000000000 [Eh]
	 Same-Spin Energy          =      -0.4137665179330055 [Eh]
	 Opposite-Spin Energy      =      -1.2968018278478084 [Eh]
	 Correlation Energy        =      -1.7105683457808138 [Eh]
	 Total Energy              =    -420.4422738128501464 [Eh]

	 ================> DF-SCS-MP2 Energies <==================
	-----------------------------------------------------------
	 SCS Same-Spin Scale       =       0.3333333333333333 [-]
	 SCS Opposite-Spin Scale   =       1.2000000000000000 [-]
	 SCS Same-Spin Energy      =      -0.1379221726443352 [Eh]
	 SCS Opposite-Spin Energy  =      -1.5561621934173699 [Eh]
	 SCS Correlation Energy    =      -1.6940843660617051 [Eh]
	 SCS Total Energy          =    -420.4257898331310344 [Eh]
	-----------------------------------------------------------

  Dipole Moment: [D]
     X:     3.3234      Y:     1.8537      Z:     0.7684     Total:     3.8822

*** Psi4 exiting successfully. Buy a developer a beer!
