                               Psi4 1.3.2 release

  ==> Input File <==

--------------------------------------------------------------------------
#psi4
#
memory 32 gb

molecule  {
0 1
  O        0.6578240    -1.4038190    -0.0084800
  O       -1.9400820     1.1224280     0.2266150
  O       -1.5482610    -1.4485240    -0.4053400
  C        0.3934500     1.4379940    -0.3488290
  C        1.7709580     0.7423380    -0.3578590
  C       -0.6401280     0.6164470     0.4297460
  C        1.8037889    -0.6296271     0.4281444
  C       -0.5671300    -0.8317210    -0.0237270
  H        0.4383430     2.4405150     0.0852910
  H        0.0022100     1.5496010    -1.3639530
  H        2.0656470     0.4995800    -1.3827820
  H        2.5523030     1.3896650     0.0543080
  H       -0.3983570     0.6446350     1.5043810
  H        2.6396080    -1.1506800     0.2905800
  H        1.6294670    -0.3677470     1.5171870
  H       -2.4737670     0.3533780    -0.0616490
units angstrom
no_reorient  #important for SAPT in psi4, default
symmetry c1  #important for SAPT in psi4, default
}

set PROPERTIES_ORIGIN ["COM"]
properties('MP2/aug-cc-pvtz', properties = ['dipole'])
--------------------------------------------------------------------------

    Molecular point group: c1
  Charge       = 0
  Multiplicity = 1
  Basis Set: AUG-CC-PVTZ
    Blend: AUG-CC-PVTZ
  Basis Set: (AUG-CC-PVTZ AUX)
    Blend: AUG-CC-PVTZ-JKFIT

    Orbital Energies [Eh]
    ---------------------

    Doubly Occupied:

       1A    -20.616218     2A    -20.566034     3A    -20.556584
       4A    -11.394465     5A    -11.315158     6A    -11.312553
       7A    -11.256567     8A    -11.250596     9A     -1.465325
      10A     -1.384164    11A     -1.357756    12A     -1.095901
      13A     -1.027216    14A     -0.920740    15A     -0.867089
      16A     -0.759512    17A     -0.743643    18A     -0.717743
      19A     -0.688004    20A     -0.650209    21A     -0.635874
      22A     -0.618430    23A     -0.590439    24A     -0.571115
      25A     -0.546505    26A     -0.535947    27A     -0.515364
      28A     -0.499276    29A     -0.466661    30A     -0.447361
      31A     -0.443254

  @DF-RHF Final Energy:  -418.73414183504792

   => Energetics <=

    Nuclear Repulsion Energy =            400.2969092040497117
    One-Electron Energy =               -1366.4306945205291868
    Two-Electron Energy =                 547.3996434814315535
    Total Energy =                       -418.7341418350479216
  Basis Set: (AUG-CC-PVTZ AUX)
    Blend: AUG-CC-PVTZ-RI
    Molecular point group: c1

    Geometry (in Angstrom), charge = 0, multiplicity = 1:

       Center              X                  Y                   Z               Mass
    ------------   -----------------  -----------------  -----------------  -----------------
         O            0.706396199919    -1.350015175030    -0.001446440884    15.994914619570
         O           -1.891509800081     1.176231824970     0.233648559116    15.994914619570
         O           -1.499688800081    -1.394720175030    -0.398306440884    15.994914619570
         C            0.442022199919     1.491797824970    -0.341795440884    12.000000000000
         C            1.819530199919     0.796141824970    -0.350825440884    12.000000000000
         C           -0.591555800081     0.670250824970     0.436779559116    12.000000000000
         C            1.852361099919    -0.575823275030     0.435177959116    12.000000000000
         C           -0.518557800081    -0.777917175030    -0.016693440884    12.000000000000
         H            0.486915199919     2.494318824970     0.092324559116     1.007825032230
         H            0.050782199919     1.603404824970    -1.356919440884     1.007825032230
         H            2.114219199919     0.553383824970    -1.375748440884     1.007825032230
         H            2.600875199919     1.443468824970     0.061341559116     1.007825032230
         H           -0.349784800081     0.698438824970     1.511414559116     1.007825032230
         H            2.688180199919    -1.096876175030     0.297613559116     1.007825032230
         H            1.678039199919    -0.313943175030     1.524220559116     1.007825032230
         H           -2.425194800081     0.407181824970    -0.054615440884     1.007825032230

  Basis Set: AUG-CC-PVTZ
    Blend: AUG-CC-PVTZ
  Basis Set: (AUG-CC-PVTZ AUX)
    Blend: AUG-CC-PVTZ-JKFIT
	 Reference Energy          =    -418.7341418350479216 [Eh]
	 Singles Energy            =      -0.0000000000000000 [Eh]
	 Same-Spin Energy          =      -0.4121070260694661 [Eh]
	 Opposite-Spin Energy      =      -1.2923338704930916 [Eh]
	 Correlation Energy        =      -1.7044408965625577 [Eh]
	 Total Energy              =    -420.4385827316104951 [Eh]

	 ================> DF-SCS-MP2 Energies <==================
	-----------------------------------------------------------
	 SCS Same-Spin Scale       =       0.3333333333333333 [-]
	 SCS Opposite-Spin Scale   =       1.2000000000000000 [-]
	 SCS Same-Spin Energy      =      -0.1373690086898220 [Eh]
	 SCS Opposite-Spin Energy  =      -1.5508006445917097 [Eh]
	 SCS Correlation Energy    =      -1.6881696532815318 [Eh]
	 SCS Total Energy          =    -420.4223114883294556 [Eh]
	-----------------------------------------------------------

  Dipole Moment: [D]
     X:     3.9188      Y:     1.5559      Z:     0.9621     Total:     4.3248

*** Psi4 exiting successfully. Buy a developer a beer!
