                               Psi4 1.3.2 release

  ==> Input File <==

--------------------------------------------------------------------------
#psi4
#
memory 32 gb

molecule  {
0 1
  O        0.6578240    -1.4038190    -0.0084800
  O       -1.9400820     1.1224280     0.2266150
  O       -1.5482610    -1.4485240    -0.4053400
  C        0.3934500     1.4379940    -0.3488290
  C        1.7709580     0.7423380    -0.3578590
  C       -0.7323451     0.6523407     0.4153361
  C        1.7409690    -0.5516630     0.4430470
  C       -0.5671300    -0.8317210    -0.0237270
  H        0.4383430     2.4405150     0.0852910
  H        0.0022100     1.5496010    -1.3639530
  H        2.0656470     0.4995800    -1.3827820
  H        2.5523030     1.3896650     0.0543080
  H       -0.3983570     0.6446350     1.5043810
  H        2.6396080    -1.1506800     0.2905800
  H        1.6294670    -0.3677470     1.5171870
  H       -2.4737670     0.3533780    -0.0616490
units angstrom
no_reorient  #important for SAPT in psi4, default
symmetry c1  #important for SAPT in psi4, default
}

set PROPERTIES_ORIGIN ["COM"]
properties('MP2/aug-cc-pvtz', properties = ['dipole'])
--------------------------------------------------------------------------

    Molecular point group: c1
  Charge       = 0
  Multiplicity = 1
  Basis Set: AUG-CC-PVTZ
    Blend: AUG-CC-PVTZ
  Basis Set: (AUG-CC-PVTZ AUX)
    Blend: AUG-CC-PVTZ-JKFIT

    Orbital Energies [Eh]
    ---------------------

    Doubly Occupied:

       1A    -20.619285     2A    -20.577290     3A    -20.553223
       4A    -11.389848     5A    -11.316919     6A    -11.312519
       7A    -11.253735     8A    -11.246979     9A     -1.467046
      10A     -1.422823    11A     -1.365141    12A     -1.095227
      13A     -1.016071    14A     -0.912063    15A     -0.862727
      16A     -0.779400    17A     -0.745387    18A     -0.710882
      19A     -0.690313    20A     -0.649045    21A     -0.634073
      22A     -0.621754    23A     -0.597596    24A     -0.584079
      25A     -0.556448    26A     -0.528051    27A     -0.516622
      28A     -0.499643    29A     -0.469175    30A     -0.436448
      31A     -0.433734

  @DF-RHF Final Energy:  -418.73702157058966

   => Energetics <=

    Nuclear Repulsion Energy =            401.4619930888475778
    One-Electron Energy =               -1368.6709404282453306
    Two-Electron Energy =                 548.4719257688080916
    Total Energy =                       -418.7370215705897181
  Basis Set: (AUG-CC-PVTZ AUX)
    Blend: AUG-CC-PVTZ-RI
    Molecular point group: c1

    Geometry (in Angstrom), charge = 0, multiplicity = 1:

       Center              X                  Y                   Z               Mass
    ------------   -----------------  -----------------  -----------------  -----------------
         O            0.722427967075    -1.361788762873    -0.001497389055    15.994914619570
         O           -1.875478032925     1.164458237127     0.233597610945    15.994914619570
         O           -1.483657032925    -1.406493762873    -0.398357389055    15.994914619570
         C            0.458053967075     1.480024237127    -0.341846389055    12.000000000000
         C            1.835561967075     0.784368237127    -0.350876389055    12.000000000000
         C           -0.667741132925     0.694370937127     0.422318710945    12.000000000000
         C            1.805572967075    -0.509632762873     0.450029610945    12.000000000000
         C           -0.502526032925    -0.789690762873    -0.016744389055    12.000000000000
         H            0.502946967075     2.482545237127     0.092273610945     1.007825032230
         H            0.066813967075     1.591631237127    -1.356970389055     1.007825032230
         H            2.130250967075     0.541610237127    -1.375799389055     1.007825032230
         H            2.616906967075     1.431695237127     0.061290610945     1.007825032230
         H           -0.333753032925     0.686665237127     1.511363610945     1.007825032230
         H            2.704211967075    -1.108649762873     0.297562610945     1.007825032230
         H            1.694070967075    -0.325716762873     1.524169610945     1.007825032230
         H           -2.409163032925     0.395408237127    -0.054666389055     1.007825032230

  Basis Set: AUG-CC-PVTZ
    Blend: AUG-CC-PVTZ
  Basis Set: (AUG-CC-PVTZ AUX)
    Blend: AUG-CC-PVTZ-JKFIT
	 Reference Energy          =    -418.7370215705896612 [Eh]
	 Singles Energy            =      -0.0000000000000000 [Eh]
	 Same-Spin Energy          =      -0.4125882983798707 [Eh]
	 Opposite-Spin Energy      =      -1.2913366355361688 [Eh]
	 Correlation Energy        =      -1.7039249339160394 [Eh]
	 Total Energy              =    -420.4409465045056891 [Eh]

	 ================> DF-SCS-MP2 Energies <==================
	-----------------------------------------------------------
	 SCS Same-Spin Scale       =       0.3333333333333333 [-]
	 SCS Opposite-Spin Scale   =       1.2000000000000000 [-]
	 SCS Same-Spin Energy      =      -0.1375294327932902 [Eh]
	 SCS Opposite-Spin Energy  =      -1.5496039626434026 [Eh]
	 SCS Correlation Energy    =      -1.6871333954366929 [Eh]
	 SCS Total Energy          =    -420.4241549660263786 [Eh]
	-----------------------------------------------------------

  Dipole Moment: [D]
     X:     3.4969      Y:     1.7420      Z:     0.9386     Total:     4.0179

*** Psi4 exiting successfully. Buy a developer a beer!
