                               Psi4 1.4a3.dev225

  ==> Input File <==

--------------------------------------------------------------------------
#psi4
#
memory 32 gb

molecule  {
0 1
  O        0.6578240    -1.4038190    -0.0084800
  O       -1.9400820     1.1224280     0.2266150
  O       -1.5482610    -1.4485240    -0.4053400
  C        0.3934500     1.4379940    -0.3488290
  C        1.7709580     0.7423380    -0.3578590
  C       -0.6216846     0.6092683     0.4326280
  C        1.7409690    -0.5516630     0.4430470
  C       -0.5671300    -0.8317210    -0.0237270
  H        0.4383430     2.4405150     0.0852910
  H        0.0022100     1.5496010    -1.3639530
  H        2.0656470     0.4995800    -1.3827820
  H        2.5523030     1.3896650     0.0543080
  H       -0.3983570     0.6446350     1.5043810
  H        2.6396080    -1.1506800     0.2905800
  H        1.6294670    -0.3677470     1.5171870
  H       -2.4737670     0.3533780    -0.0616490
units angstrom
no_reorient  #important for SAPT in psi4, default
symmetry c1  #important for SAPT in psi4, default
}

set PROPERTIES_ORIGIN ["COM"]
properties('MP2/aug-cc-pvtz', properties = ['dipole'])
--------------------------------------------------------------------------

    Molecular point group: c1
  Charge       = 0
  Multiplicity = 1
  Basis Set: AUG-CC-PVTZ
    Blend: AUG-CC-PVTZ
  Basis Set: (AUG-CC-PVTZ AUX)
    Blend: AUG-CC-PVTZ-JKFIT

    Orbital Energies [Eh]
    ---------------------

    Doubly Occupied:

       1A    -20.618968     2A    -20.564625     3A    -20.557170
       4A    -11.393739     5A    -11.314628     6A    -11.312837
       7A    -11.254871     8A    -11.250364     9A     -1.468312
      10A     -1.381420    11A     -1.354391    12A     -1.105234
      13A     -1.026971    14A     -0.919850    15A     -0.868675
      16A     -0.759153    17A     -0.745420    18A     -0.709904
      19A     -0.691871    20A     -0.640622    21A     -0.631017
      22A     -0.619423    23A     -0.593703    24A     -0.569537
      25A     -0.552994    26A     -0.532388    27A     -0.516189
      28A     -0.501248    29A     -0.470080    30A     -0.452320
      31A     -0.447018

  @DF-RHF Final Energy:  -418.74518246974418

   => Energetics <=

    Nuclear Repulsion Energy =            401.6491196110766850
    One-Electron Energy =               -1369.1387215467748319
    Two-Electron Energy =                 548.7444194659540244
    Total Energy =                       -418.7451824697441225
  Basis Set: (AUG-CC-PVTZ AUX)
    Blend: AUG-CC-PVTZ-RI
    Molecular point group: c1

    Geometry (in Angstrom), charge = 0, multiplicity = 1:

       Center              X                  Y                   Z               Mass
    ------------   -----------------  -----------------  -----------------  -----------------
         O            0.710984999465    -1.357334815186    -0.003285476508    15.994914619570
         O           -1.886921000535     1.168912184814     0.231809523492    15.994914619570
         O           -1.495100000535    -1.402039815186    -0.400145476508    15.994914619570
         C            0.446610999465     1.484478184814    -0.343634476508    12.000000000000
         C            1.824118999465     0.788822184814    -0.352664476508    12.000000000000
         C           -0.568523600535     0.655752484814     0.437822523492    12.000000000000
         C            1.794129999465    -0.505178815186     0.448241523492    12.000000000000
         C           -0.513969000535    -0.785236815186    -0.018532476508    12.000000000000
         H            0.491503999465     2.486999184814     0.090485523492     1.007825032230
         H            0.055370999465     1.596085184814    -1.358758476508     1.007825032230
         H            2.118807999465     0.546064184814    -1.377587476508     1.007825032230
         H            2.605463999465     1.436149184814     0.059502523492     1.007825032230
         H           -0.345196000535     0.691119184814     1.509575523492     1.007825032230
         H            2.692768999465    -1.104195815186     0.295774523492     1.007825032230
         H            1.682627999465    -0.321262815186     1.522381523492     1.007825032230
         H           -2.420606000535     0.399862184814    -0.056454476508     1.007825032230

  Basis Set: AUG-CC-PVTZ
    Blend: AUG-CC-PVTZ
  Basis Set: (AUG-CC-PVTZ AUX)
    Blend: AUG-CC-PVTZ-JKFIT
	 Reference Energy          =    -418.7451824697441793 [Eh]
	 Singles Energy            =      -0.0000000000000000 [Eh]
	 Same-Spin Energy          =      -0.4126887267840077 [Eh]
	 Opposite-Spin Energy      =      -1.2931272538637355 [Eh]
	 Correlation Energy        =      -1.7058159806477433 [Eh]
	 Total Energy              =    -420.4509984503919213 [Eh]

	 ================> DF-SCS-MP2 Energies <==================
	-----------------------------------------------------------
	 SCS Same-Spin Scale       =       0.3333333333333333 [-]
	 SCS Opposite-Spin Scale   =       1.2000000000000000 [-]
	 SCS Same-Spin Energy      =      -0.1375629089280025 [Eh]
	 SCS Opposite-Spin Energy  =      -1.5517527046364825 [Eh]
	 SCS Correlation Energy    =      -1.6893156135644851 [Eh]
	 SCS Total Energy          =    -420.4344980833086538 [Eh]
	-----------------------------------------------------------

  Dipole Moment: [D]
     X:     3.9199      Y:     1.6284      Z:     0.9885     Total:     4.3582

*** Psi4 exiting successfully. Buy a developer a beer!
