                               Psi4 1.3.2 release

  ==> Input File <==

--------------------------------------------------------------------------
#psi4
#
memory 32 gb

molecule  {
0 1
  O        0.6578240    -1.4038190    -0.0084800
  O       -1.9400820     1.1224280     0.2266150
  O       -1.5482610    -1.4485240    -0.4053400
  C        0.3934500     1.4379940    -0.3488290
  C        1.7709580     0.7423380    -0.3578590
  C       -0.6401280     0.6164470     0.4297460
  C        1.7409690    -0.5516630     0.4430470
  C       -0.4063047    -0.7306157     0.0388264
  H        0.4383430     2.4405150     0.0852910
  H        0.0022100     1.5496010    -1.3639530
  H        2.0656470     0.4995800    -1.3827820
  H        2.5523030     1.3896650     0.0543080
  H       -0.3983570     0.6446350     1.5043810
  H        2.6396080    -1.1506800     0.2905800
  H        1.6294670    -0.3677470     1.5171870
  H       -2.4737670     0.3533780    -0.0616490
units angstrom
no_reorient  #important for SAPT in psi4, default
symmetry c1  #important for SAPT in psi4, default
}

set PROPERTIES_ORIGIN ["COM"]
properties('MP2/aug-cc-pvtz', properties = ['dipole'])
--------------------------------------------------------------------------

    Molecular point group: c1
  Charge       = 0
  Multiplicity = 1
  Basis Set: AUG-CC-PVTZ
    Blend: AUG-CC-PVTZ
  Basis Set: (AUG-CC-PVTZ AUX)
    Blend: AUG-CC-PVTZ-JKFIT

    Orbital Energies [Eh]
    ---------------------

    Doubly Occupied:

       1A    -20.658982     2A    -20.570040     3A    -20.516704
       4A    -11.403187     5A    -11.330550     6A    -11.319969
       7A    -11.267871     8A    -11.259789     9A     -1.521632
      10A     -1.380573    11A     -1.250119    12A     -1.127679
      13A     -1.049668    14A     -0.949644    15A     -0.886925
      16A     -0.776787    17A     -0.767645    18A     -0.721420
      19A     -0.707392    20A     -0.658699    21A     -0.630931
      22A     -0.612747    23A     -0.589998    24A     -0.577564
      25A     -0.555502    26A     -0.529325    27A     -0.522345
      28A     -0.482762    29A     -0.465590    30A     -0.426786
      31A     -0.411333

  @DF-RHF Final Energy:  -418.67367382541261

   => Energetics <=

    Nuclear Repulsion Energy =            402.7559434820740876
    One-Electron Energy =               -1370.9989162115950876
    Two-Electron Energy =                 549.5692989041083365
    Total Energy =                       -418.6736738254126067
  Basis Set: (AUG-CC-PVTZ AUX)
    Blend: AUG-CC-PVTZ-RI
    Molecular point group: c1

    Geometry (in Angstrom), charge = 0, multiplicity = 1:

       Center              X                  Y                   Z               Mass
    ------------   -----------------  -----------------  -----------------  -----------------
         O            0.696261846488    -1.368532038266    -0.009455861582    15.994914619570
         O           -1.901644153512     1.157714961734     0.225639138418    15.994914619570
         O           -1.509823153512    -1.413237038266    -0.406315861582    15.994914619570
         C            0.431887846488     1.473280961734    -0.349804861582    12.000000000000
         C            1.809395846488     0.777624961734    -0.358834861582    12.000000000000
         C           -0.601690153512     0.651733961734     0.428770138418    12.000000000000
         C            1.779406846488    -0.516376038266     0.442071138418    12.000000000000
         C           -0.367866853512    -0.695328738266     0.037850538418    12.000000000000
         H            0.476780846488     2.475801961734     0.084315138418     1.007825032230
         H            0.040647846488     1.584887961734    -1.364928861582     1.007825032230
         H            2.104084846488     0.534866961734    -1.383757861582     1.007825032230
         H            2.590740846488     1.424951961734     0.053332138418     1.007825032230
         H           -0.359919153512     0.679921961734     1.503405138418     1.007825032230
         H            2.678045846488    -1.115393038266     0.289604138418     1.007825032230
         H            1.667904846488    -0.332460038266     1.516211138418     1.007825032230
         H           -2.435329153512     0.388664961734    -0.062624861582     1.007825032230

  Basis Set: AUG-CC-PVTZ
    Blend: AUG-CC-PVTZ
  Basis Set: (AUG-CC-PVTZ AUX)
    Blend: AUG-CC-PVTZ-JKFIT
	 Reference Energy          =    -418.6736738254126067 [Eh]
	 Singles Energy            =      -0.0000000000000000 [Eh]
	 Same-Spin Energy          =      -0.4187075896876564 [Eh]
	 Opposite-Spin Energy      =      -1.3035277392339686 [Eh]
	 Correlation Energy        =      -1.7222353289216250 [Eh]
	 Total Energy              =    -420.3959091543342197 [Eh]

	 ================> DF-SCS-MP2 Energies <==================
	-----------------------------------------------------------
	 SCS Same-Spin Scale       =       0.3333333333333333 [-]
	 SCS Opposite-Spin Scale   =       1.2000000000000000 [-]
	 SCS Same-Spin Energy      =      -0.1395691965625521 [Eh]
	 SCS Opposite-Spin Energy  =      -1.5642332870807623 [Eh]
	 SCS Correlation Energy    =      -1.7038024836433143 [Eh]
	 SCS Total Energy          =    -420.3774763090559077 [Eh]
	-----------------------------------------------------------

  Dipole Moment: [D]
     X:     5.1737      Y:     2.1828      Z:     1.2959     Total:     5.7629

*** Psi4 exiting successfully. Buy a developer a beer!
