                               Psi4 1.3.2 release

  ==> Input File <==

--------------------------------------------------------------------------
#psi4
#
memory 32 gb

molecule  {
0 1
  O        0.6578240    -1.4038190    -0.0084800
  O       -1.9400820     1.1224280     0.2266150
  O       -1.4975046    -1.5158034    -0.4175885
  C        0.3934500     1.4379940    -0.3488290
  C        1.7709580     0.7423380    -0.3578590
  C       -0.6401280     0.6164470     0.4297460
  C        1.7409690    -0.5516630     0.4430470
  C       -0.5671300    -0.8317210    -0.0237270
  H        0.4383430     2.4405150     0.0852910
  H        0.0022100     1.5496010    -1.3639530
  H        2.0656470     0.4995800    -1.3827820
  H        2.5523030     1.3896650     0.0543080
  H       -0.3983570     0.6446350     1.5043810
  H        2.6396080    -1.1506800     0.2905800
  H        1.6294670    -0.3677470     1.5171870
  H       -2.4737670     0.3533780    -0.0616490
units angstrom
no_reorient  #important for SAPT in psi4, default
symmetry c1  #important for SAPT in psi4, default
}

set PROPERTIES_ORIGIN ["COM"]
properties('MP2/aug-cc-pvtz', properties = ['dipole'])
--------------------------------------------------------------------------

    Molecular point group: c1
  Charge       = 0
  Multiplicity = 1
  Basis Set: AUG-CC-PVTZ
    Blend: AUG-CC-PVTZ
  Basis Set: (AUG-CC-PVTZ AUX)
    Blend: AUG-CC-PVTZ-JKFIT

    Orbital Energies [Eh]
    ---------------------

    Doubly Occupied:

       1A    -20.614479     2A    -20.571053     3A    -20.554318
       4A    -11.391629     5A    -11.317476     6A    -11.311956
       7A    -11.254483     8A    -11.251469     9A     -1.467548
      10A     -1.383842    11A     -1.357982    12A     -1.104076
      13A     -1.025447    14A     -0.919266    15A     -0.867605
      16A     -0.763238    17A     -0.743857    18A     -0.709441
      19A     -0.690241    20A     -0.642371    21A     -0.628993
      22A     -0.620177    23A     -0.592555    24A     -0.574602
      25A     -0.554604    26A     -0.532844    27A     -0.516529
      28A     -0.499033    29A     -0.469839    30A     -0.450107
      31A     -0.446697

  @DF-RHF Final Energy:  -418.74468627783921

   => Energetics <=

    Nuclear Repulsion Energy =            401.2833029301988859
    One-Electron Energy =               -1368.4004619057645868
    Two-Electron Energy =                 548.3724726977263799
    Total Energy =                       -418.7446862778392642
  Basis Set: (AUG-CC-PVTZ AUX)
    Blend: AUG-CC-PVTZ-RI
    Molecular point group: c1

    Geometry (in Angstrom), charge = 0, multiplicity = 1:

       Center              X                  Y                   Z               Mass
    ------------   -----------------  -----------------  -----------------  -----------------
         O            0.705896356645    -1.348803953353    -0.001299237931    15.994914619570
         O           -1.892009643355     1.177443046647     0.233795762069    15.994914619570
         O           -1.449432243355    -1.460788353353    -0.410407737931    15.994914619570
         C            0.441522356645     1.493009046647    -0.341648237931    12.000000000000
         C            1.819030356645     0.797353046647    -0.350678237931    12.000000000000
         C           -0.592055643355     0.671462046647     0.436926762069    12.000000000000
         C            1.789041356645    -0.496647953353     0.450227762069    12.000000000000
         C           -0.519057643355    -0.776705953353    -0.016546237931    12.000000000000
         H            0.486415356645     2.495530046647     0.092471762069     1.007825032230
         H            0.050282356645     1.604616046647    -1.356772237931     1.007825032230
         H            2.113719356645     0.554595046647    -1.375601237931     1.007825032230
         H            2.600375356645     1.444680046647     0.061488762069     1.007825032230
         H           -0.350284643355     0.699650046647     1.511561762069     1.007825032230
         H            2.687680356645    -1.095664953353     0.297760762069     1.007825032230
         H            1.677539356645    -0.312731953353     1.524367762069     1.007825032230
         H           -2.425694643355     0.408393046647    -0.054468237931     1.007825032230

  Basis Set: AUG-CC-PVTZ
    Blend: AUG-CC-PVTZ
  Basis Set: (AUG-CC-PVTZ AUX)
    Blend: AUG-CC-PVTZ-JKFIT
	 Reference Energy          =    -418.7446862778392074 [Eh]
	 Singles Energy            =      -0.0000000000000000 [Eh]
	 Same-Spin Energy          =      -0.4125069200846785 [Eh]
	 Opposite-Spin Energy      =      -1.2928119639684381 [Eh]
	 Correlation Energy        =      -1.7053188840531166 [Eh]
	 Total Energy              =    -420.4500051618923067 [Eh]

	 ================> DF-SCS-MP2 Energies <==================
	-----------------------------------------------------------
	 SCS Same-Spin Scale       =       0.3333333333333333 [-]
	 SCS Opposite-Spin Scale   =       1.2000000000000000 [-]
	 SCS Same-Spin Energy      =      -0.1375023066948928 [Eh]
	 SCS Opposite-Spin Energy  =      -1.5513743567621257 [Eh]
	 SCS Correlation Energy    =      -1.6888766634570185 [Eh]
	 SCS Total Energy          =    -420.4335629412962021 [Eh]
	-----------------------------------------------------------

  Dipole Moment: [D]
     X:     3.7231      Y:     1.8422      Z:     1.0143     Total:     4.2760

*** Psi4 exiting successfully. Buy a developer a beer!
