                               Psi4 1.3.2 release

  ==> Input File <==

--------------------------------------------------------------------------
#psi4
#
memory 32 gb

molecule  {
0 1
  O        0.6578240    -1.4038190    -0.0084800
  O       -1.9400820     1.1224280     0.2266150
  O       -1.5482610    -1.4485240    -0.4053400
  C        0.3934500     1.4379940    -0.3488290
  C        1.7709580     0.7423380    -0.3578590
  C       -0.6401280     0.6164470     0.4297460
  C        1.8156553    -0.4929041     0.4741812
  C       -0.5671300    -0.8317210    -0.0237270
  H        0.4383430     2.4405150     0.0852910
  H        0.0022100     1.5496010    -1.3639530
  H        2.0656470     0.4995800    -1.3827820
  H        2.5523030     1.3896650     0.0543080
  H       -0.3983570     0.6446350     1.5043810
  H        2.6396080    -1.1506800     0.2905800
  H        1.6294670    -0.3677470     1.5171870
  H       -2.4737670     0.3533780    -0.0616490
units angstrom
no_reorient  #important for SAPT in psi4, default
symmetry c1  #important for SAPT in psi4, default
}

set PROPERTIES_ORIGIN ["COM"]
properties('MP2/aug-cc-pvtz', properties = ['dipole'])
--------------------------------------------------------------------------

    Molecular point group: c1
  Charge       = 0
  Multiplicity = 1
  Basis Set: AUG-CC-PVTZ
    Blend: AUG-CC-PVTZ
  Basis Set: (AUG-CC-PVTZ AUX)
    Blend: AUG-CC-PVTZ-JKFIT

    Orbital Energies [Eh]
    ---------------------

    Doubly Occupied:

       1A    -20.606860     2A    -20.564693     3A    -20.549859
       4A    -11.385944     5A    -11.318976     6A    -11.311131
       7A    -11.257790     8A    -11.251723     9A     -1.448485
      10A     -1.375728    11A     -1.348478    12A     -1.109365
      13A     -1.027744    14A     -0.919272    15A     -0.861150
      16A     -0.760126    17A     -0.737782    18A     -0.707987
      19A     -0.683332    20A     -0.636169    21A     -0.629335
      22A     -0.621930    23A     -0.585342    24A     -0.573410
      25A     -0.559868    26A     -0.532239    27A     -0.523457
      28A     -0.491996    29A     -0.466608    30A     -0.450923
      31A     -0.442800

  @DF-RHF Final Energy:  -418.73724311891579

   => Energetics <=

    Nuclear Repulsion Energy =            400.2488159698361869
    One-Electron Energy =               -1366.4911082765001993
    Two-Electron Energy =                 547.5050491877482273
    Total Energy =                       -418.7372431189157851
  Basis Set: (AUG-CC-PVTZ AUX)
    Blend: AUG-CC-PVTZ-RI
    Molecular point group: c1

    Geometry (in Angstrom), charge = 0, multiplicity = 1:

       Center              X                  Y                   Z               Mass
    ------------   -----------------  -----------------  -----------------  -----------------
         O            0.705169142108    -1.364153163387    -0.006206925531    15.994914619570
         O           -1.892736857892     1.162093836613     0.228888074469    15.994914619570
         O           -1.500915857892    -1.408858163387    -0.403066925531    15.994914619570
         C            0.440795142108     1.477659836613    -0.346555925531    12.000000000000
         C            1.818303142108     0.782003836613    -0.355585925531    12.000000000000
         C           -0.592782857892     0.656112836613     0.432019074469    12.000000000000
         C            1.863000442108    -0.453238263387     0.476454274469    12.000000000000
         C           -0.519784857892    -0.792055163387    -0.021453925531    12.000000000000
         H            0.485688142108     2.480180836613     0.087564074469     1.007825032230
         H            0.049555142108     1.589266836613    -1.361679925531     1.007825032230
         H            2.112992142108     0.539245836613    -1.380508925531     1.007825032230
         H            2.599648142108     1.429330836613     0.056581074469     1.007825032230
         H           -0.351011857892     0.684300836613     1.506654074469     1.007825032230
         H            2.686953142108    -1.111014163387     0.292853074469     1.007825032230
         H            1.676812142108    -0.328081163387     1.519460074469     1.007825032230
         H           -2.426421857892     0.393043836613    -0.059375925531     1.007825032230

  Basis Set: AUG-CC-PVTZ
    Blend: AUG-CC-PVTZ
  Basis Set: (AUG-CC-PVTZ AUX)
    Blend: AUG-CC-PVTZ-JKFIT
	 Reference Energy          =    -418.7372431189157851 [Eh]
	 Singles Energy            =      -0.0000000000000000 [Eh]
	 Same-Spin Energy          =      -0.4130612773849168 [Eh]
	 Opposite-Spin Energy      =      -1.2942828582391401 [Eh]
	 Correlation Energy        =      -1.7073441356240568 [Eh]
	 Total Energy              =    -420.4445872545398402 [Eh]

	 ================> DF-SCS-MP2 Energies <==================
	-----------------------------------------------------------
	 SCS Same-Spin Scale       =       0.3333333333333333 [-]
	 SCS Opposite-Spin Scale   =       1.2000000000000000 [-]
	 SCS Same-Spin Energy      =      -0.1376870924616389 [Eh]
	 SCS Opposite-Spin Energy  =      -1.5531394298869681 [Eh]
	 SCS Correlation Energy    =      -1.6908265223486070 [Eh]
	 SCS Total Energy          =    -420.4280696412644147 [Eh]
	-----------------------------------------------------------

  Dipole Moment: [D]
     X:     4.1686      Y:     1.8204      Z:     1.0655     Total:     4.6719

*** Psi4 exiting successfully. Buy a developer a beer!
