                               Psi4 1.4a3.dev225

  ==> Input File <==

--------------------------------------------------------------------------
#psi4
#
memory 32 gb

molecule  {
0 1
  O        0.6578240    -1.4038190    -0.0084800
  O       -1.9400820     1.1224280     0.2266150
  O       -1.5482610    -1.4485240    -0.4053400
  C        0.3934500     1.4379940    -0.3488290
  C        1.7709580     0.7423380    -0.3578590
  C       -0.6401280     0.6164470     0.4297460
  C        1.7409690    -0.5516630     0.4430470
  C       -0.5680910    -0.8126569    -0.0177574
  H        0.4383430     2.4405150     0.0852910
  H        0.0022100     1.5496010    -1.3639530
  H        2.0656470     0.4995800    -1.3827820
  H        2.5523030     1.3896650     0.0543080
  H       -0.3983570     0.6446350     1.5043810
  H        2.6396080    -1.1506800     0.2905800
  H        1.6294670    -0.3677470     1.5171870
  H       -2.4737670     0.3533780    -0.0616490
units angstrom
no_reorient  #important for SAPT in psi4, default
symmetry c1  #important for SAPT in psi4, default
}

set PROPERTIES_ORIGIN ["COM"]
properties('MP2/aug-cc-pvtz', properties = ['dipole'])
--------------------------------------------------------------------------

    Molecular point group: c1
  Charge       = 0
  Multiplicity = 1
  Basis Set: AUG-CC-PVTZ
    Blend: AUG-CC-PVTZ
  Basis Set: (AUG-CC-PVTZ AUX)
    Blend: AUG-CC-PVTZ-JKFIT

    Orbital Energies [Eh]
    ---------------------

    Doubly Occupied:

       1A    -20.618982     2A    -20.567707     3A    -20.556330
       4A    -11.394619     5A    -11.314210     6A    -11.313572
       7A    -11.254989     8A    -11.251169     9A     -1.464202
      10A     -1.384189    11A     -1.354434    12A     -1.104714
      13A     -1.027493    14A     -0.921032    15A     -0.868263
      16A     -0.762495    17A     -0.744709    18A     -0.710177
      19A     -0.691392    20A     -0.640946    21A     -0.628919
      22A     -0.620693    23A     -0.592052    24A     -0.573049
      25A     -0.552780    26A     -0.532380    27A     -0.516819
      28A     -0.500026    29A     -0.469803    30A     -0.450925
      31A     -0.447628

  @DF-RHF Final Energy:  -418.74372571168868

   => Energetics <=

    Nuclear Repulsion Energy =            401.6517382604456543
    One-Electron Energy =               -1369.1295343448823587
    Two-Electron Energy =                 548.7340703727480786
    Total Energy =                       -418.7437257116886258
  Basis Set: (AUG-CC-PVTZ AUX)
    Blend: AUG-CC-PVTZ-RI
    Molecular point group: c1

    Geometry (in Angstrom), charge = 0, multiplicity = 1:

       Center              X                  Y                   Z               Mass
    ------------   -----------------  -----------------  -----------------  -----------------
         O            0.712991532245    -1.360048480047    -0.003604753096    15.994914619570
         O           -1.884914467755     1.166198519953     0.231490246904    15.994914619570
         O           -1.493093467755    -1.404753480047    -0.400464753096    15.994914619570
         C            0.448617532245     1.481764519953    -0.343953753096    12.000000000000
         C            1.826125532245     0.786108519953    -0.352983753096    12.000000000000
         C           -0.584960467755     0.660217519953     0.434621246904    12.000000000000
         C            1.796136532245    -0.507892480047     0.447922246904    12.000000000000
         C           -0.512923467755    -0.768886380047    -0.012882153096    12.000000000000
         H            0.493510532245     2.484285519953     0.090166246904     1.007825032230
         H            0.057377532245     1.593371519953    -1.359077753096     1.007825032230
         H            2.120814532245     0.543350519953    -1.377906753096     1.007825032230
         H            2.607470532245     1.433435519953     0.059183246904     1.007825032230
         H           -0.343189467755     0.688405519953     1.509256246904     1.007825032230
         H            2.694775532245    -1.106909480047     0.295455246904     1.007825032230
         H            1.684634532245    -0.323976480047     1.522062246904     1.007825032230
         H           -2.418599467755     0.397148519953    -0.056773753096     1.007825032230

  Basis Set: AUG-CC-PVTZ
    Blend: AUG-CC-PVTZ
  Basis Set: (AUG-CC-PVTZ AUX)
    Blend: AUG-CC-PVTZ-JKFIT
	 Reference Energy          =    -418.7437257116886826 [Eh]
	 Singles Energy            =      -0.0000000000000000 [Eh]
	 Same-Spin Energy          =      -0.4131102619403300 [Eh]
	 Opposite-Spin Energy      =      -1.2937492419750596 [Eh]
	 Correlation Energy        =      -1.7068595039153895 [Eh]
	 Total Energy              =    -420.4505852156040646 [Eh]

	 ================> DF-SCS-MP2 Energies <==================
	-----------------------------------------------------------
	 SCS Same-Spin Scale       =       0.3333333333333333 [-]
	 SCS Opposite-Spin Scale   =       1.2000000000000000 [-]
	 SCS Same-Spin Energy      =      -0.1377034206467767 [Eh]
	 SCS Opposite-Spin Energy  =      -1.5524990903700715 [Eh]
	 SCS Correlation Energy    =      -1.6902025110168482 [Eh]
	 SCS Total Energy          =    -420.4339282227055037 [Eh]
	-----------------------------------------------------------

  Dipole Moment: [D]
     X:     3.8465      Y:     1.7302      Z:     1.0023     Total:     4.3352

*** Psi4 exiting successfully. Buy a developer a beer!
