                               Psi4 1.4a3.dev225

  ==> Input File <==

--------------------------------------------------------------------------
#psi4
#
memory 32 gb

molecule  {
0 1
  O        0.6578240    -1.4038190    -0.0084800
  O       -1.9400820     1.1224280     0.2266150
  O       -1.5482610    -1.4485240    -0.4053400
  C        0.3934500     1.4379940    -0.3488290
  C        1.7709580     0.7423380    -0.3578590
  C       -0.6401280     0.6164470     0.4297460
  C        1.7409690    -0.5516630     0.4430470
  C       -0.5695324    -0.7840608    -0.0088029
  H        0.4383430     2.4405150     0.0852910
  H        0.0022100     1.5496010    -1.3639530
  H        2.0656470     0.4995800    -1.3827820
  H        2.5523030     1.3896650     0.0543080
  H       -0.3983570     0.6446350     1.5043810
  H        2.6396080    -1.1506800     0.2905800
  H        1.6294670    -0.3677470     1.5171870
  H       -2.4737670     0.3533780    -0.0616490
units angstrom
no_reorient  #important for SAPT in psi4, default
symmetry c1  #important for SAPT in psi4, default
}

set PROPERTIES_ORIGIN ["COM"]
properties('MP2/aug-cc-pvtz', properties = ['dipole'])
--------------------------------------------------------------------------

    Molecular point group: c1
  Charge       = 0
  Multiplicity = 1
  Basis Set: AUG-CC-PVTZ
    Blend: AUG-CC-PVTZ
  Basis Set: (AUG-CC-PVTZ AUX)
    Blend: AUG-CC-PVTZ-JKFIT

    Orbital Energies [Eh]
    ---------------------

    Doubly Occupied:

       1A    -20.618907     2A    -20.569356     3A    -20.556089
       4A    -11.396979     5A    -11.315444     6A    -11.312519
       7A    -11.255452     8A    -11.253205     9A     -1.458741
      10A     -1.384241    11A     -1.347034    12A     -1.106953
      13A     -1.031174    14A     -0.924972    15A     -0.868746
      16A     -0.764685    17A     -0.743795    18A     -0.710203
      19A     -0.691308    20A     -0.640051    21A     -0.625259
      22A     -0.621609    23A     -0.591015    24A     -0.573838
      25A     -0.550783    26A     -0.532975    27A     -0.517170
      28A     -0.498684    29A     -0.469917    30A     -0.453103
      31A     -0.448196

  @DF-RHF Final Energy:  -418.73803255232934

   => Energetics <=

    Nuclear Repulsion Energy =            401.7303012547981780
    One-Electron Energy =               -1369.2718592843277747
    Two-Electron Energy =                 548.8035254772001963
    Total Energy =                       -418.7380325523294005
  Basis Set: (AUG-CC-PVTZ AUX)
    Blend: AUG-CC-PVTZ-RI
    Molecular point group: c1

    Geometry (in Angstrom), charge = 0, multiplicity = 1:

       Center              X                  Y                   Z               Mass
    ------------   -----------------  -----------------  -----------------  -----------------
         O            0.713140581757    -1.363005490418    -0.004530702766    15.994914619570
         O           -1.884765418243     1.163241509582     0.230564297234    15.994914619570
         O           -1.492944418243    -1.407710490418    -0.401390702766    15.994914619570
         C            0.448766581757     1.478807509582    -0.344879702766    12.000000000000
         C            1.826274581757     0.783151509582    -0.353909702766    12.000000000000
         C           -0.584811418243     0.657260509582     0.433695297234    12.000000000000
         C            1.796285581757    -0.510849490418     0.446996297234    12.000000000000
         C           -0.514215818243    -0.743247290418    -0.004853602766    12.000000000000
         H            0.493659581757     2.481328509582     0.089240297234     1.007825032230
         H            0.057526581757     1.590414509582    -1.360003702766     1.007825032230
         H            2.120963581757     0.540393509582    -1.378832702766     1.007825032230
         H            2.607619581757     1.430478509582     0.058257297234     1.007825032230
         H           -0.343040418243     0.685448509582     1.508330297234     1.007825032230
         H            2.694924581757    -1.109866490418     0.294529297234     1.007825032230
         H            1.684783581757    -0.326933490418     1.521136297234     1.007825032230
         H           -2.418450418243     0.394191509582    -0.057699702766     1.007825032230

  Basis Set: AUG-CC-PVTZ
    Blend: AUG-CC-PVTZ
  Basis Set: (AUG-CC-PVTZ AUX)
    Blend: AUG-CC-PVTZ-JKFIT
	 Reference Energy          =    -418.7380325523293436 [Eh]
	 Singles Energy            =      -0.0000000000000000 [Eh]
	 Same-Spin Energy          =      -0.4140041236277722 [Eh]
	 Opposite-Spin Energy      =      -1.2955474780459784 [Eh]
	 Correlation Energy        =      -1.7095516016737506 [Eh]
	 Total Energy              =    -420.4475841540030956 [Eh]

	 ================> DF-SCS-MP2 Energies <==================
	-----------------------------------------------------------
	 SCS Same-Spin Scale       =       0.3333333333333333 [-]
	 SCS Opposite-Spin Scale   =       1.2000000000000000 [-]
	 SCS Same-Spin Energy      =      -0.1380013745425907 [Eh]
	 SCS Opposite-Spin Energy  =      -1.5546569736551741 [Eh]
	 SCS Correlation Energy    =      -1.6926583481977648 [Eh]
	 SCS Total Energy          =    -420.4306909005271109 [Eh]
	-----------------------------------------------------------

  Dipole Moment: [D]
     X:     3.8301      Y:     1.8539      Z:     1.0300     Total:     4.3780

*** Psi4 exiting successfully. Buy a developer a beer!
