                               Psi4 1.3.2 release

  ==> Input File <==

--------------------------------------------------------------------------
#psi4
#
memory 32 gb

molecule  {
0 1
  O        0.6578240    -1.4038190    -0.0084800
  O       -1.9400820     1.1224280     0.2266150
  O       -1.5482610    -1.4485240    -0.4053400
  C        0.3934500     1.4379940    -0.3488290
  C        1.7709580     0.7423380    -0.3578590
  C       -0.6741056     0.5280292     0.4031179
  C        1.7409690    -0.5516630     0.4430470
  C       -0.5671300    -0.8317210    -0.0237270
  H        0.4383430     2.4405150     0.0852910
  H        0.0022100     1.5496010    -1.3639530
  H        2.0656470     0.4995800    -1.3827820
  H        2.5523030     1.3896650     0.0543080
  H       -0.3983570     0.6446350     1.5043810
  H        2.6396080    -1.1506800     0.2905800
  H        1.6294670    -0.3677470     1.5171870
  H       -2.4737670     0.3533780    -0.0616490
units angstrom
no_reorient  #important for SAPT in psi4, default
symmetry c1  #important for SAPT in psi4, default
}

set PROPERTIES_ORIGIN ["COM"]
properties('MP2/aug-cc-pvtz', properties = ['dipole'])
--------------------------------------------------------------------------

    Molecular point group: c1
  Charge       = 0
  Multiplicity = 1
  Basis Set: AUG-CC-PVTZ
    Blend: AUG-CC-PVTZ
  Basis Set: (AUG-CC-PVTZ AUX)
    Blend: AUG-CC-PVTZ-JKFIT

    Orbital Energies [Eh]
    ---------------------

    Doubly Occupied:

       1A    -20.620441     2A    -20.570597     3A    -20.554871
       4A    -11.391050     5A    -11.314131     6A    -11.312711
       7A    -11.254087     8A    -11.253303     9A     -1.471110
      10A     -1.389392    11A     -1.359515    12A     -1.099441
      13A     -1.031292    14A     -0.928757    15A     -0.867173
      16A     -0.760519    17A     -0.748806    18A     -0.708170
      19A     -0.695323    20A     -0.634067    21A     -0.631529
      22A     -0.620699    23A     -0.591371    24A     -0.575039
      25A     -0.554265    26A     -0.531533    27A     -0.516578
      28A     -0.501762    29A     -0.470225    30A     -0.456325
      31A     -0.437103

  @DF-RHF Final Energy:  -418.73508141262619

   => Energetics <=

    Nuclear Repulsion Energy =            402.4153110002285985
    One-Electron Energy =               -1370.5984145200418425
    Two-Electron Energy =                 549.4480221071870574
    Total Energy =                       -418.7350814126261866
  Basis Set: (AUG-CC-PVTZ AUX)
    Blend: AUG-CC-PVTZ-RI
    Molecular point group: c1

    Geometry (in Angstrom), charge = 0, multiplicity = 1:

       Center              X                  Y                   Z               Mass
    ------------   -----------------  -----------------  -----------------  -----------------
         O            0.716405649155    -1.348934198977    -0.000233952988    15.994914619570
         O           -1.881500350845     1.177312801023     0.234861047012    15.994914619570
         O           -1.489679350845    -1.393639198977    -0.397093952988    15.994914619570
         C            0.452031649155     1.492878801023    -0.340582952988    12.000000000000
         C            1.829539649155     0.797222801023    -0.349612952988    12.000000000000
         C           -0.615523950845     0.582914001023     0.411363947012    12.000000000000
         C            1.799550649155    -0.496778198977     0.451293047012    12.000000000000
         C           -0.508548350845    -0.776836198977    -0.015480952988    12.000000000000
         H            0.496924649155     2.495399801023     0.093537047012     1.007825032230
         H            0.060791649155     1.604485801023    -1.355706952988     1.007825032230
         H            2.124228649155     0.554464801023    -1.374535952988     1.007825032230
         H            2.610884649155     1.444549801023     0.062554047012     1.007825032230
         H           -0.339775350845     0.699519801023     1.512627047012     1.007825032230
         H            2.698189649155    -1.095795198977     0.298826047012     1.007825032230
         H            1.688048649155    -0.312862198977     1.525433047012     1.007825032230
         H           -2.415185350845     0.408262801023    -0.053402952988     1.007825032230

  Basis Set: AUG-CC-PVTZ
    Blend: AUG-CC-PVTZ
  Basis Set: (AUG-CC-PVTZ AUX)
    Blend: AUG-CC-PVTZ-JKFIT
	 Reference Energy          =    -418.7350814126261866 [Eh]
	 Singles Energy            =      -0.0000000000000000 [Eh]
	 Same-Spin Energy          =      -0.4134896317809706 [Eh]
	 Opposite-Spin Energy      =      -1.2941609389116349 [Eh]
	 Correlation Energy        =      -1.7076505706926055 [Eh]
	 Total Energy              =    -420.4427319833187653 [Eh]

	 ================> DF-SCS-MP2 Energies <==================
	-----------------------------------------------------------
	 SCS Same-Spin Scale       =       0.3333333333333333 [-]
	 SCS Opposite-Spin Scale   =       1.2000000000000000 [-]
	 SCS Same-Spin Energy      =      -0.1378298772603235 [Eh]
	 SCS Opposite-Spin Energy  =      -1.5529931266939618 [Eh]
	 SCS Correlation Energy    =      -1.6908230039542853 [Eh]
	 SCS Total Energy          =    -420.4259044165804653 [Eh]
	-----------------------------------------------------------

  Dipole Moment: [D]
     X:     3.8039      Y:     1.7176      Z:     0.9963     Total:     4.2909

*** Psi4 exiting successfully. Buy a developer a beer!
