                               Psi4 1.3.2 release

  ==> Input File <==

--------------------------------------------------------------------------
#psi4
#
memory 32 gb

molecule  {
0 1
  O        0.6384535    -1.4437739    -0.0244667
  O       -1.9400820     1.1224280     0.2266150
  O       -1.5482610    -1.4485240    -0.4053400
  C        0.3934500     1.4379940    -0.3488290
  C        1.7709580     0.7423380    -0.3578590
  C       -0.6401280     0.6164470     0.4297460
  C        1.7409690    -0.5516630     0.4430470
  C       -0.5671300    -0.8317210    -0.0237270
  H        0.4383430     2.4405150     0.0852910
  H        0.0022100     1.5496010    -1.3639530
  H        2.0656470     0.4995800    -1.3827820
  H        2.5523030     1.3896650     0.0543080
  H       -0.3983570     0.6446350     1.5043810
  H        2.6396080    -1.1506800     0.2905800
  H        1.6294670    -0.3677470     1.5171870
  H       -2.4737670     0.3533780    -0.0616490
units angstrom
no_reorient  #important for SAPT in psi4, default
symmetry c1  #important for SAPT in psi4, default
}

set PROPERTIES_ORIGIN ["COM"]
properties('MP2/aug-cc-pvtz', properties = ['dipole'])
--------------------------------------------------------------------------

    Molecular point group: c1
  Charge       = 0
  Multiplicity = 1
  Basis Set: AUG-CC-PVTZ
    Blend: AUG-CC-PVTZ
  Basis Set: (AUG-CC-PVTZ AUX)
    Blend: AUG-CC-PVTZ-JKFIT

    Orbital Energies [Eh]
    ---------------------

    Doubly Occupied:

       1A    -20.618945     2A    -20.567145     3A    -20.552845
       4A    -11.390088     5A    -11.317753     6A    -11.314530
       7A    -11.257035     8A    -11.250648     9A     -1.461710
      10A     -1.381545    11A     -1.354097    12A     -1.105696
      13A     -1.021998    14A     -0.919489    15A     -0.862780
      16A     -0.761868    17A     -0.742513    18A     -0.708060
      19A     -0.688061    20A     -0.638714    21A     -0.625081
      22A     -0.621806    23A     -0.593228    24A     -0.573701
      25A     -0.555223    26A     -0.530931    27A     -0.517959
      28A     -0.499022    29A     -0.469915    30A     -0.450971
      31A     -0.446131

  @DF-RHF Final Energy:  -418.74289583057288

   => Energetics <=

    Nuclear Repulsion Energy =            400.6795957947517195
    One-Electron Energy =               -1367.2460086312587464
    Two-Electron Energy =                 547.8235170059340362
    Total Energy =                       -418.7428958305729338
  Basis Set: (AUG-CC-PVTZ AUX)
    Blend: AUG-CC-PVTZ-RI
    Molecular point group: c1

    Geometry (in Angstrom), charge = 0, multiplicity = 1:

       Center              X                  Y                   Z               Mass
    ------------   -----------------  -----------------  -----------------  -----------------
         O            0.696191513249    -1.392525014896    -0.016770698308    15.994914619570
         O           -1.882343986751     1.173676885104     0.234311001692    15.994914619570
         O           -1.490522986751    -1.397275114896    -0.397643998308    15.994914619570
         C            0.451188013249     1.489242885104    -0.341132998308    12.000000000000
         C            1.828696013249     0.793586885104    -0.350162998308    12.000000000000
         C           -0.582389986751     0.667695885104     0.437442001692    12.000000000000
         C            1.798707013249    -0.500414114896     0.450743001692    12.000000000000
         C           -0.509391986751    -0.780472114896    -0.016030998308    12.000000000000
         H            0.496081013249     2.491763885104     0.092987001692     1.007825032230
         H            0.059948013249     1.600849885104    -1.356256998308     1.007825032230
         H            2.123385013249     0.550828885104    -1.375085998308     1.007825032230
         H            2.610041013249     1.440913885104     0.062004001692     1.007825032230
         H           -0.340618986751     0.695883885104     1.512077001692     1.007825032230
         H            2.697346013249    -1.099431114896     0.298276001692     1.007825032230
         H            1.687205013249    -0.316498114896     1.524883001692     1.007825032230
         H           -2.416028986751     0.404626885104    -0.053952998308     1.007825032230

  Basis Set: AUG-CC-PVTZ
    Blend: AUG-CC-PVTZ
  Basis Set: (AUG-CC-PVTZ AUX)
    Blend: AUG-CC-PVTZ-JKFIT
	 Reference Energy          =    -418.7428958305728770 [Eh]
	 Singles Energy            =      -0.0000000000000000 [Eh]
	 Same-Spin Energy          =      -0.4127962983749487 [Eh]
	 Opposite-Spin Energy      =      -1.2938459506198507 [Eh]
	 Correlation Energy        =      -1.7066422489947994 [Eh]
	 Total Energy              =    -420.4495380795676738 [Eh]

	 ================> DF-SCS-MP2 Energies <==================
	-----------------------------------------------------------
	 SCS Same-Spin Scale       =       0.3333333333333333 [-]
	 SCS Opposite-Spin Scale   =       1.2000000000000000 [-]
	 SCS Same-Spin Energy      =      -0.1375987661249829 [Eh]
	 SCS Opposite-Spin Energy  =      -1.5526151407438209 [Eh]
	 SCS Correlation Energy    =      -1.6902139068688038 [Eh]
	 SCS Total Energy          =    -420.4331097374416686 [Eh]
	-----------------------------------------------------------

  Dipole Moment: [D]
     X:     3.9421      Y:     1.7586      Z:     1.0188     Total:     4.4351

*** Psi4 exiting successfully. Buy a developer a beer!
