                               Psi4 1.3.2 release

  ==> Input File <==

--------------------------------------------------------------------------
#psi4
#
memory 32 gb

molecule  {
0 1
  O        0.6578240    -1.4038190    -0.0084800
  O       -1.9400820     1.1224280     0.2266150
  O       -1.5482610    -1.4485240    -0.4053400
  C        0.3934500     1.4379940    -0.3488290
  C        1.7709580     0.7423380    -0.3578590
  C       -0.6401280     0.6164470     0.4297460
  C        1.7244270    -0.5328063     0.4464315
  C       -0.5671300    -0.8317210    -0.0237270
  H        0.4383430     2.4405150     0.0852910
  H        0.0022100     1.5496010    -1.3639530
  H        2.0656470     0.4995800    -1.3827820
  H        2.5523030     1.3896650     0.0543080
  H       -0.3983570     0.6446350     1.5043810
  H        2.6396080    -1.1506800     0.2905800
  H        1.6294670    -0.3677470     1.5171870
  H       -2.4737670     0.3533780    -0.0616490
units angstrom
no_reorient  #important for SAPT in psi4, default
symmetry c1  #important for SAPT in psi4, default
}

set PROPERTIES_ORIGIN ["COM"]
properties('MP2/aug-cc-pvtz', properties = ['dipole'])
--------------------------------------------------------------------------

    Molecular point group: c1
  Charge       = 0
  Multiplicity = 1
  Basis Set: AUG-CC-PVTZ
    Blend: AUG-CC-PVTZ
  Basis Set: (AUG-CC-PVTZ AUX)
    Blend: AUG-CC-PVTZ-JKFIT

    Orbital Energies [Eh]
    ---------------------

    Doubly Occupied:

       1A    -20.619926     2A    -20.566818     3A    -20.556569
       4A    -11.392902     5A    -11.314480     6A    -11.313419
       7A    -11.254355     8A    -11.249699     9A     -1.468679
      10A     -1.385406    11A     -1.358648    12A     -1.105692
      13A     -1.025053    14A     -0.918351    15A     -0.867768
      16A     -0.761648    17A     -0.746678    18A     -0.708688
      19A     -0.692672    20A     -0.641919    21A     -0.629371
      22A     -0.619123    23A     -0.593132    24A     -0.572931
      25A     -0.556687    26A     -0.531296    27A     -0.514897
      28A     -0.501393    29A     -0.471029    30A     -0.451591
      31A     -0.444585

  @DF-RHF Final Energy:  -418.74494258370095

   => Energetics <=

    Nuclear Repulsion Energy =            401.9417802408801208
    One-Electron Energy =               -1369.7026353791102338
    Two-Electron Energy =                 549.0159125545291090
    Total Energy =                       -418.7449425837010040
  Basis Set: (AUG-CC-PVTZ AUX)
    Blend: AUG-CC-PVTZ-RI
    Molecular point group: c1

    Geometry (in Angstrom), charge = 0, multiplicity = 1:

       Center              X                  Y                   Z               Mass
    ------------   -----------------  -----------------  -----------------  -----------------
         O            0.714602702250    -1.360027033628    -0.003337438060    15.994914619570
         O           -1.883303297750     1.166219966372     0.231757561940    15.994914619570
         O           -1.491482297750    -1.404732033628    -0.400197438060    15.994914619570
         C            0.450228702250     1.481785966372    -0.343686438060    12.000000000000
         C            1.827736702250     0.786129966372    -0.352716438060    12.000000000000
         C           -0.583349297750     0.660238966372     0.434888561940    12.000000000000
         C            1.781205702250    -0.489014333628     0.451574061940    12.000000000000
         C           -0.510351297750    -0.787929033628    -0.018584438060    12.000000000000
         H            0.495121702250     2.484306966372     0.090433561940     1.007825032230
         H            0.058988702250     1.593392966372    -1.358810438060     1.007825032230
         H            2.122425702250     0.543371966372    -1.377639438060     1.007825032230
         H            2.609081702250     1.433456966372     0.059450561940     1.007825032230
         H           -0.341578297750     0.688426966372     1.509523561940     1.007825032230
         H            2.696386702250    -1.106888033628     0.295722561940     1.007825032230
         H            1.686245702250    -0.323955033628     1.522329561940     1.007825032230
         H           -2.416988297750     0.397169966372    -0.056506438060     1.007825032230

  Basis Set: AUG-CC-PVTZ
    Blend: AUG-CC-PVTZ
  Basis Set: (AUG-CC-PVTZ AUX)
    Blend: AUG-CC-PVTZ-JKFIT
	 Reference Energy          =    -418.7449425837009471 [Eh]
	 Singles Energy            =      -0.0000000000000000 [Eh]
	 Same-Spin Energy          =      -0.4127975444344244 [Eh]
	 Opposite-Spin Energy      =      -1.2929988719294583 [Eh]
	 Correlation Energy        =      -1.7057964163638828 [Eh]
	 Total Energy              =    -420.4507390000648570 [Eh]

	 ================> DF-SCS-MP2 Energies <==================
	-----------------------------------------------------------
	 SCS Same-Spin Scale       =       0.3333333333333333 [-]
	 SCS Opposite-Spin Scale   =       1.2000000000000000 [-]
	 SCS Same-Spin Energy      =      -0.1375991814781415 [Eh]
	 SCS Opposite-Spin Energy  =      -1.5515986463153499 [Eh]
	 SCS Correlation Energy    =      -1.6891978277934914 [Eh]
	 SCS Total Energy          =    -420.4341404114944112 [Eh]
	-----------------------------------------------------------

  Dipole Moment: [D]
     X:     3.8333      Y:     1.6693      Z:     0.9848     Total:     4.2954

*** Psi4 exiting successfully. Buy a developer a beer!
