                               Psi4 1.3.2 release

  ==> Input File <==

--------------------------------------------------------------------------
#psi4
#
memory 32 gb

molecule  {
0 1
  O        0.6484040    -1.4237278    -0.0169501
  O       -1.9400820     1.1224280     0.2266150
  O       -1.5482610    -1.4485240    -0.4053400
  C        0.3934500     1.4379940    -0.3488290
  C        1.7709580     0.7423380    -0.3578590
  C       -0.6401280     0.6164470     0.4297460
  C        1.7409690    -0.5516630     0.4430470
  C       -0.5671300    -0.8317210    -0.0237270
  H        0.4383430     2.4405150     0.0852910
  H        0.0022100     1.5496010    -1.3639530
  H        2.0656470     0.4995800    -1.3827820
  H        2.5523030     1.3896650     0.0543080
  H       -0.3983570     0.6446350     1.5043810
  H        2.6396080    -1.1506800     0.2905800
  H        1.6294670    -0.3677470     1.5171870
  H       -2.4737670     0.3533780    -0.0616490
units angstrom
no_reorient  #important for SAPT in psi4, default
symmetry c1  #important for SAPT in psi4, default
}

set PROPERTIES_ORIGIN ["COM"]
properties('MP2/aug-cc-pvtz', properties = ['dipole'])
--------------------------------------------------------------------------

    Molecular point group: c1
  Charge       = 0
  Multiplicity = 1
  Basis Set: AUG-CC-PVTZ
    Blend: AUG-CC-PVTZ
  Basis Set: (AUG-CC-PVTZ AUX)
    Blend: AUG-CC-PVTZ-JKFIT

    Orbital Energies [Eh]
    ---------------------

    Doubly Occupied:

       1A    -20.619043     2A    -20.566879     3A    -20.554669
       4A    -11.391563     5A    -11.316015     6A    -11.313854
       7A    -11.255859     8A    -11.250238     9A     -1.464651
      10A     -1.383170    11A     -1.356442    12A     -1.104583
      13A     -1.023535    14A     -0.918981    15A     -0.865228
      16A     -0.761465    17A     -0.743939    18A     -0.709073
      19A     -0.689786    20A     -0.640144    21A     -0.628157
      22A     -0.620911    23A     -0.592979    24A     -0.573209
      25A     -0.554653    26A     -0.531357    27A     -0.517309
      28A     -0.500075    29A     -0.470084    30A     -0.450693
      31A     -0.445767

  @DF-RHF Final Energy:  -418.74487303469635

   => Energetics <=

    Nuclear Repulsion Energy =            401.1377680716392433
    One-Electron Energy =               -1368.1366568532134806
    Two-Electron Energy =                 548.2540157468779398
    Total Energy =                       -418.7448730346962975
  Basis Set: (AUG-CC-PVTZ AUX)
    Blend: AUG-CC-PVTZ-RI
    Molecular point group: c1

    Geometry (in Angstrom), charge = 0, multiplicity = 1:

       Center              X                  Y                   Z               Mass
    ------------   -----------------  -----------------  -----------------  -----------------
         O            0.704770526472    -1.375241887719    -0.010290118358    15.994914619570
         O           -1.883715473528     1.170913912281     0.233274981642    15.994914619570
         O           -1.491894473528    -1.400038087719    -0.398680018358    15.994914619570
         C            0.449816526472     1.486479912281    -0.342169018358    12.000000000000
         C            1.827324526472     0.790823912281    -0.351199018358    12.000000000000
         C           -0.583761473528     0.664932912281     0.436405981642    12.000000000000
         C            1.797335526472    -0.503177087719     0.449706981642    12.000000000000
         C           -0.510763473528    -0.783235087719    -0.017067018358    12.000000000000
         H            0.494709526472     2.489000912281     0.091950981642     1.007825032230
         H            0.058576526472     1.598086912281    -1.357293018358     1.007825032230
         H            2.122013526472     0.548065912281    -1.376122018358     1.007825032230
         H            2.608669526472     1.438150912281     0.060967981642     1.007825032230
         H           -0.341990473528     0.693120912281     1.511040981642     1.007825032230
         H            2.695974526472    -1.102194087719     0.297239981642     1.007825032230
         H            1.685833526472    -0.319261087719     1.523846981642     1.007825032230
         H           -2.417400473528     0.401863912281    -0.054989018358     1.007825032230

  Basis Set: AUG-CC-PVTZ
    Blend: AUG-CC-PVTZ
  Basis Set: (AUG-CC-PVTZ AUX)
    Blend: AUG-CC-PVTZ-JKFIT
	 Reference Energy          =    -418.7448730346963544 [Eh]
	 Singles Energy            =      -0.0000000000000000 [Eh]
	 Same-Spin Energy          =      -0.4126710312108224 [Eh]
	 Opposite-Spin Energy      =      -1.2932270199720368 [Eh]
	 Correlation Energy        =      -1.7058980511828592 [Eh]
	 Total Energy              =    -420.4507710858792393 [Eh]

	 ================> DF-SCS-MP2 Energies <==================
	-----------------------------------------------------------
	 SCS Same-Spin Scale       =       0.3333333333333333 [-]
	 SCS Opposite-Spin Scale   =       1.2000000000000000 [-]
	 SCS Same-Spin Energy      =      -0.1375570104036075 [Eh]
	 SCS Opposite-Spin Energy  =      -1.5518724239664441 [Eh]
	 SCS Correlation Energy    =      -1.6894294343700516 [Eh]
	 SCS Total Energy          =    -420.4343024690663810 [Eh]
	-----------------------------------------------------------

  Dipole Moment: [D]
     X:     3.9001      Y:     1.7024      Z:     1.0019     Total:     4.3718

*** Psi4 exiting successfully. Buy a developer a beer!
