                               Psi4 1.3.2 release

  ==> Input File <==

--------------------------------------------------------------------------
#psi4
#
memory 32 gb

molecule  {
0 1
  O        0.6746589    -1.4218680    -0.0140916
  O       -1.9400820     1.1224280     0.2266150
  O       -1.5482610    -1.4485240    -0.4053400
  C        0.3934500     1.4379940    -0.3488290
  C        1.7709580     0.7423380    -0.3578590
  C       -0.6401280     0.6164470     0.4297460
  C        1.7409690    -0.5516630     0.4430470
  C       -0.5671300    -0.8317210    -0.0237270
  H        0.4383430     2.4405150     0.0852910
  H        0.0022100     1.5496010    -1.3639530
  H        2.0656470     0.4995800    -1.3827820
  H        2.5523030     1.3896650     0.0543080
  H       -0.3983570     0.6446350     1.5043810
  H        2.6396080    -1.1506800     0.2905800
  H        1.6294670    -0.3677470     1.5171870
  H       -2.4737670     0.3533780    -0.0616490
units angstrom
no_reorient  #important for SAPT in psi4, default
symmetry c1  #important for SAPT in psi4, default
}

set PROPERTIES_ORIGIN ["COM"]
properties('MP2/aug-cc-pvtz', properties = ['dipole'])
--------------------------------------------------------------------------

    Molecular point group: c1
  Charge       = 0
  Multiplicity = 1
  Basis Set: AUG-CC-PVTZ
    Blend: AUG-CC-PVTZ
  Basis Set: (AUG-CC-PVTZ AUX)
    Blend: AUG-CC-PVTZ-JKFIT

    Orbital Energies [Eh]
    ---------------------

    Doubly Occupied:

       1A    -20.618088     2A    -20.568055     3A    -20.560153
       4A    -11.395737     5A    -11.315002     6A    -11.312047
       7A    -11.254144     8A    -11.250123     9A     -1.461258
      10A     -1.385129    11A     -1.359696    12A     -1.103100
      13A     -1.023227    14A     -0.917609    15A     -0.865848
      16A     -0.761802    17A     -0.742691    18A     -0.709525
      19A     -0.690289    20A     -0.640365    21A     -0.630458
      22A     -0.619688    23A     -0.591570    24A     -0.572704
      25A     -0.553793    26A     -0.532448    27A     -0.517137
      28A     -0.502176    29A     -0.471192    30A     -0.450910
      31A     -0.445986

  @DF-RHF Final Energy:  -418.74391850141012

   => Energetics <=

    Nuclear Repulsion Energy =            400.9041104585833750
    One-Electron Energy =               -1367.6521567762169980
    Two-Electron Energy =                 548.0041278162235585
    Total Energy =                       -418.7439185014101213
  Basis Set: (AUG-CC-PVTZ AUX)
    Blend: AUG-CC-PVTZ-RI
    Molecular point group: c1

    Geometry (in Angstrom), charge = 0, multiplicity = 1:

       Center              X                  Y                   Z               Mass
    ------------   -----------------  -----------------  -----------------  -----------------
         O            0.727406688904    -1.373638425703    -0.007825608102    15.994914619570
         O           -1.887334211096     1.170657574297     0.232880991898    15.994914619570
         O           -1.495513211096    -1.400294425703    -0.399074008102    15.994914619570
         C            0.446197788904     1.486223574297    -0.342563008102    12.000000000000
         C            1.823705788904     0.790567574297    -0.351593008102    12.000000000000
         C           -0.587380211096     0.664676574297     0.436011991898    12.000000000000
         C            1.793716788904    -0.503433425703     0.449312991898    12.000000000000
         C           -0.514382211096    -0.783491425703    -0.017461008102    12.000000000000
         H            0.491090788904     2.488744574297     0.091556991898     1.007825032230
         H            0.054957788904     1.597830574297    -1.357687008102     1.007825032230
         H            2.118394788904     0.547809574297    -1.376516008102     1.007825032230
         H            2.605050788904     1.437894574297     0.060573991898     1.007825032230
         H           -0.345609211096     0.692864574297     1.510646991898     1.007825032230
         H            2.692355788904    -1.102450425703     0.296845991898     1.007825032230
         H            1.682214788904    -0.319517425703     1.523452991898     1.007825032230
         H           -2.421019211096     0.401607574297    -0.055383008102     1.007825032230

  Basis Set: AUG-CC-PVTZ
    Blend: AUG-CC-PVTZ
  Basis Set: (AUG-CC-PVTZ AUX)
    Blend: AUG-CC-PVTZ-JKFIT
	 Reference Energy          =    -418.7439185014101213 [Eh]
	 Singles Energy            =      -0.0000000000000000 [Eh]
	 Same-Spin Energy          =      -0.4128674239948377 [Eh]
	 Opposite-Spin Energy      =      -1.2936569786743823 [Eh]
	 Correlation Energy        =      -1.7065244026692201 [Eh]
	 Total Energy              =    -420.4504429040793525 [Eh]

	 ================> DF-SCS-MP2 Energies <==================
	-----------------------------------------------------------
	 SCS Same-Spin Scale       =       0.3333333333333333 [-]
	 SCS Opposite-Spin Scale   =       1.2000000000000000 [-]
	 SCS Same-Spin Energy      =      -0.1376224746649459 [Eh]
	 SCS Opposite-Spin Energy  =      -1.5523883744092588 [Eh]
	 SCS Correlation Energy    =      -1.6900108490742047 [Eh]
	 SCS Total Energy          =    -420.4339293504843340 [Eh]
	-----------------------------------------------------------

  Dipole Moment: [D]
     X:     3.7094      Y:     1.6830      Z:     0.9726     Total:     4.1878

*** Psi4 exiting successfully. Buy a developer a beer!
