                               Psi4 1.3.2 release

  ==> Input File <==

--------------------------------------------------------------------------
#psi4
#
memory 32 gb

molecule  {
0 1
  O        0.6578240    -1.4038190    -0.0084800
  O       -1.9467641     1.1423774     0.3726599
  O       -1.5482610    -1.4485240    -0.4053400
  C        0.3934500     1.4379940    -0.3488290
  C        1.7709580     0.7423380    -0.3578590
  C       -0.6401280     0.6164470     0.4297460
  C        1.7409690    -0.5516630     0.4430470
  C       -0.5671300    -0.8317210    -0.0237270
  H        0.4383430     2.4405150     0.0852910
  H        0.0022100     1.5496010    -1.3639530
  H        2.0656470     0.4995800    -1.3827820
  H        2.5523030     1.3896650     0.0543080
  H       -0.3983570     0.6446350     1.5043810
  H        2.6396080    -1.1506800     0.2905800
  H        1.6294670    -0.3677470     1.5171870
  H       -2.4737670     0.3533780    -0.0616490
units angstrom
no_reorient  #important for SAPT in psi4, default
symmetry c1  #important for SAPT in psi4, default
}

set PROPERTIES_ORIGIN ["COM"]
properties('MP2/aug-cc-pvtz', properties = ['dipole'])
--------------------------------------------------------------------------

    Molecular point group: c1
  Charge       = 0
  Multiplicity = 1
  Basis Set: AUG-CC-PVTZ
    Blend: AUG-CC-PVTZ
  Basis Set: (AUG-CC-PVTZ AUX)
    Blend: AUG-CC-PVTZ-JKFIT

    Orbital Energies [Eh]
    ---------------------

    Doubly Occupied:

       1A    -20.620413     2A    -20.572504     3A    -20.558545
       4A    -11.394965     5A    -11.314557     6A    -11.311454
       7A    -11.255684     8A    -11.250888     9A     -1.468816
      10A     -1.380625    11A     -1.354645    12A     -1.103327
      13A     -1.023911    14A     -0.917569    15A     -0.867619
      16A     -0.758555    17A     -0.746102    18A     -0.705081
      19A     -0.690502    20A     -0.636037    21A     -0.630076
      22A     -0.617014    23A     -0.593202    24A     -0.573571
      25A     -0.557176    26A     -0.531652    27A     -0.516763
      28A     -0.501724    29A     -0.470177    30A     -0.448213
      31A     -0.445674

  @DF-RHF Final Energy:  -418.73675306106088

   => Energetics <=

    Nuclear Repulsion Energy =            400.5683338202882737
    One-Electron Energy =               -1366.9760923059941433
    Two-Electron Energy =                 547.6710054246450454
    Total Energy =                       -418.7367530610608810
  Basis Set: (AUG-CC-PVTZ AUX)
    Blend: AUG-CC-PVTZ-RI
    Molecular point group: c1

    Geometry (in Angstrom), charge = 0, multiplicity = 1:

       Center              X                  Y                   Z               Mass
    ------------   -----------------  -----------------  -----------------  -----------------
         O            0.713813159139    -1.360826780924    -0.023116966179    15.994914619570
         O           -1.890774940861     1.185369619076     0.358022933821    15.994914619570
         O           -1.492271840861    -1.405531780924    -0.419976966179    15.994914619570
         C            0.449439159139     1.480986219076    -0.363465966179    12.000000000000
         C            1.826947159139     0.785330219076    -0.372495966179    12.000000000000
         C           -0.584138840861     0.659439219076     0.415109033821    12.000000000000
         C            1.796958159139    -0.508670780924     0.428410033821    12.000000000000
         C           -0.511140840861    -0.788728780924    -0.038363966179    12.000000000000
         H            0.494332159139     2.483507219076     0.070654033821     1.007825032230
         H            0.058199159139     1.592593219076    -1.378589966179     1.007825032230
         H            2.121636159139     0.542572219076    -1.397418966179     1.007825032230
         H            2.608292159139     1.432657219076     0.039671033821     1.007825032230
         H           -0.342367840861     0.687627219076     1.489744033821     1.007825032230
         H            2.695597159139    -1.107687780924     0.275943033821     1.007825032230
         H            1.685456159139    -0.324754780924     1.502550033821     1.007825032230
         H           -2.417777840861     0.396370219076    -0.076285966179     1.007825032230

  Basis Set: AUG-CC-PVTZ
    Blend: AUG-CC-PVTZ
  Basis Set: (AUG-CC-PVTZ AUX)
    Blend: AUG-CC-PVTZ-JKFIT
	 Reference Energy          =    -418.7367530610608810 [Eh]
	 Singles Energy            =      -0.0000000000000000 [Eh]
	 Same-Spin Energy          =      -0.4136398261421279 [Eh]
	 Opposite-Spin Energy      =      -1.2951451710749819 [Eh]
	 Correlation Energy        =      -1.7087849972171099 [Eh]
	 Total Energy              =    -420.4455380582779753 [Eh]

	 ================> DF-SCS-MP2 Energies <==================
	-----------------------------------------------------------
	 SCS Same-Spin Scale       =       0.3333333333333333 [-]
	 SCS Opposite-Spin Scale   =       1.2000000000000000 [-]
	 SCS Same-Spin Energy      =      -0.1378799420473759 [Eh]
	 SCS Opposite-Spin Energy  =      -1.5541742052899783 [Eh]
	 SCS Correlation Energy    =      -1.6920541473373543 [Eh]
	 SCS Total Energy          =    -420.4288072083982115 [Eh]
	-----------------------------------------------------------

  Dipole Moment: [D]
     X:     3.9106      Y:     1.6161      Z:     0.7021     Total:     4.2893

*** Psi4 exiting successfully. Buy a developer a beer!
