                               Psi4 1.3.2 release

  ==> Input File <==

--------------------------------------------------------------------------
#psi4
#
memory 32 gb

molecule  {
0 1
  O        0.6920660    -1.3218676     0.0234182
  O       -1.9400820     1.1224280     0.2266150
  O       -1.5482610    -1.4485240    -0.4053400
  C        0.3934500     1.4379940    -0.3488290
  C        1.7709580     0.7423380    -0.3578590
  C       -0.6401280     0.6164470     0.4297460
  C        1.7409690    -0.5516630     0.4430470
  C       -0.5671300    -0.8317210    -0.0237270
  H        0.4383430     2.4405150     0.0852910
  H        0.0022100     1.5496010    -1.3639530
  H        2.0656470     0.4995800    -1.3827820
  H        2.5523030     1.3896650     0.0543080
  H       -0.3983570     0.6446350     1.5043810
  H        2.6396080    -1.1506800     0.2905800
  H        1.6294670    -0.3677470     1.5171870
  H       -2.4737670     0.3533780    -0.0616490
units angstrom
no_reorient  #important for SAPT in psi4, default
symmetry c1  #important for SAPT in psi4, default
}

set PROPERTIES_ORIGIN ["COM"]
properties('MP2/aug-cc-pvtz', properties = ['dipole'])
--------------------------------------------------------------------------

    Molecular point group: c1
  Charge       = 0
  Multiplicity = 1
  Basis Set: AUG-CC-PVTZ
    Blend: AUG-CC-PVTZ
  Basis Set: (AUG-CC-PVTZ AUX)
    Blend: AUG-CC-PVTZ-JKFIT

    Orbital Energies [Eh]
    ---------------------

    Doubly Occupied:

       1A    -20.618186     2A    -20.565470     3A    -20.563916
       4A    -11.399944     5A    -11.310529     6A    -11.307774
       7A    -11.249862     8A    -11.248210     9A     -1.484223
      10A     -1.394945    11A     -1.362987    12A     -1.099003
      13A     -1.034778    14A     -0.917893    15A     -0.876659
      16A     -0.759945    17A     -0.751172    18A     -0.716874
      19A     -0.698794    20A     -0.647698    21A     -0.644088
      22A     -0.616682    23A     -0.590277    24A     -0.570075
      25A     -0.552749    26A     -0.533787    27A     -0.513549
      28A     -0.503852    29A     -0.468695    30A     -0.448111
      31A     -0.442113

  @DF-RHF Final Energy:  -418.74271025629196

   => Energetics <=

    Nuclear Repulsion Energy =            403.5836423191431095
    One-Electron Energy =               -1372.8670260345845691
    Two-Electron Energy =                 550.5406734591495024
    Total Energy =                       -418.7427102562919572
  Basis Set: (AUG-CC-PVTZ AUX)
    Blend: AUG-CC-PVTZ-RI
    Molecular point group: c1

    Geometry (in Angstrom), charge = 0, multiplicity = 1:

       Center              X                  Y                   Z               Mass
    ------------   -----------------  -----------------  -----------------  -----------------
         O            0.742414551934    -1.287421174917     0.024514180874    15.994914619570
         O           -1.889733448066     1.156874425083     0.227710980874    15.994914619570
         O           -1.497912448066    -1.414077574917    -0.404244019126    15.994914619570
         C            0.443798551934     1.472440425083    -0.347733019126    12.000000000000
         C            1.821306551934     0.776784425083    -0.356763019126    12.000000000000
         C           -0.589779448066     0.650893425083     0.430841980874    12.000000000000
         C            1.791317551934    -0.517216574917     0.444142980874    12.000000000000
         C           -0.516781448066    -0.797274574917    -0.022631019126    12.000000000000
         H            0.488691551934     2.474961425083     0.086386980874     1.007825032230
         H            0.052558551934     1.584047425083    -1.362857019126     1.007825032230
         H            2.115995551934     0.534026425083    -1.381686019126     1.007825032230
         H            2.602651551934     1.424111425083     0.055403980874     1.007825032230
         H           -0.348008448066     0.679081425083     1.505476980874     1.007825032230
         H            2.689956551934    -1.116233574917     0.291675980874     1.007825032230
         H            1.679815551934    -0.333300574917     1.518282980874     1.007825032230
         H           -2.423418448066     0.387824425083    -0.060553019126     1.007825032230

  Basis Set: AUG-CC-PVTZ
    Blend: AUG-CC-PVTZ
  Basis Set: (AUG-CC-PVTZ AUX)
    Blend: AUG-CC-PVTZ-JKFIT
	 Reference Energy          =    -418.7427102562919572 [Eh]
	 Singles Energy            =      -0.0000000000000000 [Eh]
	 Same-Spin Energy          =      -0.4125594399052938 [Eh]
	 Opposite-Spin Energy      =      -1.2910969035621593 [Eh]
	 Correlation Energy        =      -1.7036563434674532 [Eh]
	 Total Energy              =    -420.4463665997594148 [Eh]

	 ================> DF-SCS-MP2 Energies <==================
	-----------------------------------------------------------
	 SCS Same-Spin Scale       =       0.3333333333333333 [-]
	 SCS Opposite-Spin Scale   =       1.2000000000000000 [-]
	 SCS Same-Spin Energy      =      -0.1375198133017646 [Eh]
	 SCS Opposite-Spin Energy  =      -1.5493162842745911 [Eh]
	 SCS Correlation Energy    =      -1.6868360975763557 [Eh]
	 SCS Total Energy          =    -420.4295463538683180 [Eh]
	-----------------------------------------------------------

  Dipole Moment: [D]
     X:     3.6706      Y:     1.4010      Z:     0.9011     Total:     4.0309

*** Psi4 exiting successfully. Buy a developer a beer!
