                               Psi4 1.3.2 release

  ==> Input File <==

--------------------------------------------------------------------------
#psi4
#
memory 32 gb

molecule  {
0 1
  O        0.6578240    -1.4038190    -0.0084800
  O       -1.9400820     1.1224280     0.2266150
  O       -1.5482610    -1.4485240    -0.4053400
  C        0.3934500     1.4379940    -0.3488290
  C        1.7709580     0.7423380    -0.3578590
  C       -0.6401280     0.6164470     0.4297460
  C        1.6662827    -0.6104219     0.4119128
  C       -0.5671300    -0.8317210    -0.0237270
  H        0.4383430     2.4405150     0.0852910
  H        0.0022100     1.5496010    -1.3639530
  H        2.0656470     0.4995800    -1.3827820
  H        2.5523030     1.3896650     0.0543080
  H       -0.3983570     0.6446350     1.5043810
  H        2.6396080    -1.1506800     0.2905800
  H        1.6294670    -0.3677470     1.5171870
  H       -2.4737670     0.3533780    -0.0616490
units angstrom
no_reorient  #important for SAPT in psi4, default
symmetry c1  #important for SAPT in psi4, default
}

set PROPERTIES_ORIGIN ["COM"]
properties('MP2/aug-cc-pvtz', properties = ['dipole'])
--------------------------------------------------------------------------

    Molecular point group: c1
  Charge       = 0
  Multiplicity = 1
  Basis Set: AUG-CC-PVTZ
    Blend: AUG-CC-PVTZ
  Basis Set: (AUG-CC-PVTZ AUX)
    Blend: AUG-CC-PVTZ-JKFIT

    Orbital Energies [Eh]
    ---------------------

    Doubly Occupied:

       1A    -20.629404     2A    -20.568560     3A    -20.563183
       4A    -11.400196     5A    -11.315248     6A    -11.313487
       7A    -11.252324     8A    -11.248222     9A     -1.495831
      10A     -1.397044    11A     -1.364788    12A     -1.098853
      13A     -1.024335    14A     -0.919735    15A     -0.876936
      16A     -0.763973    17A     -0.751375    18A     -0.714600
      19A     -0.702335    20A     -0.651556    21A     -0.641391
      22A     -0.615870    23A     -0.595769    24A     -0.569782
      25A     -0.548622    26A     -0.535017    27A     -0.507693
      28A     -0.505540    29A     -0.469444    30A     -0.446394
      31A     -0.443512

  @DF-RHF Final Energy:  -418.73856097515920

   => Energetics <=

    Nuclear Repulsion Energy =            403.0596332616978543
    One-Electron Energy =               -1371.7343522325252252
    Two-Electron Energy =                 549.9361579956681680
    Total Energy =                       -418.7385609751592028
  Basis Set: (AUG-CC-PVTZ AUX)
    Blend: AUG-CC-PVTZ-RI
    Molecular point group: c1

    Geometry (in Angstrom), charge = 0, multiplicity = 1:

       Center              X                  Y                   Z               Mass
    ------------   -----------------  -----------------  -----------------  -----------------
         O            0.720615175911    -1.352001109320     0.000232005112    15.994914619570
         O           -1.877290824089     1.174245890680     0.235327005112    15.994914619570
         O           -1.485469824089    -1.396706109320    -0.396627994888    15.994914619570
         C            0.456241175911     1.489811890680    -0.340116994888    12.000000000000
         C            1.833749175911     0.794155890680    -0.349146994888    12.000000000000
         C           -0.577336824089     0.668264890680     0.438458005112    12.000000000000
         C            1.729073875911    -0.558604009320     0.420624805112    12.000000000000
         C           -0.504338824089    -0.779903109320    -0.015014994888    12.000000000000
         H            0.501134175911     2.492332890680     0.094003005112     1.007825032230
         H            0.065001175911     1.601418890680    -1.355240994888     1.007825032230
         H            2.128438175911     0.551397890680    -1.374069994888     1.007825032230
         H            2.615094175911     1.441482890680     0.063020005112     1.007825032230
         H           -0.335565824089     0.696452890680     1.513093005112     1.007825032230
         H            2.702399175911    -1.098862109320     0.299292005112     1.007825032230
         H            1.692258175911    -0.315929109320     1.525899005112     1.007825032230
         H           -2.410975824089     0.405195890680    -0.052936994888     1.007825032230

  Basis Set: AUG-CC-PVTZ
    Blend: AUG-CC-PVTZ
  Basis Set: (AUG-CC-PVTZ AUX)
    Blend: AUG-CC-PVTZ-JKFIT
	 Reference Energy          =    -418.7385609751592028 [Eh]
	 Singles Energy            =      -0.0000000000000000 [Eh]
	 Same-Spin Energy          =      -0.4127036675999987 [Eh]
	 Opposite-Spin Energy      =      -1.2919803521195699 [Eh]
	 Correlation Energy        =      -1.7046840197195685 [Eh]
	 Total Energy              =    -420.4432449948787962 [Eh]

	 ================> DF-SCS-MP2 Energies <==================
	-----------------------------------------------------------
	 SCS Same-Spin Scale       =       0.3333333333333333 [-]
	 SCS Opposite-Spin Scale   =       1.2000000000000000 [-]
	 SCS Same-Spin Energy      =      -0.1375678891999996 [Eh]
	 SCS Opposite-Spin Energy  =      -1.5503764225434837 [Eh]
	 SCS Correlation Energy    =      -1.6879443117434834 [Eh]
	 SCS Total Energy          =    -420.4265052869026817 [Eh]
	-----------------------------------------------------------

  Dipole Moment: [D]
     X:     3.5148      Y:     1.4686      Z:     0.8758     Total:     3.9087

*** Psi4 exiting successfully. Buy a developer a beer!
