                               Psi4 1.3.2 release

  ==> Input File <==

--------------------------------------------------------------------------
#psi4
#
memory 32 gb

molecule  {
0 1
  O        0.6578240    -1.4038190    -0.0084800
  O       -1.9307795     1.1398301     0.2119201
  O       -1.5482610    -1.4485240    -0.4053400
  C        0.3934500     1.4379940    -0.3488290
  C        1.7709580     0.7423380    -0.3578590
  C       -0.6401280     0.6164470     0.4297460
  C        1.7409690    -0.5516630     0.4430470
  C       -0.5671300    -0.8317210    -0.0237270
  H        0.4383430     2.4405150     0.0852910
  H        0.0022100     1.5496010    -1.3639530
  H        2.0656470     0.4995800    -1.3827820
  H        2.5523030     1.3896650     0.0543080
  H       -0.3983570     0.6446350     1.5043810
  H        2.6396080    -1.1506800     0.2905800
  H        1.6294670    -0.3677470     1.5171870
  H       -2.4737670     0.3533780    -0.0616490
units angstrom
no_reorient  #important for SAPT in psi4, default
symmetry c1  #important for SAPT in psi4, default
}

set PROPERTIES_ORIGIN ["COM"]
properties('MP2/aug-cc-pvtz', properties = ['dipole'])
--------------------------------------------------------------------------

    Molecular point group: c1
  Charge       = 0
  Multiplicity = 1
  Basis Set: AUG-CC-PVTZ
    Blend: AUG-CC-PVTZ
  Basis Set: (AUG-CC-PVTZ AUX)
    Blend: AUG-CC-PVTZ-JKFIT

    Orbital Energies [Eh]
    ---------------------

    Doubly Occupied:

       1A    -20.619292     2A    -20.568143     3A    -20.556942
       4A    -11.393473     5A    -11.314241     6A    -11.312899
       7A    -11.254200     8A    -11.249207     9A     -1.468058
      10A     -1.383870    11A     -1.357798    12A     -1.102847
      13A     -1.024751    14A     -0.918249    15A     -0.867608
      16A     -0.758618    17A     -0.745443    18A     -0.710005
      19A     -0.691687    20A     -0.640853    21A     -0.631038
      22A     -0.619809    23A     -0.592077    24A     -0.572756
      25A     -0.554149    26A     -0.530685    27A     -0.516552
      28A     -0.500900    29A     -0.470333    30A     -0.450546
      31A     -0.445095

  @DF-RHF Final Energy:  -418.74479124399591

   => Energetics <=

    Nuclear Repulsion Energy =            401.5409239765969573
    One-Electron Energy =               -1368.9271811129870002
    Two-Electron Energy =                 548.6414658923940806
    Total Energy =                       -418.7447912439959055
  Basis Set: (AUG-CC-PVTZ AUX)
    Blend: AUG-CC-PVTZ-RI
    Molecular point group: c1

    Geometry (in Angstrom), charge = 0, multiplicity = 1:

       Center              X                  Y                   Z               Mass
    ------------   -----------------  -----------------  -----------------  -----------------
         O            0.711609986683    -1.360475684169    -0.000962048317    15.994914619570
         O           -1.876993513317     1.183173415831     0.219438051683    15.994914619570
         O           -1.494475013317    -1.405180684169    -0.397822048317    15.994914619570
         C            0.447235986683     1.481337315831    -0.341311048317    12.000000000000
         C            1.824743986683     0.785681315831    -0.350341048317    12.000000000000
         C           -0.586342013317     0.659790315831     0.437263951683    12.000000000000
         C            1.794754986683    -0.508319684169     0.450564951683    12.000000000000
         C           -0.513344013317    -0.788377684169    -0.016209048317    12.000000000000
         H            0.492128986683     2.483858315831     0.092808951683     1.007825032230
         H            0.055995986683     1.592944315831    -1.356435048317     1.007825032230
         H            2.119432986683     0.542923315831    -1.375264048317     1.007825032230
         H            2.606088986683     1.433008315831     0.061825951683     1.007825032230
         H           -0.344571013317     0.687978315831     1.511898951683     1.007825032230
         H            2.693393986683    -1.107336684169     0.298097951683     1.007825032230
         H            1.683252986683    -0.324403684169     1.524704951683     1.007825032230
         H           -2.419981013317     0.396721315831    -0.054131048317     1.007825032230

  Basis Set: AUG-CC-PVTZ
    Blend: AUG-CC-PVTZ
  Basis Set: (AUG-CC-PVTZ AUX)
    Blend: AUG-CC-PVTZ-JKFIT
	 Reference Energy          =    -418.7447912439959055 [Eh]
	 Singles Energy            =      -0.0000000000000000 [Eh]
	 Same-Spin Energy          =      -0.4128297880577572 [Eh]
	 Opposite-Spin Energy      =      -1.2932244749430026 [Eh]
	 Correlation Energy        =      -1.7060542630007598 [Eh]
	 Total Energy              =    -420.4508455069966431 [Eh]

	 ================> DF-SCS-MP2 Energies <==================
	-----------------------------------------------------------
	 SCS Same-Spin Scale       =       0.3333333333333333 [-]
	 SCS Opposite-Spin Scale   =       1.2000000000000000 [-]
	 SCS Same-Spin Energy      =      -0.1376099293525857 [Eh]
	 SCS Opposite-Spin Energy  =      -1.5518693699316031 [Eh]
	 SCS Correlation Energy    =      -1.6894792992841887 [Eh]
	 SCS Total Energy          =    -420.4342705432800926 [Eh]
	-----------------------------------------------------------

  Dipole Moment: [D]
     X:     3.8308      Y:     1.6138      Z:     1.0148     Total:     4.2789

*** Psi4 exiting successfully. Buy a developer a beer!
