                               Psi4 1.3.2 release

  ==> Input File <==

--------------------------------------------------------------------------
#psi4
#
memory 32 gb

molecule  {
0 1
  O        0.5953314    -1.5213989    -0.0564179
  O       -1.9400820     1.1224280     0.2266150
  O       -1.5482610    -1.4485240    -0.4053400
  C        0.3934500     1.4379940    -0.3488290
  C        1.7709580     0.7423380    -0.3578590
  C       -0.6401280     0.6164470     0.4297460
  C        1.7409690    -0.5516630     0.4430470
  C       -0.5671300    -0.8317210    -0.0237270
  H        0.4383430     2.4405150     0.0852910
  H        0.0022100     1.5496010    -1.3639530
  H        2.0656470     0.4995800    -1.3827820
  H        2.5523030     1.3896650     0.0543080
  H       -0.3983570     0.6446350     1.5043810
  H        2.6396080    -1.1506800     0.2905800
  H        1.6294670    -0.3677470     1.5171870
  H       -2.4737670     0.3533780    -0.0616490
units angstrom
no_reorient  #important for SAPT in psi4, default
symmetry c1  #important for SAPT in psi4, default
}

set PROPERTIES_ORIGIN ["COM"]
properties('MP2/aug-cc-pvtz', properties = ['dipole'])
--------------------------------------------------------------------------

    Molecular point group: c1
  Charge       = 0
  Multiplicity = 1
  Basis Set: AUG-CC-PVTZ
    Blend: AUG-CC-PVTZ
  Basis Set: (AUG-CC-PVTZ AUX)
    Blend: AUG-CC-PVTZ-JKFIT

    Orbital Energies [Eh]
    ---------------------

    Doubly Occupied:

       1A    -20.617605     2A    -20.568140     3A    -20.545645
       4A    -11.384766     5A    -11.324822     6A    -11.317209
       7A    -11.261570     8A    -11.252292     9A     -1.452543
      10A     -1.377707    11A     -1.341555    12A     -1.110049
      13A     -1.017705    14A     -0.922052    15A     -0.853577
      16A     -0.763527    17A     -0.736884    18A     -0.705352
      19A     -0.681716    20A     -0.632952    21A     -0.625615
      22A     -0.614847    23A     -0.592275    24A     -0.575319
      25A     -0.557799    26A     -0.529701    27A     -0.520320
      28A     -0.493455    29A     -0.468078    30A     -0.451204
      31A     -0.446312

  @DF-RHF Final Energy:  -418.72859941069805

   => Energetics <=

    Nuclear Repulsion Energy =            398.9704981205608192
    One-Electron Energy =               -1363.9130104249347823
    Two-Electron Energy =                 546.2139128936759107
    Total Energy =                       -418.7285994106980525
  Basis Set: (AUG-CC-PVTZ AUX)
    Blend: AUG-CC-PVTZ-RI
    Molecular point group: c1

    Geometry (in Angstrom), charge = 0, multiplicity = 1:

       Center              X                  Y                   Z               Mass
    ------------   -----------------  -----------------  -----------------  -----------------
         O            0.659012972862    -1.459450888115    -0.044318034351    15.994914619570
         O           -1.876400427138     1.184376011885     0.238714865649    15.994914619570
         O           -1.484579427138    -1.386575988115    -0.393240134351    15.994914619570
         C            0.457131572862     1.499942011885    -0.336729134351    12.000000000000
         C            1.834639572862     0.804286011885    -0.345759134351    12.000000000000
         C           -0.576446427138     0.678395011885     0.441845865649    12.000000000000
         C            1.804650572862    -0.489714988115     0.455146865649    12.000000000000
         C           -0.503448427138    -0.769772988115    -0.011627134351    12.000000000000
         H            0.502024572862     2.502463011885     0.097390865649     1.007825032230
         H            0.065891572862     1.611549011885    -1.351853134351     1.007825032230
         H            2.129328572862     0.561528011885    -1.370682134351     1.007825032230
         H            2.615984572862     1.451613011885     0.066407865649     1.007825032230
         H           -0.334675427138     0.706583011885     1.516480865649     1.007825032230
         H            2.703289572862    -1.088731988115     0.302679865649     1.007825032230
         H            1.693148572862    -0.305798988115     1.529286865649     1.007825032230
         H           -2.410085427138     0.415326011885    -0.049549134351     1.007825032230

  Basis Set: AUG-CC-PVTZ
    Blend: AUG-CC-PVTZ
  Basis Set: (AUG-CC-PVTZ AUX)
    Blend: AUG-CC-PVTZ-JKFIT
	 Reference Energy          =    -418.7285994106980525 [Eh]
	 Singles Energy            =      -0.0000000000000000 [Eh]
	 Same-Spin Energy          =      -0.4136039887795174 [Eh]
	 Opposite-Spin Energy      =      -1.2968945956952045 [Eh]
	 Correlation Energy        =      -1.7104985844747218 [Eh]
	 Total Energy              =    -420.4390979951728013 [Eh]

	 ================> DF-SCS-MP2 Energies <==================
	-----------------------------------------------------------
	 SCS Same-Spin Scale       =       0.3333333333333333 [-]
	 SCS Opposite-Spin Scale   =       1.2000000000000000 [-]
	 SCS Same-Spin Energy      =      -0.1378679962598391 [Eh]
	 SCS Opposite-Spin Energy  =      -1.5562735148342453 [Eh]
	 SCS Correlation Energy    =      -1.6941415110940843 [Eh]
	 SCS Total Energy          =    -420.4227409217921263 [Eh]
	-----------------------------------------------------------

  Dipole Moment: [D]
     X:     4.0950      Y:     1.9661      Z:     1.0807     Total:     4.6693

*** Psi4 exiting successfully. Buy a developer a beer!
