                               Psi4 1.3.2 release

  ==> Input File <==

--------------------------------------------------------------------------
#psi4
#
memory 32 gb

molecule  {
0 1
  O        0.6578240    -1.4038190    -0.0084800
  O       -1.9400820     1.1224280     0.2266150
  O       -1.5482610    -1.4485240    -0.4053400
  C        0.3934500     1.4379940    -0.3488290
  C        1.7709580     0.7423380    -0.3578590
  C       -0.6401280     0.6164470     0.4297460
  C        1.7409690    -0.5516630     0.4430470
  C       -0.6065614    -0.7795830    -0.1686941
  H        0.4383430     2.4405150     0.0852910
  H        0.0022100     1.5496010    -1.3639530
  H        2.0656470     0.4995800    -1.3827820
  H        2.5523030     1.3896650     0.0543080
  H       -0.3983570     0.6446350     1.5043810
  H        2.6396080    -1.1506800     0.2905800
  H        1.6294670    -0.3677470     1.5171870
  H       -2.4737670     0.3533780    -0.0616490
units angstrom
no_reorient  #important for SAPT in psi4, default
symmetry c1  #important for SAPT in psi4, default
}

set PROPERTIES_ORIGIN ["COM"]
properties('MP2/aug-cc-pvtz', properties = ['dipole'])
--------------------------------------------------------------------------

    Molecular point group: c1
  Charge       = 0
  Multiplicity = 1
  Basis Set: AUG-CC-PVTZ
    Blend: AUG-CC-PVTZ
  Basis Set: (AUG-CC-PVTZ AUX)
    Blend: AUG-CC-PVTZ-JKFIT

    Orbital Energies [Eh]
    ---------------------

    Doubly Occupied:

       1A    -20.602182     2A    -20.572360     3A    -20.568100
       4A    -11.393865     5A    -11.314990     6A    -11.305376
       7A    -11.251071     8A    -11.247841     9A     -1.466533
      10A     -1.382037    11A     -1.370113    12A     -1.099621
      13A     -1.019443    14A     -0.909387    15A     -0.859653
      16A     -0.766224    17A     -0.735092    18A     -0.713614
      19A     -0.689121    20A     -0.643364    21A     -0.631673
      22A     -0.619421    23A     -0.583257    24A     -0.572318
      25A     -0.559582    26A     -0.534771    27A     -0.516912
      28A     -0.503707    29A     -0.469524    30A     -0.450194
      31A     -0.443236

  @DF-RHF Final Energy:  -418.73192405551441

   => Energetics <=

    Nuclear Repulsion Energy =            401.5833154948777519
    One-Electron Energy =               -1369.0413240002433213
    Two-Electron Energy =                 548.7260844498512142
    Total Energy =                       -418.7319240555143551
  Basis Set: (AUG-CC-PVTZ AUX)
    Blend: AUG-CC-PVTZ-RI
    Molecular point group: c1

    Geometry (in Angstrom), charge = 0, multiplicity = 1:

       Center              X                  Y                   Z               Mass
    ------------   -----------------  -----------------  -----------------  -----------------
         O            0.716969605190    -1.363468522126     0.012003018144    15.994914619570
         O           -1.880936394810     1.162778477874     0.247098018144    15.994914619570
         O           -1.489115394810    -1.408173522126    -0.384856981856    15.994914619570
         C            0.452595605190     1.478344477874    -0.328345981856    12.000000000000
         C            1.830103605190     0.782688477874    -0.337375981856    12.000000000000
         C           -0.580982394810     0.656797477874     0.450229018144    12.000000000000
         C            1.800114605190    -0.511312522126     0.463530018144    12.000000000000
         C           -0.547415794810    -0.739232522126    -0.148211081856    12.000000000000
         H            0.497488605190     2.480865477874     0.105774018144     1.007825032230
         H            0.061355605190     1.589951477874    -1.343469981856     1.007825032230
         H            2.124792605190     0.539930477874    -1.362298981856     1.007825032230
         H            2.611448605190     1.430015477874     0.074791018144     1.007825032230
         H           -0.339211394810     0.684985477874     1.524864018144     1.007825032230
         H            2.698753605190    -1.110329522126     0.311063018144     1.007825032230
         H            1.688612605190    -0.327396522126     1.537670018144     1.007825032230
         H           -2.414621394810     0.393728477874    -0.041165981856     1.007825032230

  Basis Set: AUG-CC-PVTZ
    Blend: AUG-CC-PVTZ
  Basis Set: (AUG-CC-PVTZ AUX)
    Blend: AUG-CC-PVTZ-JKFIT
	 Reference Energy          =    -418.7319240555144120 [Eh]
	 Singles Energy            =      -0.0000000000000000 [Eh]
	 Same-Spin Energy          =      -0.4127067089095827 [Eh]
	 Opposite-Spin Energy      =      -1.2938750988958732 [Eh]
	 Correlation Energy        =      -1.7065818078054558 [Eh]
	 Total Energy              =    -420.4385058633198469 [Eh]

	 ================> DF-SCS-MP2 Energies <==================
	-----------------------------------------------------------
	 SCS Same-Spin Scale       =       0.3333333333333333 [-]
	 SCS Opposite-Spin Scale   =       1.2000000000000000 [-]
	 SCS Same-Spin Energy      =      -0.1375689029698609 [Eh]
	 SCS Opposite-Spin Energy  =      -1.5526501186750477 [Eh]
	 SCS Correlation Energy    =      -1.6902190216449084 [Eh]
	 SCS Total Energy          =    -420.4221430771593191 [Eh]
	-----------------------------------------------------------

  Dipole Moment: [D]
     X:     3.2564      Y:     1.6607      Z:     0.7443     Total:     3.7304

*** Psi4 exiting successfully. Buy a developer a beer!
