                               Psi4 1.3.2 release

  ==> Input File <==

--------------------------------------------------------------------------
#psi4
#
memory 32 gb

molecule  {
0 1
  O        0.6578240    -1.4038190    -0.0084800
  O       -1.9400820     1.1224280     0.2266150
  O       -1.5482610    -1.4485240    -0.4053400
  C        0.3934500     1.4379940    -0.3488290
  C        1.7709580     0.7423380    -0.3578590
  C       -0.6401280     0.6164470     0.4297460
  C        1.7409690    -0.5516630     0.4430470
  C       -0.5623252    -0.9270415    -0.0535752
  H        0.4383430     2.4405150     0.0852910
  H        0.0022100     1.5496010    -1.3639530
  H        2.0656470     0.4995800    -1.3827820
  H        2.5523030     1.3896650     0.0543080
  H       -0.3983570     0.6446350     1.5043810
  H        2.6396080    -1.1506800     0.2905800
  H        1.6294670    -0.3677470     1.5171870
  H       -2.4737670     0.3533780    -0.0616490
units angstrom
no_reorient  #important for SAPT in psi4, default
symmetry c1  #important for SAPT in psi4, default
}

set PROPERTIES_ORIGIN ["COM"]
properties('MP2/aug-cc-pvtz', properties = ['dipole'])
--------------------------------------------------------------------------

    Molecular point group: c1
  Charge       = 0
  Multiplicity = 1
  Basis Set: AUG-CC-PVTZ
    Blend: AUG-CC-PVTZ
  Basis Set: (AUG-CC-PVTZ AUX)
    Blend: AUG-CC-PVTZ-JKFIT

    Orbital Energies [Eh]
    ---------------------

    Doubly Occupied:

       1A    -20.619845     2A    -20.560888     3A    -20.558241
       4A    -11.387231     5A    -11.318216     6A    -11.305171
       7A    -11.253195     8A    -11.243240     9A     -1.486762
      10A     -1.404874    11A     -1.362642    12A     -1.099498
      13A     -1.017069    14A     -0.909039    15A     -0.861625
      16A     -0.754802    17A     -0.748224    18A     -0.712618
      19A     -0.693945    20A     -0.646164    21A     -0.640331
      22A     -0.617483    23A     -0.594358    24A     -0.573987
      25A     -0.557775    26A     -0.530190    27A     -0.516129
      28A     -0.504793    29A     -0.475394    30A     -0.445989
      31A     -0.423417

  @DF-RHF Final Energy:  -418.74220878548749

   => Energetics <=

    Nuclear Repulsion Energy =            401.3896478038726059
    One-Electron Energy =               -1368.6174428334138611
    Two-Electron Energy =                 548.4855862440538203
    Total Energy =                       -418.7422087854874917
  Basis Set: (AUG-CC-PVTZ AUX)
    Blend: AUG-CC-PVTZ-RI
    Molecular point group: c1

    Geometry (in Angstrom), charge = 0, multiplicity = 1:

       Center              X                  Y                   Z               Mass
    ------------   -----------------  -----------------  -----------------  -----------------
         O            0.712395313516    -1.348220417885     0.000099024903    15.994914619570
         O           -1.885510686484     1.178026582115     0.235194024903    15.994914619570
         O           -1.493689686484    -1.392925417885    -0.396760975097    15.994914619570
         C            0.448021313516     1.493592582115    -0.340249975097    12.000000000000
         C            1.825529313516     0.797936582115    -0.349279975097    12.000000000000
         C           -0.585556686484     0.672045582115     0.438325024903    12.000000000000
         C            1.795540313516    -0.496064417885     0.451626024903    12.000000000000
         C           -0.507753886484    -0.871442917885    -0.044996175097    12.000000000000
         H            0.492914313516     2.496113582115     0.093870024903     1.007825032230
         H            0.056781313516     1.605199582115    -1.355373975097     1.007825032230
         H            2.120218313516     0.555178582115    -1.374202975097     1.007825032230
         H            2.606874313516     1.445263582115     0.062887024903     1.007825032230
         H           -0.343785686484     0.700233582115     1.512960024903     1.007825032230
         H            2.694179313516    -1.095081417885     0.299159024903     1.007825032230
         H            1.684038313516    -0.312148417885     1.525766024903     1.007825032230
         H           -2.419195686484     0.408976582115    -0.053069975097     1.007825032230

  Basis Set: AUG-CC-PVTZ
    Blend: AUG-CC-PVTZ
  Basis Set: (AUG-CC-PVTZ AUX)
    Blend: AUG-CC-PVTZ-JKFIT
	 Reference Energy          =    -418.7422087854874917 [Eh]
	 Singles Energy            =      -0.0000000000000000 [Eh]
	 Same-Spin Energy          =      -0.4106829604972494 [Eh]
	 Opposite-Spin Energy      =      -1.2887174935502392 [Eh]
	 Correlation Energy        =      -1.6994004540474887 [Eh]
	 Total Energy              =    -420.4416092395349551 [Eh]

	 ================> DF-SCS-MP2 Energies <==================
	-----------------------------------------------------------
	 SCS Same-Spin Scale       =       0.3333333333333333 [-]
	 SCS Opposite-Spin Scale   =       1.2000000000000000 [-]
	 SCS Same-Spin Energy      =      -0.1368943201657498 [Eh]
	 SCS Opposite-Spin Energy  =      -1.5464609922602870 [Eh]
	 SCS Correlation Energy    =      -1.6833553124260368 [Eh]
	 SCS Total Energy          =    -420.4255640979135364 [Eh]
	-----------------------------------------------------------

  Dipole Moment: [D]
     X:     3.9039      Y:     1.1785      Z:     0.8721     Total:     4.1701

*** Psi4 exiting successfully. Buy a developer a beer!
