                               Psi4 1.3.2 release

  ==> Input File <==

--------------------------------------------------------------------------
#psi4
#
memory 32 gb

molecule  {
0 1
  O        0.6578240    -1.4038190    -0.0084800
  O       -1.9751117     0.9894454     0.1731334
  O       -1.5482610    -1.4485240    -0.4053400
  C        0.3934500     1.4379940    -0.3488290
  C        1.7709580     0.7423380    -0.3578590
  C       -0.6401280     0.6164470     0.4297460
  C        1.7409690    -0.5516630     0.4430470
  C       -0.5671300    -0.8317210    -0.0237270
  H        0.4383430     2.4405150     0.0852910
  H        0.0022100     1.5496010    -1.3639530
  H        2.0656470     0.4995800    -1.3827820
  H        2.5523030     1.3896650     0.0543080
  H       -0.3983570     0.6446350     1.5043810
  H        2.6396080    -1.1506800     0.2905800
  H        1.6294670    -0.3677470     1.5171870
  H       -2.4737670     0.3533780    -0.0616490
units angstrom
no_reorient  #important for SAPT in psi4, default
symmetry c1  #important for SAPT in psi4, default
}

set PROPERTIES_ORIGIN ["COM"]
properties('MP2/aug-cc-pvtz', properties = ['dipole'])
--------------------------------------------------------------------------

    Molecular point group: c1
  Charge       = 0
  Multiplicity = 1
  Basis Set: AUG-CC-PVTZ
    Blend: AUG-CC-PVTZ
  Basis Set: (AUG-CC-PVTZ AUX)
    Blend: AUG-CC-PVTZ-JKFIT

    Orbital Energies [Eh]
    ---------------------

    Doubly Occupied:

       1A    -20.615927     2A    -20.551588     3A    -20.549394
       4A    -11.388717     5A    -11.317734     6A    -11.314259
       7A    -11.256651     8A    -11.252820     9A     -1.466476
      10A     -1.406692    11A     -1.360177    12A     -1.108099
      13A     -1.031221    14A     -0.923242    15A     -0.868086
      16A     -0.782603    17A     -0.743563    18A     -0.718925
      19A     -0.690726    20A     -0.654839    21A     -0.629397
      22A     -0.621495    23A     -0.594646    24A     -0.571007
      25A     -0.550788    26A     -0.534271    27A     -0.516419
      28A     -0.499258    29A     -0.469255    30A     -0.452443
      31A     -0.443346

  @DF-RHF Final Energy:  -418.72869172691469

   => Energetics <=

    Nuclear Repulsion Energy =            403.2940608036850563
    One-Electron Energy =               -1372.2773735035968912
    Two-Electron Energy =                 550.2546209729971451
    Total Energy =                       -418.7286917269146898
  Basis Set: (AUG-CC-PVTZ AUX)
    Blend: AUG-CC-PVTZ-RI
    Molecular point group: c1

    Geometry (in Angstrom), charge = 0, multiplicity = 1:

       Center              X                  Y                   Z               Mass
    ------------   -----------------  -----------------  -----------------  -----------------
         O            0.717720335517    -1.339748019482     0.004383959035    15.994914619570
         O           -1.915215364483     1.053516380518     0.185997359035    15.994914619570
         O           -1.488364664483    -1.384453019482    -0.392476040965    15.994914619570
         C            0.453346335517     1.502064980518    -0.335965040965    12.000000000000
         C            1.830854335517     0.806408980518    -0.344995040965    12.000000000000
         C           -0.580231664483     0.680517980518     0.442609959035    12.000000000000
         C            1.800865335517    -0.487592019482     0.455910959035    12.000000000000
         C           -0.507233664483    -0.767650019482    -0.010863040965    12.000000000000
         H            0.498239335517     2.504585980518     0.098154959035     1.007825032230
         H            0.062106335517     1.613671980518    -1.351089040965     1.007825032230
         H            2.125543335517     0.563650980518    -1.369918040965     1.007825032230
         H            2.612199335517     1.453735980518     0.067171959035     1.007825032230
         H           -0.338460664483     0.708705980518     1.517244959035     1.007825032230
         H            2.699504335517    -1.086609019482     0.303443959035     1.007825032230
         H            1.689363335517    -0.303676019482     1.530050959035     1.007825032230
         H           -2.413870664483     0.417448980518    -0.048785040965     1.007825032230

  Basis Set: AUG-CC-PVTZ
    Blend: AUG-CC-PVTZ
  Basis Set: (AUG-CC-PVTZ AUX)
    Blend: AUG-CC-PVTZ-JKFIT
	 Reference Energy          =    -418.7286917269146898 [Eh]
	 Singles Energy            =      -0.0000000000000000 [Eh]
	 Same-Spin Energy          =      -0.4106355038193404 [Eh]
	 Opposite-Spin Energy      =      -1.2883784011688117 [Eh]
	 Correlation Energy        =      -1.6990139049881523 [Eh]
	 Total Energy              =    -420.4277056319028247 [Eh]

	 ================> DF-SCS-MP2 Energies <==================
	-----------------------------------------------------------
	 SCS Same-Spin Scale       =       0.3333333333333333 [-]
	 SCS Opposite-Spin Scale   =       1.2000000000000000 [-]
	 SCS Same-Spin Energy      =      -0.1368785012731135 [Eh]
	 SCS Opposite-Spin Energy  =      -1.5460540814025741 [Eh]
	 SCS Correlation Energy    =      -1.6829325826756876 [Eh]
	 SCS Total Energy          =    -420.4116243095903656 [Eh]
	-----------------------------------------------------------

  Dipole Moment: [D]
     X:     3.9554      Y:     1.8887      Z:     1.0789     Total:     4.5140

*** Psi4 exiting successfully. Buy a developer a beer!
