                               Psi4 1.3.2 release

  ==> Input File <==

--------------------------------------------------------------------------
#psi4
#
memory 32 gb

molecule  {
0 1
  O        0.6578240    -1.4038190    -0.0084800
  O       -1.9400820     1.1224280     0.2266150
  O       -1.5482610    -1.4485240    -0.4053400
  C        0.3934500     1.4379940    -0.3488290
  C        1.7709580     0.7423380    -0.3578590
  C       -0.6401280     0.6164470     0.4297460
  C        1.7409690    -0.5516630     0.4430470
  C       -0.5412604    -0.8576931     0.0757784
  H        0.4383430     2.4405150     0.0852910
  H        0.0022100     1.5496010    -1.3639530
  H        2.0656470     0.4995800    -1.3827820
  H        2.5523030     1.3896650     0.0543080
  H       -0.3983570     0.6446350     1.5043810
  H        2.6396080    -1.1506800     0.2905800
  H        1.6294670    -0.3677470     1.5171870
  H       -2.4737670     0.3533780    -0.0616490
units angstrom
no_reorient  #important for SAPT in psi4, default
symmetry c1  #important for SAPT in psi4, default
}

set PROPERTIES_ORIGIN ["COM"]
properties('MP2/aug-cc-pvtz', properties = ['dipole'])
--------------------------------------------------------------------------

    Molecular point group: c1
  Charge       = 0
  Multiplicity = 1
  Basis Set: AUG-CC-PVTZ
    Blend: AUG-CC-PVTZ
  Basis Set: (AUG-CC-PVTZ AUX)
    Blend: AUG-CC-PVTZ-JKFIT

    Orbital Energies [Eh]
    ---------------------

    Doubly Occupied:

       1A    -20.629425     2A    -20.566399     3A    -20.547891
       4A    -11.396104     5A    -11.319142     6A    -11.314417
       7A    -11.257041     8A    -11.251741     9A     -1.478600
      10A     -1.380139    11A     -1.338489    12A     -1.106379
      13A     -1.028691    14A     -0.924373    15A     -0.872639
      16A     -0.761263    17A     -0.750333    18A     -0.708431
      19A     -0.693272    20A     -0.644950    21A     -0.623208
      22A     -0.619507    23A     -0.597644    24A     -0.573943
      25A     -0.551857    26A     -0.528581    27A     -0.517623
      28A     -0.496709    29A     -0.466530    30A     -0.448034
      31A     -0.441939

  @DF-RHF Final Energy:  -418.73554641988426

   => Energetics <=

    Nuclear Repulsion Energy =            401.2818403490275045
    One-Electron Energy =               -1368.3641875288283245
    Two-Electron Energy =                 548.3468007599165048
    Total Energy =                       -418.7355464198842583
  Basis Set: (AUG-CC-PVTZ AUX)
    Blend: AUG-CC-PVTZ-RI
    Molecular point group: c1

    Geometry (in Angstrom), charge = 0, multiplicity = 1:

       Center              X                  Y                   Z               Mass
    ------------   -----------------  -----------------  -----------------  -----------------
         O            0.710217085294    -1.355391463516    -0.013276922748    15.994914619570
         O           -1.887688914706     1.170855536484     0.221818077252    15.994914619570
         O           -1.495867914706    -1.400096463516    -0.410136922748    15.994914619570
         C            0.445843085294     1.486421536484    -0.353625922748    12.000000000000
         C            1.823351085294     0.790765536484    -0.362655922748    12.000000000000
         C           -0.587734914706     0.664874536484     0.424949077252    12.000000000000
         C            1.793362085294    -0.503235463516     0.438250077252    12.000000000000
         C           -0.488867314706    -0.809265563516     0.070981477252    12.000000000000
         H            0.490736085294     2.488942536484     0.080494077252     1.007825032230
         H            0.054603085294     1.598028536484    -1.368749922748     1.007825032230
         H            2.118040085294     0.548007536484    -1.387578922748     1.007825032230
         H            2.604696085294     1.438092536484     0.049511077252     1.007825032230
         H           -0.345963914706     0.693062536484     1.499584077252     1.007825032230
         H            2.692001085294    -1.102252463516     0.285783077252     1.007825032230
         H            1.681860085294    -0.319319463516     1.512390077252     1.007825032230
         H           -2.421373914706     0.401805536484    -0.066445922748     1.007825032230

  Basis Set: AUG-CC-PVTZ
    Blend: AUG-CC-PVTZ
  Basis Set: (AUG-CC-PVTZ AUX)
    Blend: AUG-CC-PVTZ-JKFIT
	 Reference Energy          =    -418.7355464198842583 [Eh]
	 Singles Energy            =      -0.0000000000000000 [Eh]
	 Same-Spin Energy          =      -0.4136321444366495 [Eh]
	 Opposite-Spin Energy      =      -1.2947345424585612 [Eh]
	 Correlation Energy        =      -1.7083666868952108 [Eh]
	 Total Energy              =    -420.4439131067794619 [Eh]

	 ================> DF-SCS-MP2 Energies <==================
	-----------------------------------------------------------
	 SCS Same-Spin Scale       =       0.3333333333333333 [-]
	 SCS Opposite-Spin Scale   =       1.2000000000000000 [-]
	 SCS Same-Spin Energy      =      -0.1378773814788832 [Eh]
	 SCS Opposite-Spin Energy  =      -1.5536814509502734 [Eh]
	 SCS Correlation Energy    =      -1.6915588324291566 [Eh]
	 SCS Total Energy          =    -420.4271052523134244 [Eh]
	-----------------------------------------------------------

  Dipole Moment: [D]
     X:     4.2017      Y:     1.6738      Z:     1.1153     Total:     4.6583

*** Psi4 exiting successfully. Buy a developer a beer!
