                               Psi4 1.3.2 release

  ==> Input File <==

--------------------------------------------------------------------------
#psi4
#
memory 32 gb

molecule  {
0 1
  O        0.6669510    -1.3835771    -0.0004924
  O       -1.9400820     1.1224280     0.2266150
  O       -1.5482610    -1.4485240    -0.4053400
  C        0.3934500     1.4379940    -0.3488290
  C        1.7709580     0.7423380    -0.3578590
  C       -0.6401280     0.6164470     0.4297460
  C        1.7409690    -0.5516630     0.4430470
  C       -0.5671300    -0.8317210    -0.0237270
  H        0.4383430     2.4405150     0.0852910
  H        0.0022100     1.5496010    -1.3639530
  H        2.0656470     0.4995800    -1.3827820
  H        2.5523030     1.3896650     0.0543080
  H       -0.3983570     0.6446350     1.5043810
  H        2.6396080    -1.1506800     0.2905800
  H        1.6294670    -0.3677470     1.5171870
  H       -2.4737670     0.3533780    -0.0616490
units angstrom
no_reorient  #important for SAPT in psi4, default
symmetry c1  #important for SAPT in psi4, default
}

set PROPERTIES_ORIGIN ["COM"]
properties('MP2/aug-cc-pvtz', properties = ['dipole'])
--------------------------------------------------------------------------

    Molecular point group: c1
  Charge       = 0
  Multiplicity = 1
  Basis Set: AUG-CC-PVTZ
    Blend: AUG-CC-PVTZ
  Basis Set: (AUG-CC-PVTZ AUX)
    Blend: AUG-CC-PVTZ-JKFIT

    Orbital Energies [Eh]
    ---------------------

    Doubly Occupied:

       1A    -20.618955     2A    -20.566329     3A    -20.558342
       4A    -11.394705     5A    -11.312608     6A    -11.312508
       7A    -11.253498     8A    -11.249430     9A     -1.471448
      10A     -1.387290    11A     -1.359996    12A     -1.102361
      13A     -1.027273    14A     -0.918208    15A     -0.870111
      16A     -0.760719    17A     -0.746744    18A     -0.711631
      19A     -0.693345    20A     -0.643006    21A     -0.634656
      22A     -0.619157    23A     -0.592136    24A     -0.572072
      25A     -0.553694    26A     -0.532311    27A     -0.515903
      28A     -0.501848    29A     -0.469980    30A     -0.449886
      31A     -0.444690

  @DF-RHF Final Energy:  -418.74657574145556

   => Energetics <=

    Nuclear Repulsion Energy =            402.0822390678250713
    One-Electron Energy =               -1369.9679486995719344
    Two-Electron Energy =                 549.1391338902913049
    Total Energy =                       -418.7465757414555583
  Basis Set: (AUG-CC-PVTZ AUX)
    Blend: AUG-CC-PVTZ-RI
    Molecular point group: c1

    Geometry (in Angstrom), charge = 0, multiplicity = 1:

       Center              X                  Y                   Z               Mass
    ------------   -----------------  -----------------  -----------------  -----------------
         O            0.720761176013    -1.340625196475     0.003899201368    15.994914619570
         O           -1.886271823987     1.165379903525     0.231006601368    15.994914619570
         O           -1.494450823987    -1.405572096475    -0.400948398632    15.994914619570
         C            0.447260176013     1.480945903525    -0.344437398632    12.000000000000
         C            1.824768176013     0.785289903525    -0.353467398632    12.000000000000
         C           -0.586317823987     0.659398903525     0.434137601368    12.000000000000
         C            1.794779176013    -0.508711096475     0.447438601368    12.000000000000
         C           -0.513319823987    -0.788769096475    -0.019335398632    12.000000000000
         H            0.492153176013     2.483466903525     0.089682601368     1.007825032230
         H            0.056020176013     1.592552903525    -1.359561398632     1.007825032230
         H            2.119457176013     0.542531903525    -1.378390398632     1.007825032230
         H            2.606113176013     1.432616903525     0.058699601368     1.007825032230
         H           -0.344546823987     0.687586903525     1.508772601368     1.007825032230
         H            2.693418176013    -1.107728096475     0.294971601368     1.007825032230
         H            1.683277176013    -0.324795096475     1.521578601368     1.007825032230
         H           -2.419956823987     0.396329903525    -0.057257398632     1.007825032230

  Basis Set: AUG-CC-PVTZ
    Blend: AUG-CC-PVTZ
  Basis Set: (AUG-CC-PVTZ AUX)
    Blend: AUG-CC-PVTZ-JKFIT
	 Reference Energy          =    -418.7465757414555583 [Eh]
	 Singles Energy            =      -0.0000000000000000 [Eh]
	 Same-Spin Energy          =      -0.4125192945869293 [Eh]
	 Opposite-Spin Energy      =      -1.2921751793917835 [Eh]
	 Correlation Energy        =      -1.7046944739787129 [Eh]
	 Total Energy              =    -420.4512702154342492 [Eh]

	 ================> DF-SCS-MP2 Energies <==================
	-----------------------------------------------------------
	 SCS Same-Spin Scale       =       0.3333333333333333 [-]
	 SCS Opposite-Spin Scale   =       1.2000000000000000 [-]
	 SCS Same-Spin Energy      =      -0.1375064315289764 [Eh]
	 SCS Opposite-Spin Energy  =      -1.5506102152701402 [Eh]
	 SCS Correlation Energy    =      -1.6881166467991167 [Eh]
	 SCS Total Energy          =    -420.4346923882546889 [Eh]
	-----------------------------------------------------------

  Dipole Moment: [D]
     X:     3.8125      Y:     1.5864      Z:     0.9637     Total:     4.2403

*** Psi4 exiting successfully. Buy a developer a beer!
