                               Psi4 1.3.2 release

  ==> Input File <==

--------------------------------------------------------------------------
#psi4
#
memory 32 gb

molecule  {
0 1
  O        0.6578240    -1.4038190    -0.0084800
  O       -1.9400820     1.1224280     0.2266150
  O       -1.5482610    -1.4485240    -0.4053400
  C        0.3934500     1.4379940    -0.3488290
  C        1.7903547     0.7832116    -0.3870937
  C       -0.6401280     0.6164470     0.4297460
  C        1.7409690    -0.5516630     0.4430470
  C       -0.5671300    -0.8317210    -0.0237270
  H        0.4383430     2.4405150     0.0852910
  H        0.0022100     1.5496010    -1.3639530
  H        2.0656470     0.4995800    -1.3827820
  H        2.5523030     1.3896650     0.0543080
  H       -0.3983570     0.6446350     1.5043810
  H        2.6396080    -1.1506800     0.2905800
  H        1.6294670    -0.3677470     1.5171870
  H       -2.4737670     0.3533780    -0.0616490
units angstrom
no_reorient  #important for SAPT in psi4, default
symmetry c1  #important for SAPT in psi4, default
}

set PROPERTIES_ORIGIN ["COM"]
properties('MP2/aug-cc-pvtz', properties = ['dipole'])
--------------------------------------------------------------------------

    Molecular point group: c1
  Charge       = 0
  Multiplicity = 1
  Basis Set: AUG-CC-PVTZ
    Blend: AUG-CC-PVTZ
  Basis Set: (AUG-CC-PVTZ AUX)
    Blend: AUG-CC-PVTZ-JKFIT

    Orbital Energies [Eh]
    ---------------------

    Doubly Occupied:

       1A    -20.619524     2A    -20.567055     3A    -20.556389
       4A    -11.392987     5A    -11.315531     6A    -11.313701
       7A    -11.253693     8A    -11.249575     9A     -1.467424
      10A     -1.385061    11A     -1.358333    12A     -1.099859
      13A     -1.021172    14A     -0.919723    15A     -0.868628
      16A     -0.762391    17A     -0.744442    18A     -0.709178
      19A     -0.689216    20A     -0.641751    21A     -0.629882
      22A     -0.625238    23A     -0.591674    24A     -0.573786
      25A     -0.549229    26A     -0.535939    27A     -0.513043
      28A     -0.505249    29A     -0.469389    30A     -0.448735
      31A     -0.444796

  @DF-RHF Final Energy:  -418.74382336370036

   => Energetics <=

    Nuclear Repulsion Energy =            400.7889936068635279
    One-Electron Energy =               -1367.4204479659895242
    Two-Electron Energy =                 547.8876309954256385
    Total Energy =                       -418.7438233637003577
  Basis Set: (AUG-CC-PVTZ AUX)
    Blend: AUG-CC-PVTZ-RI
    Molecular point group: c1

    Geometry (in Angstrom), charge = 0, multiplicity = 1:

       Center              X                  Y                   Z               Mass
    ------------   -----------------  -----------------  -----------------  -----------------
         O            0.710886422456    -1.362303714771     0.000035585278    15.994914619570
         O           -1.887019577544     1.163943285229     0.235130585278    15.994914619570
         O           -1.495198577544    -1.407008714771    -0.396824414722    15.994914619570
         C            0.446512422456     1.479509285229    -0.340313414722    12.000000000000
         C            1.843417122456     0.824726885229    -0.378578114722    12.000000000000
         C           -0.587065577544     0.657962285229     0.438261585278    12.000000000000
         C            1.794031422456    -0.510147714771     0.451562585278    12.000000000000
         C           -0.514067577544    -0.790205714771    -0.015211414722    12.000000000000
         H            0.491405422456     2.482030285229     0.093806585278     1.007825032230
         H            0.055272422456     1.591116285229    -1.355437414722     1.007825032230
         H            2.118709422456     0.541095285229    -1.374266414722     1.007825032230
         H            2.605365422456     1.431180285229     0.062823585278     1.007825032230
         H           -0.345294577544     0.686150285229     1.512896585278     1.007825032230
         H            2.692670422456    -1.109164714771     0.299095585278     1.007825032230
         H            1.682529422456    -0.326231714771     1.525702585278     1.007825032230
         H           -2.420704577544     0.394893285229    -0.053133414722     1.007825032230

  Basis Set: AUG-CC-PVTZ
    Blend: AUG-CC-PVTZ
  Basis Set: (AUG-CC-PVTZ AUX)
    Blend: AUG-CC-PVTZ-JKFIT
	 Reference Energy          =    -418.7438233637003577 [Eh]
	 Singles Energy            =      -0.0000000000000000 [Eh]
	 Same-Spin Energy          =      -0.4123804023532954 [Eh]
	 Opposite-Spin Energy      =      -1.2926114525563313 [Eh]
	 Correlation Energy        =      -1.7049918549096266 [Eh]
	 Total Energy              =    -420.4488152186099796 [Eh]

	 ================> DF-SCS-MP2 Energies <==================
	-----------------------------------------------------------
	 SCS Same-Spin Scale       =       0.3333333333333333 [-]
	 SCS Opposite-Spin Scale   =       1.2000000000000000 [-]
	 SCS Same-Spin Energy      =      -0.1374601341177651 [Eh]
	 SCS Opposite-Spin Energy  =      -1.5511337430675975 [Eh]
	 SCS Correlation Energy    =      -1.6885938771853626 [Eh]
	 SCS Total Energy          =    -420.4324172408857407 [Eh]
	-----------------------------------------------------------

  Dipole Moment: [D]
     X:     3.8563      Y:     1.6337      Z:     0.9837     Total:     4.3021

*** Psi4 exiting successfully. Buy a developer a beer!
