                               Psi4 1.3.2 release

  ==> Input File <==

--------------------------------------------------------------------------
#psi4
#
memory 32 gb

molecule  {
0 1
  O        0.6578240    -1.4038190    -0.0084800
  O       -1.9400820     1.1224280     0.2266150
  O       -1.5482610    -1.4485240    -0.4053400
  C        0.3934500     1.4379940    -0.3488290
  C        1.7709580     0.7423380    -0.3578590
  C       -0.6401280     0.6164470     0.4297460
  C        1.6728721    -0.4778505     0.4557498
  C       -0.5671300    -0.8317210    -0.0237270
  H        0.4383430     2.4405150     0.0852910
  H        0.0022100     1.5496010    -1.3639530
  H        2.0656470     0.4995800    -1.3827820
  H        2.5523030     1.3896650     0.0543080
  H       -0.3983570     0.6446350     1.5043810
  H        2.6396080    -1.1506800     0.2905800
  H        1.6294670    -0.3677470     1.5171870
  H       -2.4737670     0.3533780    -0.0616490
units angstrom
no_reorient  #important for SAPT in psi4, default
symmetry c1  #important for SAPT in psi4, default
}

set PROPERTIES_ORIGIN ["COM"]
properties('MP2/aug-cc-pvtz', properties = ['dipole'])
--------------------------------------------------------------------------

    Molecular point group: c1
  Charge       = 0
  Multiplicity = 1
  Basis Set: AUG-CC-PVTZ
    Blend: AUG-CC-PVTZ
  Basis Set: (AUG-CC-PVTZ AUX)
    Blend: AUG-CC-PVTZ-JKFIT

    Orbital Energies [Eh]
    ---------------------

    Doubly Occupied:

       1A    -20.622990     2A    -20.567623     3A    -20.557001
       4A    -11.392666     5A    -11.316055     6A    -11.314345
       7A    -11.253707     8A    -11.249460     9A     -1.471446
      10A     -1.386553    11A     -1.359592    12A     -1.113056
      13A     -1.024733    14A     -0.918448    15A     -0.867848
      16A     -0.763657    17A     -0.750945    18A     -0.705639
      19A     -0.696581    20A     -0.644481    21A     -0.629259
      22A     -0.612306    23A     -0.594249    24A     -0.573514
      25A     -0.564756    26A     -0.532047    27A     -0.505449
      28A     -0.501349    29A     -0.473780    30A     -0.454719
      31A     -0.441287

  @DF-RHF Final Energy:  -418.73305037284626

   => Energetics <=

    Nuclear Repulsion Energy =            402.9779890905990101
    One-Electron Energy =               -1371.7029869692819375
    Two-Electron Energy =                 549.9919475058366061
    Total Energy =                       -418.7330503728462645
  Basis Set: (AUG-CC-PVTZ AUX)
    Blend: AUG-CC-PVTZ-RI
    Molecular point group: c1

    Geometry (in Angstrom), charge = 0, multiplicity = 1:

       Center              X                  Y                   Z               Mass
    ------------   -----------------  -----------------  -----------------  -----------------
         O            0.719933791942    -1.365709797030    -0.004301006859    15.994914619570
         O           -1.877972208058     1.160537202970     0.230793993141    15.994914619570
         O           -1.486151208058    -1.410414797030    -0.401161006859    15.994914619570
         C            0.455559791942     1.476103202970    -0.344650006859    12.000000000000
         C            1.833067791942     0.780447202970    -0.353680006859    12.000000000000
         C           -0.578018208058     0.654556202970     0.433924993141    12.000000000000
         C            1.734981891942    -0.439741297030     0.459928793141    12.000000000000
         C           -0.505020208058    -0.793611797030    -0.019548006859    12.000000000000
         H            0.500452791942     2.478624202970     0.089469993141     1.007825032230
         H            0.064319791942     1.587710202970    -1.359774006859     1.007825032230
         H            2.127756791942     0.537689202970    -1.378603006859     1.007825032230
         H            2.614412791942     1.427774202970     0.058486993141     1.007825032230
         H           -0.336247208058     0.682744202970     1.508559993141     1.007825032230
         H            2.701717791942    -1.112570797030     0.294758993141     1.007825032230
         H            1.691576791942    -0.329637797030     1.521365993141     1.007825032230
         H           -2.411657208058     0.391487202970    -0.057470006859     1.007825032230

  Basis Set: AUG-CC-PVTZ
    Blend: AUG-CC-PVTZ
  Basis Set: (AUG-CC-PVTZ AUX)
    Blend: AUG-CC-PVTZ-JKFIT
	 Reference Energy          =    -418.7330503728462645 [Eh]
	 Singles Energy            =      -0.0000000000000000 [Eh]
	 Same-Spin Energy          =      -0.4136984461860304 [Eh]
	 Opposite-Spin Energy      =      -1.2945377560834250 [Eh]
	 Correlation Energy        =      -1.7082362022694553 [Eh]
	 Total Energy              =    -420.4412865751157256 [Eh]

	 ================> DF-SCS-MP2 Energies <==================
	-----------------------------------------------------------
	 SCS Same-Spin Scale       =       0.3333333333333333 [-]
	 SCS Opposite-Spin Scale   =       1.2000000000000000 [-]
	 SCS Same-Spin Energy      =      -0.1378994820620101 [Eh]
	 SCS Opposite-Spin Energy  =      -1.5534453073001100 [Eh]
	 SCS Correlation Energy    =      -1.6913447893621201 [Eh]
	 SCS Total Energy          =    -420.4243951622083841 [Eh]
	-----------------------------------------------------------

  Dipole Moment: [D]
     X:     3.7427      Y:     1.7450      Z:     0.9833     Total:     4.2449

*** Psi4 exiting successfully. Buy a developer a beer!
