                               Psi4 1.3.2 release

  ==> Input File <==

--------------------------------------------------------------------------
#psi4
#
memory 32 gb

molecule  {
0 1
  O        0.6578240    -1.4038190    -0.0084800
  O       -1.9733055     1.0513320     0.2859682
  O       -1.5482610    -1.4485240    -0.4053400
  C        0.3934500     1.4379940    -0.3488290
  C        1.7709580     0.7423380    -0.3578590
  C       -0.6401280     0.6164470     0.4297460
  C        1.7409690    -0.5516630     0.4430470
  C       -0.5671300    -0.8317210    -0.0237270
  H        0.4383430     2.4405150     0.0852910
  H        0.0022100     1.5496010    -1.3639530
  H        2.0656470     0.4995800    -1.3827820
  H        2.5523030     1.3896650     0.0543080
  H       -0.3983570     0.6446350     1.5043810
  H        2.6396080    -1.1506800     0.2905800
  H        1.6294670    -0.3677470     1.5171870
  H       -2.4737670     0.3533780    -0.0616490
units angstrom
no_reorient  #important for SAPT in psi4, default
symmetry c1  #important for SAPT in psi4, default
}

set PROPERTIES_ORIGIN ["COM"]
properties('MP2/aug-cc-pvtz', properties = ['dipole'])
--------------------------------------------------------------------------

    Molecular point group: c1
  Charge       = 0
  Multiplicity = 1
  Basis Set: AUG-CC-PVTZ
    Blend: AUG-CC-PVTZ
  Basis Set: (AUG-CC-PVTZ AUX)
    Blend: AUG-CC-PVTZ-JKFIT

    Orbital Energies [Eh]
    ---------------------

    Doubly Occupied:

       1A    -20.617981     2A    -20.560550     3A    -20.554710
       4A    -11.391524     5A    -11.314461     6A    -11.314366
       7A    -11.256539     8A    -11.252313     9A     -1.467215
      10A     -1.391151    11A     -1.359831    12A     -1.105871
      13A     -1.027381    14A     -0.920108    15A     -0.867887
      16A     -0.771527    17A     -0.744808    18A     -0.710619
      19A     -0.690808    20A     -0.644575    21A     -0.631966
      22A     -0.620774    23A     -0.594805    24A     -0.572191
      25A     -0.553965    26A     -0.535414    27A     -0.517201
      28A     -0.500898    29A     -0.469038    30A     -0.449605
      31A     -0.445696

  @DF-RHF Final Energy:  -418.74615216258940

   => Energetics <=

    Nuclear Repulsion Energy =            401.8993065064957477
    One-Electron Energy =               -1369.5793591188216851
    Two-Electron Energy =                 548.9339004497364840
    Total Energy =                       -418.7461521625893965
  Basis Set: (AUG-CC-PVTZ AUX)
    Blend: AUG-CC-PVTZ-RI
    Molecular point group: c1

    Geometry (in Angstrom), charge = 0, multiplicity = 1:

       Center              X                  Y                   Z               Mass
    ------------   -----------------  -----------------  -----------------  -----------------
         O            0.717471385272    -1.348277907785    -0.011168167606    15.994914619570
         O           -1.913658114728     1.106873092215     0.283280032394    15.994914619570
         O           -1.488613614728    -1.392982907785    -0.408028167606    15.994914619570
         C            0.453097385272     1.493535092215    -0.351517167606    12.000000000000
         C            1.830605385272     0.797879092215    -0.360547167606    12.000000000000
         C           -0.580480614728     0.671988092215     0.427057832394    12.000000000000
         C            1.800616385272    -0.496121907785     0.440358832394    12.000000000000
         C           -0.507482614728    -0.776179907785    -0.026415167606    12.000000000000
         H            0.497990385272     2.496056092215     0.082602832394     1.007825032230
         H            0.061857385272     1.605142092215    -1.366641167606     1.007825032230
         H            2.125294385272     0.555121092215    -1.385470167606     1.007825032230
         H            2.611950385272     1.445206092215     0.051619832394     1.007825032230
         H           -0.338709614728     0.700176092215     1.501692832394     1.007825032230
         H            2.699255385272    -1.095138907785     0.287891832394     1.007825032230
         H            1.689114385272    -0.312205907785     1.514498832394     1.007825032230
         H           -2.414119614728     0.408919092215    -0.064337167606     1.007825032230

  Basis Set: AUG-CC-PVTZ
    Blend: AUG-CC-PVTZ
  Basis Set: (AUG-CC-PVTZ AUX)
    Blend: AUG-CC-PVTZ-JKFIT
	 Reference Energy          =    -418.7461521625893965 [Eh]
	 Singles Energy            =      -0.0000000000000000 [Eh]
	 Same-Spin Energy          =      -0.4117410097700677 [Eh]
	 Opposite-Spin Energy      =      -1.2908336720042508 [Eh]
	 Correlation Energy        =      -1.7025746817743186 [Eh]
	 Total Energy              =    -420.4487268443637049 [Eh]

	 ================> DF-SCS-MP2 Energies <==================
	-----------------------------------------------------------
	 SCS Same-Spin Scale       =       0.3333333333333333 [-]
	 SCS Opposite-Spin Scale   =       1.2000000000000000 [-]
	 SCS Same-Spin Energy      =      -0.1372470032566892 [Eh]
	 SCS Opposite-Spin Energy  =      -1.5490004064051008 [Eh]
	 SCS Correlation Energy    =      -1.6862474096617901 [Eh]
	 SCS Total Energy          =    -420.4323995722511995 [Eh]
	-----------------------------------------------------------

  Dipole Moment: [D]
     X:     3.9557      Y:     1.7805      Z:     0.8490     Total:     4.4203

*** Psi4 exiting successfully. Buy a developer a beer!
