                               Psi4 1.3.2 release

  ==> Input File <==

--------------------------------------------------------------------------
#psi4
#
memory 32 gb

molecule  {
0 1
  O        0.6578240    -1.4038190    -0.0084800
  O       -1.9328463     1.1440913     0.2357612
  O       -1.5482610    -1.4485240    -0.4053400
  C        0.3934500     1.4379940    -0.3488290
  C        1.7709580     0.7423380    -0.3578590
  C       -0.6401280     0.6164470     0.4297460
  C        1.7409690    -0.5516630     0.4430470
  C       -0.5671300    -0.8317210    -0.0237270
  H        0.4383430     2.4405150     0.0852910
  H        0.0022100     1.5496010    -1.3639530
  H        2.0656470     0.4995800    -1.3827820
  H        2.5523030     1.3896650     0.0543080
  H       -0.3983570     0.6446350     1.5043810
  H        2.6396080    -1.1506800     0.2905800
  H        1.6294670    -0.3677470     1.5171870
  H       -2.4737670     0.3533780    -0.0616490
units angstrom
no_reorient  #important for SAPT in psi4, default
symmetry c1  #important for SAPT in psi4, default
}

set PROPERTIES_ORIGIN ["COM"]
properties('MP2/aug-cc-pvtz', properties = ['dipole'])
--------------------------------------------------------------------------

    Molecular point group: c1
  Charge       = 0
  Multiplicity = 1
  Basis Set: AUG-CC-PVTZ
    Blend: AUG-CC-PVTZ
  Basis Set: (AUG-CC-PVTZ AUX)
    Blend: AUG-CC-PVTZ-JKFIT

    Orbital Energies [Eh]
    ---------------------

    Doubly Occupied:

       1A    -20.619557     2A    -20.568964     3A    -20.557312
       4A    -11.393834     5A    -11.314309     6A    -11.312645
       7A    -11.254376     8A    -11.249389     9A     -1.468243
      10A     -1.383112    11A     -1.357347    12A     -1.102851
      13A     -1.024568    14A     -0.918138    15A     -0.867601
      16A     -0.758423    17A     -0.745600    18A     -0.708974
      19A     -0.691588    20A     -0.639514    21A     -0.631169
      22A     -0.619694    23A     -0.592238    24A     -0.572927
      25A     -0.554639    26A     -0.530890    27A     -0.516583
      28A     -0.501086    29A     -0.470326    30A     -0.450088
      31A     -0.445346

  @DF-RHF Final Energy:  -418.74391516296839

   => Energetics <=

    Nuclear Repulsion Energy =            401.3625629846160905
    One-Electron Energy =               -1368.5702996068534958
    Two-Electron Energy =                 548.4638214592690701
    Total Energy =                       -418.7439151629683920
  Basis Set: (AUG-CC-PVTZ AUX)
    Blend: AUG-CC-PVTZ-RI
    Molecular point group: c1

    Geometry (in Angstrom), charge = 0, multiplicity = 1:

       Center              X                  Y                   Z               Mass
    ------------   -----------------  -----------------  -----------------  -----------------
         O            0.711894855671    -1.361063009374    -0.004248089560    15.994914619570
         O           -1.878775444329     1.186847290626     0.239993110440    15.994914619570
         O           -1.494190144329    -1.405768009374    -0.401108089560    15.994914619570
         C            0.447520855671     1.480749990626    -0.344597089560    12.000000000000
         C            1.825028855671     0.785093990626    -0.353627089560    12.000000000000
         C           -0.586057144329     0.659202990626     0.433977910440    12.000000000000
         C            1.795039855671    -0.508907009374     0.447278910440    12.000000000000
         C           -0.513059144329    -0.788965009374    -0.019495089560    12.000000000000
         H            0.492413855671     2.483270990626     0.089522910440     1.007825032230
         H            0.056280855671     1.592356990626    -1.359721089560     1.007825032230
         H            2.119717855671     0.542335990626    -1.378550089560     1.007825032230
         H            2.606373855671     1.432420990626     0.058539910440     1.007825032230
         H           -0.344286144329     0.687390990626     1.508612910440     1.007825032230
         H            2.693678855671    -1.107924009374     0.294811910440     1.007825032230
         H            1.683537855671    -0.324991009374     1.521418910440     1.007825032230
         H           -2.419696144329     0.396133990626    -0.057417089560     1.007825032230

  Basis Set: AUG-CC-PVTZ
    Blend: AUG-CC-PVTZ
  Basis Set: (AUG-CC-PVTZ AUX)
    Blend: AUG-CC-PVTZ-JKFIT
	 Reference Energy          =    -418.7439151629683920 [Eh]
	 Singles Energy            =      -0.0000000000000000 [Eh]
	 Same-Spin Energy          =      -0.4129633053058115 [Eh]
	 Opposite-Spin Energy      =      -1.2935468247336863 [Eh]
	 Correlation Energy        =      -1.7065101300394978 [Eh]
	 Total Energy              =    -420.4504252930078678 [Eh]

	 ================> DF-SCS-MP2 Energies <==================
	-----------------------------------------------------------
	 SCS Same-Spin Scale       =       0.3333333333333333 [-]
	 SCS Opposite-Spin Scale   =       1.2000000000000000 [-]
	 SCS Same-Spin Energy      =      -0.1376544351019371 [Eh]
	 SCS Opposite-Spin Energy  =      -1.5522561896804234 [Eh]
	 SCS Correlation Energy    =      -1.6899106247823605 [Eh]
	 SCS Total Energy          =    -420.4338257877507772 [Eh]
	-----------------------------------------------------------

  Dipole Moment: [D]
     X:     3.8429      Y:     1.6058      Z:     0.9677     Total:     4.2759

*** Psi4 exiting successfully. Buy a developer a beer!
