                               Psi4 1.4a3.dev225

  ==> Input File <==

--------------------------------------------------------------------------
#psi4
#
memory 32 gb

molecule  {
0 1
  O        0.6578240    -1.4038190    -0.0084800
  O       -1.9400820     1.1224280     0.2266150
  O       -1.5482610    -1.4485240    -0.4053400
  C        0.3934500     1.4379940    -0.3488290
  C        1.7709580     0.7423380    -0.3578590
  C       -0.6401280     0.6164470     0.4297460
  C        1.7409690    -0.5516630     0.4430470
  C       -0.5218301    -0.8528777    -0.0231632
  H        0.4383430     2.4405150     0.0852910
  H        0.0022100     1.5496010    -1.3639530
  H        2.0656470     0.4995800    -1.3827820
  H        2.5523030     1.3896650     0.0543080
  H       -0.3983570     0.6446350     1.5043810
  H        2.6396080    -1.1506800     0.2905800
  H        1.6294670    -0.3677470     1.5171870
  H       -2.4737670     0.3533780    -0.0616490
units angstrom
no_reorient  #important for SAPT in psi4, default
symmetry c1  #important for SAPT in psi4, default
}

set PROPERTIES_ORIGIN ["COM"]
properties('MP2/aug-cc-pvtz', properties = ['dipole'])
--------------------------------------------------------------------------

    Molecular point group: c1
  Charge       = 0
  Multiplicity = 1
  Basis Set: AUG-CC-PVTZ
    Blend: AUG-CC-PVTZ
  Basis Set: (AUG-CC-PVTZ AUX)
    Blend: AUG-CC-PVTZ-JKFIT

    Orbital Energies [Eh]
    ---------------------

    Doubly Occupied:

       1A    -20.630527     2A    -20.564645     3A    -20.546532
       4A    -11.392821     5A    -11.320827     6A    -11.312372
       7A    -11.257622     8A    -11.249116     9A     -1.486507
      10A     -1.380235    11A     -1.345535    12A     -1.106696
      13A     -1.027658    14A     -0.921193    15A     -0.871618
      16A     -0.761367    17A     -0.751507    18A     -0.710675
      19A     -0.694513    20A     -0.646667    21A     -0.626386
      22A     -0.619067    23A     -0.599235    24A     -0.574620
      25A     -0.553598    26A     -0.529406    27A     -0.516357
      28A     -0.497794    29A     -0.466589    30A     -0.447095
      31A     -0.440495

  @DF-RHF Final Energy:  -418.74268504961844

   => Energetics <=

    Nuclear Repulsion Energy =            401.7016706385087446
    One-Electron Energy =               -1369.1901602184254898
    Two-Electron Energy =                 548.7458045302983010
    Total Energy =                       -418.7426850496184443
  Basis Set: (AUG-CC-PVTZ AUX)
    Blend: AUG-CC-PVTZ-RI
    Molecular point group: c1

    Geometry (in Angstrom), charge = 0, multiplicity = 1:

       Center              X                  Y                   Z               Mass
    ------------   -----------------  -----------------  -----------------  -----------------
         O            0.708207874297    -1.355889405114    -0.003045760553    15.994914619570
         O           -1.889698125703     1.170357594886     0.232049239447    15.994914619570
         O           -1.497877125703    -1.400594405114    -0.399905760553    15.994914619570
         C            0.443833874297     1.485923594886    -0.343394760553    12.000000000000
         C            1.821341874297     0.790267594886    -0.352424760553    12.000000000000
         C           -0.589744125703     0.664376594886     0.435180239447    12.000000000000
         C            1.791352874297    -0.503733405114     0.448481239447    12.000000000000
         C           -0.471446225703    -0.804948105114    -0.017728960553    12.000000000000
         H            0.488726874297     2.488444594886     0.090725239447     1.007825032230
         H            0.052593874297     1.597530594886    -1.358518760553     1.007825032230
         H            2.116030874297     0.547509594886    -1.377347760553     1.007825032230
         H            2.602686874297     1.437594594886     0.059742239447     1.007825032230
         H           -0.347973125703     0.692564594886     1.509815239447     1.007825032230
         H            2.689991874297    -1.102750405114     0.296014239447     1.007825032230
         H            1.679850874297    -0.319817405114     1.522621239447     1.007825032230
         H           -2.423383125703     0.401307594886    -0.056214760553     1.007825032230

  Basis Set: AUG-CC-PVTZ
    Blend: AUG-CC-PVTZ
  Basis Set: (AUG-CC-PVTZ AUX)
    Blend: AUG-CC-PVTZ-JKFIT
	 Reference Energy          =    -418.7426850496184443 [Eh]
	 Singles Energy            =      -0.0000000000000000 [Eh]
	 Same-Spin Energy          =      -0.4127398808998580 [Eh]
	 Opposite-Spin Energy      =      -1.2926798951748659 [Eh]
	 Correlation Energy        =      -1.7054197760747238 [Eh]
	 Total Energy              =    -420.4481048256931786 [Eh]

	 ================> DF-SCS-MP2 Energies <==================
	-----------------------------------------------------------
	 SCS Same-Spin Scale       =       0.3333333333333333 [-]
	 SCS Opposite-Spin Scale   =       1.2000000000000000 [-]
	 SCS Same-Spin Energy      =      -0.1375799602999526 [Eh]
	 SCS Opposite-Spin Energy  =      -1.5512158742098390 [Eh]
	 SCS Correlation Energy    =      -1.6887958345097915 [Eh]
	 SCS Total Energy          =    -420.4314808841282343 [Eh]
	-----------------------------------------------------------

  Dipole Moment: [D]
     X:     4.2801      Y:     1.5906      Z:     1.0294     Total:     4.6807

*** Psi4 exiting successfully. Buy a developer a beer!
