                               Psi4 1.4a3.dev225

  ==> Input File <==

--------------------------------------------------------------------------
#psi4
#
memory 32 gb

molecule  {
0 1
  O        0.6578240    -1.4038190    -0.0084800
  O       -1.9400820     1.1224280     0.2266150
  O       -1.5482610    -1.4485240    -0.4053400
  C        0.3934500     1.4379940    -0.3488290
  C        1.7709580     0.7423380    -0.3578590
  C       -0.6401280     0.6164470     0.4297460
  C        1.7036258    -0.5810425     0.4274799
  C       -0.5671300    -0.8317210    -0.0237270
  H        0.4383430     2.4405150     0.0852910
  H        0.0022100     1.5496010    -1.3639530
  H        2.0656470     0.4995800    -1.3827820
  H        2.5523030     1.3896650     0.0543080
  H       -0.3983570     0.6446350     1.5043810
  H        2.6396080    -1.1506800     0.2905800
  H        1.6294670    -0.3677470     1.5171870
  H       -2.4737670     0.3533780    -0.0616490
units angstrom
no_reorient  #important for SAPT in psi4, default
symmetry c1  #important for SAPT in psi4, default
}

set PROPERTIES_ORIGIN ["COM"]
properties('MP2/aug-cc-pvtz', properties = ['dipole'])
--------------------------------------------------------------------------

    Molecular point group: c1
  Charge       = 0
  Multiplicity = 1
  Basis Set: AUG-CC-PVTZ
    Blend: AUG-CC-PVTZ
  Basis Set: (AUG-CC-PVTZ AUX)
    Blend: AUG-CC-PVTZ-JKFIT

    Orbital Energies [Eh]
    ---------------------

    Doubly Occupied:

       1A    -20.624388     2A    -20.567567     3A    -20.559797
       4A    -11.396620     5A    -11.314199     6A    -11.313406
       7A    -11.253450     8A    -11.248994     9A     -1.480514
      10A     -1.390879    11A     -1.361934    12A     -1.100994
      13A     -1.024525    14A     -0.918754    15A     -0.872126
      16A     -0.762118    17A     -0.748728    18A     -0.712089
      19A     -0.696540    20A     -0.645918    21A     -0.636119
      22A     -0.617647    23A     -0.594692    24A     -0.571499
      25A     -0.551172    26A     -0.533097    27A     -0.512251
      28A     -0.503586    29A     -0.470183    30A     -0.448743
      31A     -0.445390

  @DF-RHF Final Energy:  -418.74484188882604

   => Energetics <=

    Nuclear Repulsion Energy =            402.3154076902660563
    One-Electron Energy =               -1370.3646650320720255
    Two-Electron Energy =                 549.3044154529799243
    Total Energy =                       -418.7448418888260449
  Basis Set: (AUG-CC-PVTZ AUX)
    Blend: AUG-CC-PVTZ-RI
    Molecular point group: c1

    Geometry (in Angstrom), charge = 0, multiplicity = 1:

       Center              X                  Y                   Z               Mass
    ------------   -----------------  -----------------  -----------------  -----------------
         O            0.716753672631    -1.355039117667    -0.001377727549    15.994914619570
         O           -1.881152327369     1.171207882333     0.233717272451    15.994914619570
         O           -1.489331327369    -1.399744117667    -0.398237727549    15.994914619570
         C            0.452379672631     1.486773882333    -0.341726727549    12.000000000000
         C            1.829887672631     0.791117882333    -0.350756727549    12.000000000000
         C           -0.581198327369     0.665226882333     0.436848272451    12.000000000000
         C            1.762555472631    -0.532262617667     0.434582172451    12.000000000000
         C           -0.508200327369    -0.782941117667    -0.016624727549    12.000000000000
         H            0.497272672631     2.489294882333     0.092393272451     1.007825032230
         H            0.061139672631     1.598380882333    -1.356850727549     1.007825032230
         H            2.124576672631     0.548359882333    -1.375679727549     1.007825032230
         H            2.611232672631     1.438444882333     0.061410272451     1.007825032230
         H           -0.339427327369     0.693414882333     1.511483272451     1.007825032230
         H            2.698537672631    -1.101900117667     0.297682272451     1.007825032230
         H            1.688396672631    -0.318967117667     1.524289272451     1.007825032230
         H           -2.414837327369     0.402157882333    -0.054546727549     1.007825032230

  Basis Set: AUG-CC-PVTZ
    Blend: AUG-CC-PVTZ
  Basis Set: (AUG-CC-PVTZ AUX)
    Blend: AUG-CC-PVTZ-JKFIT
	 Reference Energy          =    -418.7448418888260449 [Eh]
	 Singles Energy            =      -0.0000000000000000 [Eh]
	 Same-Spin Energy          =      -0.4125537842873443 [Eh]
	 Opposite-Spin Energy      =      -1.2921836754615719 [Eh]
	 Correlation Energy        =      -1.7047374597489162 [Eh]
	 Total Energy              =    -420.4495793485749573 [Eh]

	 ================> DF-SCS-MP2 Energies <==================
	-----------------------------------------------------------
	 SCS Same-Spin Scale       =       0.3333333333333333 [-]
	 SCS Opposite-Spin Scale   =       1.2000000000000000 [-]
	 SCS Same-Spin Energy      =      -0.1375179280957814 [Eh]
	 SCS Opposite-Spin Energy  =      -1.5506204105538861 [Eh]
	 SCS Correlation Energy    =      -1.6881383386496676 [Eh]
	 SCS Total Energy          =    -420.4329802274756958 [Eh]
	-----------------------------------------------------------

  Dipole Moment: [D]
     X:     3.6912      Y:     1.5579      Z:     0.9331     Total:     4.1137

*** Psi4 exiting successfully. Buy a developer a beer!
