                               Psi4 1.3.2 release

  ==> Input File <==

--------------------------------------------------------------------------
#psi4
#
memory 32 gb

molecule  {
0 1
  O        0.6578240    -1.4038190    -0.0084800
  O       -1.9346815     1.1145337     0.1783495
  O       -1.5482610    -1.4485240    -0.4053400
  C        0.3934500     1.4379940    -0.3488290
  C        1.7709580     0.7423380    -0.3578590
  C       -0.6401280     0.6164470     0.4297460
  C        1.7409690    -0.5516630     0.4430470
  C       -0.5671300    -0.8317210    -0.0237270
  H        0.4383430     2.4405150     0.0852910
  H        0.0022100     1.5496010    -1.3639530
  H        2.0656470     0.4995800    -1.3827820
  H        2.5523030     1.3896650     0.0543080
  H       -0.3983570     0.6446350     1.5043810
  H        2.6396080    -1.1506800     0.2905800
  H        1.6294670    -0.3677470     1.5171870
  H       -2.4737670     0.3533780    -0.0616490
units angstrom
no_reorient  #important for SAPT in psi4, default
symmetry c1  #important for SAPT in psi4, default
}

set PROPERTIES_ORIGIN ["COM"]
properties('MP2/aug-cc-pvtz', properties = ['dipole'])
--------------------------------------------------------------------------

    Molecular point group: c1
  Charge       = 0
  Multiplicity = 1
  Basis Set: AUG-CC-PVTZ
    Blend: AUG-CC-PVTZ
  Basis Set: (AUG-CC-PVTZ AUX)
    Blend: AUG-CC-PVTZ-JKFIT

    Orbital Energies [Eh]
    ---------------------

    Doubly Occupied:

       1A    -20.618513     2A    -20.565022     3A    -20.555768
       4A    -11.392379     5A    -11.314148     6A    -11.313697
       7A    -11.254312     8A    -11.249437     9A     -1.467533
      10A     -1.386935    11A     -1.358954    12A     -1.103457
      13A     -1.025660    14A     -0.918769    15A     -0.867710
      16A     -0.761352    17A     -0.744994    18A     -0.712611
      19A     -0.691681    20A     -0.644440    21A     -0.630717
      22A     -0.620078    23A     -0.592192    24A     -0.572316
      25A     -0.553171    26A     -0.531122    27A     -0.516487
      28A     -0.500603    29A     -0.470211    30A     -0.451318
      31A     -0.444627

  @DF-RHF Final Energy:  -418.74665990147469

   => Energetics <=

    Nuclear Repulsion Energy =            401.9658709877155047
    One-Electron Energy =               -1369.7646313238083167
    Two-Electron Energy =                 549.0521004346180689
    Total Energy =                       -418.7466599014746862
  Basis Set: (AUG-CC-PVTZ AUX)
    Blend: AUG-CC-PVTZ-RI
    Molecular point group: c1

    Geometry (in Angstrom), charge = 0, multiplicity = 1:

       Center              X                  Y                   Z               Mass
    ------------   -----------------  -----------------  -----------------  -----------------
         O            0.712147803014    -1.356989057557     0.003665019065    15.994914619570
         O           -1.880357696986     1.161363642443     0.190494519065    15.994914619570
         O           -1.493937196986    -1.401694057557    -0.393194980935    15.994914619570
         C            0.447773803014     1.484823942443    -0.336683980935    12.000000000000
         C            1.825281803014     0.789167942443    -0.345713980935    12.000000000000
         C           -0.585804196986     0.663276942443     0.441891019065    12.000000000000
         C            1.795292803014    -0.504833057557     0.455192019065    12.000000000000
         C           -0.512806196986    -0.784891057557    -0.011581980935    12.000000000000
         H            0.492666803014     2.487344942443     0.097436019065     1.007825032230
         H            0.056533803014     1.596430942443    -1.351807980935     1.007825032230
         H            2.119970803014     0.546409942443    -1.370636980935     1.007825032230
         H            2.606626803014     1.436494942443     0.066453019065     1.007825032230
         H           -0.344033196986     0.691464942443     1.516526019065     1.007825032230
         H            2.693931803014    -1.103850057557     0.302725019065     1.007825032230
         H            1.683790803014    -0.320917057557     1.529332019065     1.007825032230
         H           -2.419443196986     0.400207942443    -0.049503980935     1.007825032230

  Basis Set: AUG-CC-PVTZ
    Blend: AUG-CC-PVTZ
  Basis Set: (AUG-CC-PVTZ AUX)
    Blend: AUG-CC-PVTZ-JKFIT
	 Reference Energy          =    -418.7466599014746862 [Eh]
	 Singles Energy            =      -0.0000000000000000 [Eh]
	 Same-Spin Energy          =      -0.4123546899635846 [Eh]
	 Opposite-Spin Energy      =      -1.2921275999726962 [Eh]
	 Correlation Energy        =      -1.7044822899362808 [Eh]
	 Total Energy              =    -420.4511421914109519 [Eh]

	 ================> DF-SCS-MP2 Energies <==================
	-----------------------------------------------------------
	 SCS Same-Spin Scale       =       0.3333333333333333 [-]
	 SCS Opposite-Spin Scale   =       1.2000000000000000 [-]
	 SCS Same-Spin Energy      =      -0.1374515633211948 [Eh]
	 SCS Opposite-Spin Energy  =      -1.5505531199672353 [Eh]
	 SCS Correlation Energy    =      -1.6880046832884301 [Eh]
	 SCS Total Energy          =    -420.4346645847631407 [Eh]
	-----------------------------------------------------------

  Dipole Moment: [D]
     X:     3.8299      Y:     1.6605      Z:     1.0802     Total:     4.3119

*** Psi4 exiting successfully. Buy a developer a beer!
