                               Psi4 1.3.2 release

  ==> Input File <==

--------------------------------------------------------------------------
#psi4
#
memory 32 gb

molecule  {
0 1
  O        0.6578240    -1.4038190    -0.0084800
  O       -1.9489885     1.1048718     0.2413717
  O       -1.5482610    -1.4485240    -0.4053400
  C        0.3934500     1.4379940    -0.3488290
  C        1.7709580     0.7423380    -0.3578590
  C       -0.6401280     0.6164470     0.4297460
  C        1.7409690    -0.5516630     0.4430470
  C       -0.5671300    -0.8317210    -0.0237270
  H        0.4383430     2.4405150     0.0852910
  H        0.0022100     1.5496010    -1.3639530
  H        2.0656470     0.4995800    -1.3827820
  H        2.5523030     1.3896650     0.0543080
  H       -0.3983570     0.6446350     1.5043810
  H        2.6396080    -1.1506800     0.2905800
  H        1.6294670    -0.3677470     1.5171870
  H       -2.4737670     0.3533780    -0.0616490
units angstrom
no_reorient  #important for SAPT in psi4, default
symmetry c1  #important for SAPT in psi4, default
}

set PROPERTIES_ORIGIN ["COM"]
properties('MP2/aug-cc-pvtz', properties = ['dipole'])
--------------------------------------------------------------------------

    Molecular point group: c1
  Charge       = 0
  Multiplicity = 1
  Basis Set: AUG-CC-PVTZ
    Blend: AUG-CC-PVTZ
  Basis Set: (AUG-CC-PVTZ AUX)
    Blend: AUG-CC-PVTZ-JKFIT

    Orbital Energies [Eh]
    ---------------------

    Doubly Occupied:

       1A    -20.618789     2A    -20.565071     3A    -20.556058
       4A    -11.392721     5A    -11.314347     6A    -11.313470
       7A    -11.255170     8A    -11.250461     9A     -1.467719
      10A     -1.386449    11A     -1.358908    12A     -1.104096
      13A     -1.025820    14A     -0.918884    15A     -0.867768
      16A     -0.763631    17A     -0.745196    18A     -0.710458
      19A     -0.691396    20A     -0.642336    21A     -0.631608
      22A     -0.620237    23A     -0.593164    24A     -0.572546
      25A     -0.554131    26A     -0.532869    27A     -0.516718
      28A     -0.501073    29A     -0.469860    30A     -0.450110
      31A     -0.445460

  @DF-RHF Final Energy:  -418.74690665362743

   => Energetics <=

    Nuclear Repulsion Energy =            401.6708455983363706
    One-Electron Energy =               -1369.1624546911239122
    Two-Electron Energy =                 548.7447024391600507
    Total Energy =                       -418.7469066536274340
  Basis Set: (AUG-CC-PVTZ AUX)
    Blend: AUG-CC-PVTZ-RI
    Molecular point group: c1

    Geometry (in Angstrom), charge = 0, multiplicity = 1:

       Center              X                  Y                   Z               Mass
    ------------   -----------------  -----------------  -----------------  -----------------
         O            0.714119750284    -1.355657348790    -0.005021390054    15.994914619570
         O           -1.892692749716     1.153033451210     0.244830309946    15.994914619570
         O           -1.491965249716    -1.400362348790    -0.401881390054    15.994914619570
         C            0.449745750284     1.486155651210    -0.345370390054    12.000000000000
         C            1.827253750284     0.790499651210    -0.354400390054    12.000000000000
         C           -0.583832249716     0.664608651210     0.433204609946    12.000000000000
         C            1.797264750284    -0.503501348790     0.446505609946    12.000000000000
         C           -0.510834249716    -0.783559348790    -0.020268390054    12.000000000000
         H            0.494638750284     2.488676651210     0.088749609946     1.007825032230
         H            0.058505750284     1.597762651210    -1.360494390054     1.007825032230
         H            2.121942750284     0.547741651210    -1.379323390054     1.007825032230
         H            2.608598750284     1.437826651210     0.057766609946     1.007825032230
         H           -0.342061249716     0.692796651210     1.507839609946     1.007825032230
         H            2.695903750284    -1.102518348790     0.294038609946     1.007825032230
         H            1.685762750284    -0.319585348790     1.520645609946     1.007825032230
         H           -2.417471249716     0.401539651210    -0.058190390054     1.007825032230

  Basis Set: AUG-CC-PVTZ
    Blend: AUG-CC-PVTZ
  Basis Set: (AUG-CC-PVTZ AUX)
    Blend: AUG-CC-PVTZ-JKFIT
	 Reference Energy          =    -418.7469066536274340 [Eh]
	 Singles Energy            =      -0.0000000000000000 [Eh]
	 Same-Spin Energy          =      -0.4123427227945039 [Eh]
	 Opposite-Spin Energy      =      -1.2921525584226654 [Eh]
	 Correlation Energy        =      -1.7044952812171692 [Eh]
	 Total Energy              =    -420.4514019348446254 [Eh]

	 ================> DF-SCS-MP2 Energies <==================
	-----------------------------------------------------------
	 SCS Same-Spin Scale       =       0.3333333333333333 [-]
	 SCS Opposite-Spin Scale   =       1.2000000000000000 [-]
	 SCS Same-Spin Energy      =      -0.1374475742648346 [Eh]
	 SCS Opposite-Spin Energy  =      -1.5505830701071985 [Eh]
	 SCS Correlation Energy    =      -1.6880306443720332 [Eh]
	 SCS Total Energy          =    -420.4349372979994541 [Eh]
	-----------------------------------------------------------

  Dipole Moment: [D]
     X:     3.8827      Y:     1.6777      Z:     0.9504     Total:     4.3351

*** Psi4 exiting successfully. Buy a developer a beer!
