                               Psi4 1.3.2 release

  ==> Input File <==

--------------------------------------------------------------------------
#psi4
#
memory 32 gb

molecule  {
0 1
  O        0.6757021    -1.3631671     0.0074881
  O       -1.9400820     1.1224280     0.2266150
  O       -1.5482610    -1.4485240    -0.4053400
  C        0.3934500     1.4379940    -0.3488290
  C        1.7709580     0.7423380    -0.3578590
  C       -0.6401280     0.6164470     0.4297460
  C        1.7409690    -0.5516630     0.4430470
  C       -0.5671300    -0.8317210    -0.0237270
  H        0.4383430     2.4405150     0.0852910
  H        0.0022100     1.5496010    -1.3639530
  H        2.0656470     0.4995800    -1.3827820
  H        2.5523030     1.3896650     0.0543080
  H       -0.3983570     0.6446350     1.5043810
  H        2.6396080    -1.1506800     0.2905800
  H        1.6294670    -0.3677470     1.5171870
  H       -2.4737670     0.3533780    -0.0616490
units angstrom
no_reorient  #important for SAPT in psi4, default
symmetry c1  #important for SAPT in psi4, default
}

set PROPERTIES_ORIGIN ["COM"]
properties('MP2/aug-cc-pvtz', properties = ['dipole'])
--------------------------------------------------------------------------

    Molecular point group: c1
  Charge       = 0
  Multiplicity = 1
  Basis Set: AUG-CC-PVTZ
    Blend: AUG-CC-PVTZ
  Basis Set: (AUG-CC-PVTZ AUX)
    Blend: AUG-CC-PVTZ-JKFIT

    Orbital Energies [Eh]
    ---------------------

    Doubly Occupied:

       1A    -20.618778     2A    -20.566047     3A    -20.560191
       4A    -11.396379     5A    -11.311841     6A    -11.310953
       7A    -11.252294     8A    -11.249026     9A     -1.475348
      10A     -1.389706    11A     -1.361256    12A     -1.101242
      13A     -1.029508    14A     -0.917975    15A     -0.872438
      16A     -0.760398    17A     -0.748190    18A     -0.713182
      19A     -0.695157    20A     -0.644443    21A     -0.637956
      22A     -0.618307    23A     -0.591570    24A     -0.571447
      25A     -0.553305    26A     -0.532806    27A     -0.515154
      28A     -0.502593    29A     -0.469702    30A     -0.449365
      31A     -0.443966

  @DF-RHF Final Energy:  -418.74619533793367

   => Energetics <=

    Nuclear Repulsion Energy =            402.5720390821714432
    One-Electron Energy =               -1370.9154205891034053
    Two-Electron Energy =                 549.5971861689984053
    Total Energy =                       -418.7461953379336137
  Basis Set: (AUG-CC-PVTZ AUX)
    Blend: AUG-CC-PVTZ-RI
    Molecular point group: c1

    Geometry (in Angstrom), charge = 0, multiplicity = 1:

       Center              X                  Y                   Z               Mass
    ------------   -----------------  -----------------  -----------------  -----------------
         O            0.728306103667    -1.323028325977     0.010779741544    15.994914619570
         O           -1.887477996333     1.162566774023     0.229906641544    15.994914619570
         O           -1.495656996333    -1.408385225977    -0.402048358456    15.994914619570
         C            0.446054003667     1.478132774023    -0.345537358456    12.000000000000
         C            1.823562003667     0.782476774023    -0.354567358456    12.000000000000
         C           -0.587523996333     0.656585774023     0.433037641544    12.000000000000
         C            1.793573003667    -0.511524225977     0.446338641544    12.000000000000
         C           -0.514525996333    -0.791582225977    -0.020435358456    12.000000000000
         H            0.490947003667     2.480653774023     0.088582641544     1.007825032230
         H            0.054814003667     1.589739774023    -1.360661358456     1.007825032230
         H            2.118251003667     0.539718774023    -1.379490358456     1.007825032230
         H            2.604907003667     1.429803774023     0.057599641544     1.007825032230
         H           -0.345752996333     0.684773774023     1.507672641544     1.007825032230
         H            2.692212003667    -1.110541225977     0.293871641544     1.007825032230
         H            1.682071003667    -0.327608225977     1.520478641544     1.007825032230
         H           -2.421162996333     0.393516774023    -0.058357358456     1.007825032230

  Basis Set: AUG-CC-PVTZ
    Blend: AUG-CC-PVTZ
  Basis Set: (AUG-CC-PVTZ AUX)
    Blend: AUG-CC-PVTZ-JKFIT
	 Reference Energy          =    -418.7461953379336705 [Eh]
	 Singles Energy            =      -0.0000000000000000 [Eh]
	 Same-Spin Energy          =      -0.4124960274702483 [Eh]
	 Opposite-Spin Energy      =      -1.2917472338038551 [Eh]
	 Correlation Energy        =      -1.7042432612741034 [Eh]
	 Total Energy              =    -420.4504385992077573 [Eh]

	 ================> DF-SCS-MP2 Energies <==================
	-----------------------------------------------------------
	 SCS Same-Spin Scale       =       0.3333333333333333 [-]
	 SCS Opposite-Spin Scale   =       1.2000000000000000 [-]
	 SCS Same-Spin Energy      =      -0.1374986758234161 [Eh]
	 SCS Opposite-Spin Energy  =      -1.5500966805646261 [Eh]
	 SCS Correlation Energy    =      -1.6875953563880421 [Eh]
	 SCS Total Energy          =    -420.4337906943217149 [Eh]
	-----------------------------------------------------------

  Dipole Moment: [D]
     X:     3.7666      Y:     1.5260      Z:     0.9437     Total:     4.1721

*** Psi4 exiting successfully. Buy a developer a beer!
