                               Psi4 1.3.2 release

  ==> Input File <==

--------------------------------------------------------------------------
#psi4
#
memory 32 gb

molecule  {
0 1
  O        0.6578240    -1.4038190    -0.0084800
  O       -1.9400820     1.1224280     0.2266150
  O       -1.4704103    -1.5482132    -0.4229965
  C        0.3934500     1.4379940    -0.3488290
  C        1.7709580     0.7423380    -0.3578590
  C       -0.6401280     0.6164470     0.4297460
  C        1.7409690    -0.5516630     0.4430470
  C       -0.5671300    -0.8317210    -0.0237270
  H        0.4383430     2.4405150     0.0852910
  H        0.0022100     1.5496010    -1.3639530
  H        2.0656470     0.4995800    -1.3827820
  H        2.5523030     1.3896650     0.0543080
  H       -0.3983570     0.6446350     1.5043810
  H        2.6396080    -1.1506800     0.2905800
  H        1.6294670    -0.3677470     1.5171870
  H       -2.4737670     0.3533780    -0.0616490
units angstrom
no_reorient  #important for SAPT in psi4, default
symmetry c1  #important for SAPT in psi4, default
}

set PROPERTIES_ORIGIN ["COM"]
properties('MP2/aug-cc-pvtz', properties = ['dipole'])
--------------------------------------------------------------------------

    Molecular point group: c1
  Charge       = 0
  Multiplicity = 1
  Basis Set: AUG-CC-PVTZ
    Blend: AUG-CC-PVTZ
  Basis Set: (AUG-CC-PVTZ AUX)
    Blend: AUG-CC-PVTZ-JKFIT

    Orbital Energies [Eh]
    ---------------------

    Doubly Occupied:

       1A    -20.612133     2A    -20.573119     3A    -20.553146
       4A    -11.390949     5A    -11.319579     6A    -11.310690
       7A    -11.254334     8A    -11.252231     9A     -1.467555
      10A     -1.384051    11A     -1.356751    12A     -1.104344
      13A     -1.025471    14A     -0.919584    15A     -0.867493
      16A     -0.764287    17A     -0.743121    18A     -0.709160
      19A     -0.689520    20A     -0.642661    21A     -0.627960
      22A     -0.620231    23A     -0.592481    24A     -0.575575
      25A     -0.554845    26A     -0.533182    27A     -0.516389
      28A     -0.497763    29A     -0.469941    30A     -0.449592
      31A     -0.447041

  @DF-RHF Final Energy:  -418.74285081871562

   => Energetics <=

    Nuclear Repulsion Energy =            401.1671406449332835
    One-Electron Energy =               -1368.1696265774626227
    Two-Electron Energy =                 548.2596351138137152
    Total Energy =                       -418.7428508187156240
  Basis Set: (AUG-CC-PVTZ AUX)
    Blend: AUG-CC-PVTZ-RI
    Molecular point group: c1

    Geometry (in Angstrom), charge = 0, multiplicity = 1:

       Center              X                  Y                   Z               Mass
    ------------   -----------------  -----------------  -----------------  -----------------
         O            0.702161923785    -1.344336880128    -0.000553848203    15.994914619570
         O           -1.895744076215     1.181910119872     0.234541151797    15.994914619570
         O           -1.426072376215    -1.488731080128    -0.415070348203    15.994914619570
         C            0.437787923785     1.497476119872    -0.340902848203    12.000000000000
         C            1.815295923785     0.801820119872    -0.349932848203    12.000000000000
         C           -0.595790076215     0.675929119872     0.437672151797    12.000000000000
         C            1.785306923785    -0.492180880128     0.450973151797    12.000000000000
         C           -0.522792076215    -0.772238880128    -0.015800848203    12.000000000000
         H            0.482680923785     2.499997119872     0.093217151797     1.007825032230
         H            0.046547923785     1.609083119872    -1.356026848203     1.007825032230
         H            2.109984923785     0.559062119872    -1.374855848203     1.007825032230
         H            2.596640923785     1.449147119872     0.062234151797     1.007825032230
         H           -0.354019076215     0.704117119872     1.512307151797     1.007825032230
         H            2.683945923785    -1.091197880128     0.298506151797     1.007825032230
         H            1.673804923785    -0.308264880128     1.525113151797     1.007825032230
         H           -2.429429076215     0.412860119872    -0.053722848203     1.007825032230

  Basis Set: AUG-CC-PVTZ
    Blend: AUG-CC-PVTZ
  Basis Set: (AUG-CC-PVTZ AUX)
    Blend: AUG-CC-PVTZ-JKFIT
	 Reference Energy          =    -418.7428508187156240 [Eh]
	 Singles Energy            =      -0.0000000000000000 [Eh]
	 Same-Spin Energy          =      -0.4125221908841150 [Eh]
	 Opposite-Spin Energy      =      -1.2929713860879091 [Eh]
	 Correlation Energy        =      -1.7054935769720241 [Eh]
	 Total Energy              =    -420.4483443956876272 [Eh]

	 ================> DF-SCS-MP2 Energies <==================
	-----------------------------------------------------------
	 SCS Same-Spin Scale       =       0.3333333333333333 [-]
	 SCS Opposite-Spin Scale   =       1.2000000000000000 [-]
	 SCS Same-Spin Energy      =      -0.1375073969613717 [Eh]
	 SCS Opposite-Spin Energy  =      -1.5515656633054908 [Eh]
	 SCS Correlation Energy    =      -1.6890730602668624 [Eh]
	 SCS Total Energy          =    -420.4319238789825022 [Eh]
	-----------------------------------------------------------

  Dipole Moment: [D]
     X:     3.6512      Y:     1.9352      Z:     1.0278     Total:     4.2583

*** Psi4 exiting successfully. Buy a developer a beer!
