                               Psi4 1.3.2 release

  ==> Input File <==

--------------------------------------------------------------------------
#psi4
#
memory 32 gb

molecule  {
0 1
  O        0.6578240    -1.4038190    -0.0084800
  O       -1.9400820     1.1224280     0.2266150
  O       -1.5482610    -1.4485240    -0.4053400
  C        0.3934500     1.4379940    -0.3488290
  C        1.7709580     0.7423380    -0.3578590
  C       -0.6401280     0.6164470     0.4297460
  C        1.7409690    -0.5516630     0.4430470
  C       -0.6475427    -0.8822737    -0.0550037
  H        0.4383430     2.4405150     0.0852910
  H        0.0022100     1.5496010    -1.3639530
  H        2.0656470     0.4995800    -1.3827820
  H        2.5523030     1.3896650     0.0543080
  H       -0.3983570     0.6446350     1.5043810
  H        2.6396080    -1.1506800     0.2905800
  H        1.6294670    -0.3677470     1.5171870
  H       -2.4737670     0.3533780    -0.0616490
units angstrom
no_reorient  #important for SAPT in psi4, default
symmetry c1  #important for SAPT in psi4, default
}

set PROPERTIES_ORIGIN ["COM"]
properties('MP2/aug-cc-pvtz', properties = ['dipole'])
--------------------------------------------------------------------------

    Molecular point group: c1
  Charge       = 0
  Multiplicity = 1
  Basis Set: AUG-CC-PVTZ
    Blend: AUG-CC-PVTZ
  Basis Set: (AUG-CC-PVTZ AUX)
    Blend: AUG-CC-PVTZ-JKFIT

    Orbital Energies [Eh]
    ---------------------

    Doubly Occupied:

       1A    -20.596606     2A    -20.575644     3A    -20.565362
       4A    -11.385721     5A    -11.309460     6A    -11.305214
       7A    -11.247736     8A    -11.244903     9A     -1.498733
      10A     -1.388961    11A     -1.371724    12A     -1.093163
      13A     -1.010981    14A     -0.903820    15A     -0.855848
      16A     -0.758583    17A     -0.741362    18A     -0.717961
      19A     -0.691277    20A     -0.649430    21A     -0.632561
      22A     -0.622018    23A     -0.583427    24A     -0.579215
      25A     -0.561855    26A     -0.536052    27A     -0.517273
      28A     -0.504301    29A     -0.470946    30A     -0.449239
      31A     -0.430113

  @DF-RHF Final Energy:  -418.73508107448072

   => Energetics <=

    Nuclear Repulsion Energy =            401.4025234073094452
    One-Electron Energy =               -1368.6762301474141168
    Two-Electron Energy =                 548.5386256656239539
    Total Energy =                       -418.7350810744807177
  Basis Set: (AUG-CC-PVTZ AUX)
    Blend: AUG-CC-PVTZ-RI
    Molecular point group: c1

    Geometry (in Angstrom), charge = 0, multiplicity = 1:

       Center              X                  Y                   Z               Mass
    ------------   -----------------  -----------------  -----------------  -----------------
         O            0.721207320441    -1.352849680227     0.000246740477    15.994914619570
         O           -1.876698679559     1.173397319773     0.235341740477    15.994914619570
         O           -1.484877679559    -1.397554680227    -0.396613259523    15.994914619570
         C            0.456833320441     1.488963319773    -0.340102259523    12.000000000000
         C            1.834341320441     0.793307319773    -0.349132259523    12.000000000000
         C           -0.576744679559     0.667416319773     0.438472740477    12.000000000000
         C            1.804352320441    -0.500693680227     0.451773740477    12.000000000000
         C           -0.584159379559    -0.831304380227    -0.046276959523    12.000000000000
         H            0.501726320441     2.491484319773     0.094017740477     1.007825032230
         H            0.065593320441     1.600570319773    -1.355226259523     1.007825032230
         H            2.129030320441     0.550549319773    -1.374055259523     1.007825032230
         H            2.615686320441     1.440634319773     0.063034740477     1.007825032230
         H           -0.334973679559     0.695604319773     1.513107740477     1.007825032230
         H            2.702991320441    -1.099710680227     0.299306740477     1.007825032230
         H            1.692850320441    -0.316777680227     1.525913740477     1.007825032230
         H           -2.410383679559     0.404347319773    -0.052922259523     1.007825032230

  Basis Set: AUG-CC-PVTZ
    Blend: AUG-CC-PVTZ
  Basis Set: (AUG-CC-PVTZ AUX)
    Blend: AUG-CC-PVTZ-JKFIT
	 Reference Energy          =    -418.7350810744807177 [Eh]
	 Singles Energy            =      -0.0000000000000000 [Eh]
	 Same-Spin Energy          =      -0.4103094726317388 [Eh]
	 Opposite-Spin Energy      =      -1.2885503352739778 [Eh]
	 Correlation Energy        =      -1.6988598079057167 [Eh]
	 Total Energy              =    -420.4339408823864233 [Eh]

	 ================> DF-SCS-MP2 Energies <==================
	-----------------------------------------------------------
	 SCS Same-Spin Scale       =       0.3333333333333333 [-]
	 SCS Opposite-Spin Scale   =       1.2000000000000000 [-]
	 SCS Same-Spin Energy      =      -0.1367698242105796 [Eh]
	 SCS Opposite-Spin Energy  =      -1.5462604023287734 [Eh]
	 SCS Correlation Energy    =      -1.6830302265393531 [Eh]
	 SCS Total Energy          =    -420.4181113010200761 [Eh]
	-----------------------------------------------------------

  Dipole Moment: [D]
     X:     3.0506      Y:     1.3273      Z:     0.7851     Total:     3.4182

*** Psi4 exiting successfully. Buy a developer a beer!
