                               Psi4 1.3.2 release

  ==> Input File <==

--------------------------------------------------------------------------
#psi4
#
memory 32 gb

molecule  {
0 1
  O        0.6755418    -1.3634847     0.0084436
  O       -1.9400820     1.1224280     0.2266150
  O       -1.5482610    -1.4485240    -0.4053400
  C        0.3934500     1.4379940    -0.3488290
  C        1.7709580     0.7423380    -0.3578590
  C       -0.6401280     0.6164470     0.4297460
  C        1.7409690    -0.5516630     0.4430470
  C       -0.5671300    -0.8317210    -0.0237270
  H        0.4383430     2.4405150     0.0852910
  H        0.0022100     1.5496010    -1.3639530
  H        2.0656470     0.4995800    -1.3827820
  H        2.5523030     1.3896650     0.0543080
  H       -0.3983570     0.6446350     1.5043810
  H        2.6396080    -1.1506800     0.2905800
  H        1.6294670    -0.3677470     1.5171870
  H       -2.4737670     0.3533780    -0.0616490
units angstrom
no_reorient  #important for SAPT in psi4, default
symmetry c1  #important for SAPT in psi4, default
}

set PROPERTIES_ORIGIN ["COM"]
properties('MP2/aug-cc-pvtz', properties = ['dipole'])
--------------------------------------------------------------------------

    Molecular point group: c1
  Charge       = 0
  Multiplicity = 1
  Basis Set: AUG-CC-PVTZ
    Blend: AUG-CC-PVTZ
  Basis Set: (AUG-CC-PVTZ AUX)
    Blend: AUG-CC-PVTZ-JKFIT

    Orbital Energies [Eh]
    ---------------------

    Doubly Occupied:

       1A    -20.618777     2A    -20.566046     3A    -20.560189
       4A    -11.396377     5A    -11.311842     6A    -11.310950
       7A    -11.252316     8A    -11.249032     9A     -1.475342
      10A     -1.389704    11A     -1.361255    12A     -1.101255
      13A     -1.029504    14A     -0.917975    15A     -0.872463
      16A     -0.760401    17A     -0.748127    18A     -0.713198
      19A     -0.695164    20A     -0.644458    21A     -0.637949
      22A     -0.618318    23A     -0.591597    24A     -0.571426
      25A     -0.553323    26A     -0.532818    27A     -0.515140
      28A     -0.502597    29A     -0.469694    30A     -0.449367
      31A     -0.443969

  @DF-RHF Final Energy:  -418.74619884092067

   => Energetics <=

    Nuclear Repulsion Energy =            402.5679324565522847
    One-Electron Energy =               -1370.9071188316743246
    Two-Electron Energy =                 549.5929875342013702
    Total Energy =                       -418.7461988409206697
  Basis Set: (AUG-CC-PVTZ AUX)
    Blend: AUG-CC-PVTZ-RI
    Molecular point group: c1

    Geometry (in Angstrom), charge = 0, multiplicity = 1:

       Center              X                  Y                   Z               Mass
    ------------   -----------------  -----------------  -----------------  -----------------
         O            0.728167897966    -1.323302150870     0.011603544080    15.994914619570
         O           -1.887455902034     1.162610549130     0.229774944080    15.994914619570
         O           -1.495634902034    -1.408341450870    -0.402180055920    15.994914619570
         C            0.446076097966     1.478176549130    -0.345669055920    12.000000000000
         C            1.823584097966     0.782520549130    -0.354699055920    12.000000000000
         C           -0.587501902034     0.656629549130     0.432905944080    12.000000000000
         C            1.793595097966    -0.511480450870     0.446206944080    12.000000000000
         C           -0.514503902034    -0.791538450870    -0.020567055920    12.000000000000
         H            0.490969097966     2.480697549130     0.088450944080     1.007825032230
         H            0.054836097966     1.589783549130    -1.360793055920     1.007825032230
         H            2.118273097966     0.539762549130    -1.379622055920     1.007825032230
         H            2.604929097966     1.429847549130     0.057467944080     1.007825032230
         H           -0.345730902034     0.684817549130     1.507540944080     1.007825032230
         H            2.692234097966    -1.110497450870     0.293739944080     1.007825032230
         H            1.682093097966    -0.327564450870     1.520346944080     1.007825032230
         H           -2.421140902034     0.393560549130    -0.058489055920     1.007825032230

  Basis Set: AUG-CC-PVTZ
    Blend: AUG-CC-PVTZ
  Basis Set: (AUG-CC-PVTZ AUX)
    Blend: AUG-CC-PVTZ-JKFIT
	 Reference Energy          =    -418.7461988409206697 [Eh]
	 Singles Energy            =      -0.0000000000000000 [Eh]
	 Same-Spin Energy          =      -0.4124949912452206 [Eh]
	 Opposite-Spin Energy      =      -1.2917464109288899 [Eh]
	 Correlation Energy        =      -1.7042414021741106 [Eh]
	 Total Energy              =    -420.4504402430947607 [Eh]

	 ================> DF-SCS-MP2 Energies <==================
	-----------------------------------------------------------
	 SCS Same-Spin Scale       =       0.3333333333333333 [-]
	 SCS Opposite-Spin Scale   =       1.2000000000000000 [-]
	 SCS Same-Spin Energy      =      -0.1374983304150735 [Eh]
	 SCS Opposite-Spin Energy  =      -1.5500956931146679 [Eh]
	 SCS Correlation Energy    =      -1.6875940235297415 [Eh]
	 SCS Total Energy          =    -420.4337928644504245 [Eh]
	-----------------------------------------------------------

  Dipole Moment: [D]
     X:     3.7669      Y:     1.5267      Z:     0.9425     Total:     4.1723

*** Psi4 exiting successfully. Buy a developer a beer!
