                               Psi4 1.3.2 release

  ==> Input File <==

--------------------------------------------------------------------------
#psi4
#
memory 32 gb

molecule  {
0 1
  O        0.6578240    -1.4038190    -0.0084800
  O       -1.9400820     1.1224280     0.2266150
  O       -1.5482610    -1.4485240    -0.4053400
  C        0.3934500     1.4379940    -0.3488290
  C        1.7606287     0.7222160    -0.3432353
  C       -0.6401280     0.6164470     0.4297460
  C        1.7409690    -0.5516630     0.4430470
  C       -0.5671300    -0.8317210    -0.0237270
  H        0.4383430     2.4405150     0.0852910
  H        0.0022100     1.5496010    -1.3639530
  H        2.0656470     0.4995800    -1.3827820
  H        2.5523030     1.3896650     0.0543080
  H       -0.3983570     0.6446350     1.5043810
  H        2.6396080    -1.1506800     0.2905800
  H        1.6294670    -0.3677470     1.5171870
  H       -2.4737670     0.3533780    -0.0616490
units angstrom
no_reorient  #important for SAPT in psi4, default
symmetry c1  #important for SAPT in psi4, default
}

set PROPERTIES_ORIGIN ["COM"]
properties('MP2/aug-cc-pvtz', properties = ['dipole'])
--------------------------------------------------------------------------

    Molecular point group: c1
  Charge       = 0
  Multiplicity = 1
  Basis Set: AUG-CC-PVTZ
    Blend: AUG-CC-PVTZ
  Basis Set: (AUG-CC-PVTZ AUX)
    Blend: AUG-CC-PVTZ-JKFIT

    Orbital Energies [Eh]
    ---------------------

    Doubly Occupied:

       1A    -20.618795     2A    -20.566399     3A    -20.556565
       4A    -11.393168     5A    -11.313574     6A    -11.312956
       7A    -11.255463     8A    -11.250106     9A     -1.468159
      10A     -1.385140    11A     -1.358460    12A     -1.105625
      13A     -1.027541    14A     -0.918017    15A     -0.867242
      16A     -0.760441    17A     -0.745788    18A     -0.710920
      19A     -0.692881    20A     -0.641488    21A     -0.632296
      22A     -0.617848    23A     -0.592933    24A     -0.572106
      25A     -0.557145    26A     -0.529708    27A     -0.518687
      28A     -0.497758    29A     -0.470507    30A     -0.451070
      31A     -0.444839

  @DF-RHF Final Energy:  -418.74511091080581

   => Energetics <=

    Nuclear Repulsion Energy =            402.0232337452682714
    One-Electron Energy =               -1369.8694434651015399
    Two-Electron Energy =                 549.1010988090274623
    Total Energy =                       -418.7451109108058063
  Basis Set: (AUG-CC-PVTZ AUX)
    Blend: AUG-CC-PVTZ-RI
    Molecular point group: c1

    Geometry (in Angstrom), charge = 0, multiplicity = 1:

       Center              X                  Y                   Z               Mass
    ------------   -----------------  -----------------  -----------------  -----------------
         O            0.713960271347    -1.355996399376    -0.004499639582    15.994914619570
         O           -1.883945728653     1.170250600624     0.230595360418    15.994914619570
         O           -1.492124728653    -1.400701399376    -0.401359639582    15.994914619570
         C            0.449586271347     1.485816600624    -0.344848639582    12.000000000000
         C            1.816764971347     0.770038600624    -0.339254939582    12.000000000000
         C           -0.583991728653     0.664269600624     0.433726360418    12.000000000000
         C            1.797105271347    -0.503840399376     0.447027360418    12.000000000000
         C           -0.510993728653    -0.783898399376    -0.019746639582    12.000000000000
         H            0.494479271347     2.488337600624     0.089271360418     1.007825032230
         H            0.058346271347     1.597423600624    -1.359972639582     1.007825032230
         H            2.121783271347     0.547402600624    -1.378801639582     1.007825032230
         H            2.608439271347     1.437487600624     0.058288360418     1.007825032230
         H           -0.342220728653     0.692457600624     1.508361360418     1.007825032230
         H            2.695744271347    -1.102857399376     0.294560360418     1.007825032230
         H            1.685603271347    -0.319924399376     1.521167360418     1.007825032230
         H           -2.417630728653     0.401200600624    -0.057668639582     1.007825032230

  Basis Set: AUG-CC-PVTZ
    Blend: AUG-CC-PVTZ
  Basis Set: (AUG-CC-PVTZ AUX)
    Blend: AUG-CC-PVTZ-JKFIT
	 Reference Energy          =    -418.7451109108058063 [Eh]
	 Singles Energy            =      -0.0000000000000000 [Eh]
	 Same-Spin Energy          =      -0.4127609170554966 [Eh]
	 Opposite-Spin Energy      =      -1.2928579813036016 [Eh]
	 Correlation Energy        =      -1.7056188983590983 [Eh]
	 Total Energy              =    -420.4507298091648977 [Eh]

	 ================> DF-SCS-MP2 Energies <==================
	-----------------------------------------------------------
	 SCS Same-Spin Scale       =       0.3333333333333333 [-]
	 SCS Opposite-Spin Scale   =       1.2000000000000000 [-]
	 SCS Same-Spin Energy      =      -0.1375869723518322 [Eh]
	 SCS Opposite-Spin Energy  =      -1.5514295775643219 [Eh]
	 SCS Correlation Energy    =      -1.6890165499161540 [Eh]
	 SCS Total Energy          =    -420.4341274607219816 [Eh]
	-----------------------------------------------------------

  Dipole Moment: [D]
     X:     3.8556      Y:     1.6511      Z:     0.9831     Total:     4.3079

*** Psi4 exiting successfully. Buy a developer a beer!
