                               Psi4 1.3.2 release

  ==> Input File <==

--------------------------------------------------------------------------
#psi4
#
memory 32 gb

molecule  {
0 1
  O        0.6578240    -1.4038190    -0.0084800
  O       -1.9400820     1.1224280     0.2266150
  O       -1.5482610    -1.4485240    -0.4053400
  C        0.3934500     1.4379940    -0.3488290
  C        1.7709580     0.7423380    -0.3578590
  C       -0.6401280     0.6164470     0.4297460
  C        1.7730583    -0.5901494     0.4358664
  C       -0.5671300    -0.8317210    -0.0237270
  H        0.4383430     2.4405150     0.0852910
  H        0.0022100     1.5496010    -1.3639530
  H        2.0656470     0.4995800    -1.3827820
  H        2.5523030     1.3896650     0.0543080
  H       -0.3983570     0.6446350     1.5043810
  H        2.6396080    -1.1506800     0.2905800
  H        1.6294670    -0.3677470     1.5171870
  H       -2.4737670     0.3533780    -0.0616490
units angstrom
no_reorient  #important for SAPT in psi4, default
symmetry c1  #important for SAPT in psi4, default
}

set PROPERTIES_ORIGIN ["COM"]
properties('MP2/aug-cc-pvtz', properties = ['dipole'])
--------------------------------------------------------------------------

    Molecular point group: c1
  Charge       = 0
  Multiplicity = 1
  Basis Set: AUG-CC-PVTZ
    Blend: AUG-CC-PVTZ
  Basis Set: (AUG-CC-PVTZ AUX)
    Blend: AUG-CC-PVTZ-JKFIT

    Orbital Energies [Eh]
    ---------------------

    Doubly Occupied:

       1A    -20.617490     2A    -20.566268     3A    -20.556473
       4A    -11.393672     5A    -11.314416     6A    -11.312803
       7A    -11.255526     8A    -11.250175     9A     -1.466490
      10A     -1.384566    11A     -1.358015    12A     -1.099428
      13A     -1.026020    14A     -0.919346    15A     -0.867465
      16A     -0.760128    17A     -0.743271    18A     -0.714119
      19A     -0.689601    20A     -0.643724    21A     -0.635439
      22A     -0.619668    23A     -0.591517    24A     -0.571982
      25A     -0.549678    26A     -0.533982    27A     -0.517164
      28A     -0.500182    29A     -0.468309    30A     -0.447468
      31A     -0.446209

  @DF-RHF Final Energy:  -418.74368035129294

   => Energetics <=

    Nuclear Repulsion Energy =            400.9399724230684683
    One-Electron Energy =               -1367.7261174424554611
    Two-Electron Energy =                 548.0424646680941123
    Total Energy =                       -418.7436803512929373
  Basis Set: (AUG-CC-PVTZ AUX)
    Blend: AUG-CC-PVTZ-RI
    Molecular point group: c1

    Geometry (in Angstrom), charge = 0, multiplicity = 1:

       Center              X                  Y                   Z               Mass
    ------------   -----------------  -----------------  -----------------  -----------------
         O            0.709573930549    -1.354097408911    -0.002244942570    15.994914619570
         O           -1.888332069451     1.172149591089     0.232850057430    15.994914619570
         O           -1.496511069451    -1.398802408911    -0.399104942570    15.994914619570
         C            0.445199930549     1.487715591089    -0.342593942570    12.000000000000
         C            1.822707930549     0.792059591089    -0.351623942570    12.000000000000
         C           -0.588378069451     0.666168591089     0.435981057430    12.000000000000
         C            1.824808230549    -0.540427808911     0.442101457430    12.000000000000
         C           -0.515380069451    -0.781999408911    -0.017491942570    12.000000000000
         H            0.490092930549     2.490236591089     0.091526057430     1.007825032230
         H            0.053959930549     1.599322591089    -1.357717942570     1.007825032230
         H            2.117396930549     0.549301591089    -1.376546942570     1.007825032230
         H            2.604052930549     1.439386591089     0.060543057430     1.007825032230
         H           -0.346607069451     0.694356591089     1.510616057430     1.007825032230
         H            2.691357930549    -1.100958408911     0.296815057430     1.007825032230
         H            1.681216930549    -0.318025408911     1.523422057430     1.007825032230
         H           -2.422017069451     0.403099591089    -0.055413942570     1.007825032230

  Basis Set: AUG-CC-PVTZ
    Blend: AUG-CC-PVTZ
  Basis Set: (AUG-CC-PVTZ AUX)
    Blend: AUG-CC-PVTZ-JKFIT
	 Reference Energy          =    -418.7436803512929373 [Eh]
	 Singles Energy            =      -0.0000000000000000 [Eh]
	 Same-Spin Energy          =      -0.4122604211539654 [Eh]
	 Opposite-Spin Energy      =      -1.2922992937083555 [Eh]
	 Correlation Energy        =      -1.7045597148623211 [Eh]
	 Total Energy              =    -420.4482400661552788 [Eh]

	 ================> DF-SCS-MP2 Energies <==================
	-----------------------------------------------------------
	 SCS Same-Spin Scale       =       0.3333333333333333 [-]
	 SCS Opposite-Spin Scale   =       1.2000000000000000 [-]
	 SCS Same-Spin Energy      =      -0.1374201403846551 [Eh]
	 SCS Opposite-Spin Energy  =      -1.5507591524500266 [Eh]
	 SCS Correlation Energy    =      -1.6881792928346817 [Eh]
	 SCS Total Energy          =    -420.4318596441275986 [Eh]
	-----------------------------------------------------------

  Dipole Moment: [D]
     X:     3.8945      Y:     1.5992      Z:     0.9752     Total:     4.3216

*** Psi4 exiting successfully. Buy a developer a beer!
