                               Psi4 1.3.2 release

  ==> Input File <==

--------------------------------------------------------------------------
#psi4
#
memory 32 gb

molecule  {
0 1
  O        0.6578240    -1.4038190    -0.0084800
  O       -1.9400820     1.1224280     0.2266150
  O       -1.5482610    -1.4485240    -0.4053400
  C        0.3934500     1.4379940    -0.3488290
  C        1.7709580     0.7423380    -0.3578590
  C       -0.6401280     0.6164470     0.4297460
  C        1.7409690    -0.5516630     0.4430470
  C       -0.6577297    -0.7894076    -0.0248547
  H        0.4383430     2.4405150     0.0852910
  H        0.0022100     1.5496010    -1.3639530
  H        2.0656470     0.4995800    -1.3827820
  H        2.5523030     1.3896650     0.0543080
  H       -0.3983570     0.6446350     1.5043810
  H        2.6396080    -1.1506800     0.2905800
  H        1.6294670    -0.3677470     1.5171870
  H       -2.4737670     0.3533780    -0.0616490
units angstrom
no_reorient  #important for SAPT in psi4, default
symmetry c1  #important for SAPT in psi4, default
}

set PROPERTIES_ORIGIN ["COM"]
properties('MP2/aug-cc-pvtz', properties = ['dipole'])
--------------------------------------------------------------------------

    Molecular point group: c1
  Charge       = 0
  Multiplicity = 1
  Basis Set: AUG-CC-PVTZ
    Blend: AUG-CC-PVTZ
  Basis Set: (AUG-CC-PVTZ AUX)
    Blend: AUG-CC-PVTZ-JKFIT

    Orbital Energies [Eh]
    ---------------------

    Doubly Occupied:

       1A    -20.595211     2A    -20.575373     3A    -20.570954
       4A    -11.393760     5A    -11.315897     6A    -11.301445
       7A    -11.251621     8A    -11.249056     9A     -1.468605
      10A     -1.380109    11A     -1.368171    12A     -1.099237
      13A     -1.022430    14A     -0.916428    15A     -0.858784
      16A     -0.765444    17A     -0.735090    18A     -0.714313
      19A     -0.689335    20A     -0.643611    21A     -0.628100
      22A     -0.621540    23A     -0.580661    24A     -0.571223
      25A     -0.561425    26A     -0.535693    27A     -0.518501
      28A     -0.502975    29A     -0.469825    30A     -0.452246
      31A     -0.446377

  @DF-RHF Final Energy:  -418.73577172401588

   => Energetics <=

    Nuclear Repulsion Energy =            401.5335688478585894
    One-Electron Energy =               -1368.9318023238290607
    Two-Electron Energy =                 548.6624617519546518
    Total Energy =                       -418.7357717240158763
  Basis Set: (AUG-CC-PVTZ AUX)
    Blend: AUG-CC-PVTZ-RI
    Molecular point group: c1

    Geometry (in Angstrom), charge = 0, multiplicity = 1:

       Center              X                  Y                   Z               Mass
    ------------   -----------------  -----------------  -----------------  -----------------
         O            0.722260718095    -1.362452598833    -0.002870849182    15.994914619570
         O           -1.875645281905     1.163794401167     0.232224150818    15.994914619570
         O           -1.483824281905    -1.407157598833    -0.399730849182    15.994914619570
         C            0.457886718095     1.479360401167    -0.343219849182    12.000000000000
         C            1.835394718095     0.783704401167    -0.352249849182    12.000000000000
         C           -0.575691281905     0.657813401167     0.435355150818    12.000000000000
         C            1.805405718095    -0.510296598833     0.448656150818    12.000000000000
         C           -0.593292981905    -0.748041198833    -0.019245549182    12.000000000000
         H            0.502779718095     2.481881401167     0.090900150818     1.007825032230
         H            0.066646718095     1.590967401167    -1.358343849182     1.007825032230
         H            2.130083718095     0.540946401167    -1.377172849182     1.007825032230
         H            2.616739718095     1.431031401167     0.059917150818     1.007825032230
         H           -0.333920281905     0.686001401167     1.509990150818     1.007825032230
         H            2.704044718095    -1.109313598833     0.296189150818     1.007825032230
         H            1.693903718095    -0.326380598833     1.522796150818     1.007825032230
         H           -2.409330281905     0.394744401167    -0.056039849182     1.007825032230

  Basis Set: AUG-CC-PVTZ
    Blend: AUG-CC-PVTZ
  Basis Set: (AUG-CC-PVTZ AUX)
    Blend: AUG-CC-PVTZ-JKFIT
	 Reference Energy          =    -418.7357717240158763 [Eh]
	 Singles Energy            =      -0.0000000000000000 [Eh]
	 Same-Spin Energy          =      -0.4126934878497133 [Eh]
	 Opposite-Spin Energy      =      -1.2934905280996016 [Eh]
	 Correlation Energy        =      -1.7061840159493149 [Eh]
	 Total Energy              =    -420.4419557399651808 [Eh]

	 ================> DF-SCS-MP2 Energies <==================
	-----------------------------------------------------------
	 SCS Same-Spin Scale       =       0.3333333333333333 [-]
	 SCS Opposite-Spin Scale   =       1.2000000000000000 [-]
	 SCS Same-Spin Energy      =      -0.1375644959499044 [Eh]
	 SCS Opposite-Spin Energy  =      -1.5521886337195219 [Eh]
	 SCS Correlation Energy    =      -1.6897531296694264 [Eh]
	 SCS Total Energy          =    -420.4255248536853173 [Eh]
	-----------------------------------------------------------

  Dipole Moment: [D]
     X:     3.0035      Y:     1.7826      Z:     0.8949     Total:     3.6055

*** Psi4 exiting successfully. Buy a developer a beer!
