                               Psi4 1.4a3.dev225

  ==> Input File <==

--------------------------------------------------------------------------
#psi4
#
memory 32 gb

molecule  {
0 1
  O        0.6578240    -1.4038190    -0.0084800
  O       -1.9400820     1.1224280     0.2266150
  O       -1.5482610    -1.4485240    -0.4053400
  C        0.3934500     1.4379940    -0.3488290
  C        1.7709580     0.7423380    -0.3578590
  C       -0.6401280     0.6164470     0.4297460
  C        1.7409690    -0.5516630     0.4430470
  C       -0.5510475    -0.8216105    -0.0174717
  H        0.4383430     2.4405150     0.0852910
  H        0.0022100     1.5496010    -1.3639530
  H        2.0656470     0.4995800    -1.3827820
  H        2.5523030     1.3896650     0.0543080
  H       -0.3983570     0.6446350     1.5043810
  H        2.6396080    -1.1506800     0.2905800
  H        1.6294670    -0.3677470     1.5171870
  H       -2.4737670     0.3533780    -0.0616490
units angstrom
no_reorient  #important for SAPT in psi4, default
symmetry c1  #important for SAPT in psi4, default
}

set PROPERTIES_ORIGIN ["COM"]
properties('MP2/aug-cc-pvtz', properties = ['dipole'])
--------------------------------------------------------------------------

    Molecular point group: c1
  Charge       = 0
  Multiplicity = 1
  Basis Set: AUG-CC-PVTZ
    Blend: AUG-CC-PVTZ
  Basis Set: (AUG-CC-PVTZ AUX)
    Blend: AUG-CC-PVTZ-JKFIT

    Orbital Energies [Eh]
    ---------------------

    Doubly Occupied:

       1A    -20.623297     2A    -20.566914     3A    -20.552653
       4A    -11.394412     5A    -11.316018     6A    -11.313880
       7A    -11.256045     8A    -11.250817     9A     -1.470261
      10A     -1.383061    11A     -1.349982    12A     -1.105647
      13A     -1.028039    14A     -0.921643    15A     -0.869876
      16A     -0.762114    17A     -0.747232    18A     -0.710089
      19A     -0.692445    20A     -0.642746    21A     -0.627072
      22A     -0.620548    23A     -0.594544    24A     -0.573709
      25A     -0.552628    26A     -0.531352    27A     -0.516787
      28A     -0.499073    29A     -0.468737    30A     -0.449441
      31A     -0.446470

  @DF-RHF Final Energy:  -418.74358102019579

   => Energetics <=

    Nuclear Repulsion Energy =            401.6802060867267983
    One-Electron Energy =               -1369.1725079792099677
    Two-Electron Energy =                 548.7487208722874357
    Total Energy =                       -418.7435810201957338
  Basis Set: (AUG-CC-PVTZ AUX)
    Blend: AUG-CC-PVTZ-RI
    Molecular point group: c1

    Geometry (in Angstrom), charge = 0, multiplicity = 1:

       Center              X                  Y                   Z               Mass
    ------------   -----------------  -----------------  -----------------  -----------------
         O            0.711229130860    -1.359122623443    -0.003634296211    15.994914619570
         O           -1.886676869140     1.167124376557     0.231460703789    15.994914619570
         O           -1.494855869140    -1.403827623443    -0.400494296211    15.994914619570
         C            0.446855130860     1.482690376557    -0.343983296211    12.000000000000
         C            1.824363130860     0.787034376557    -0.353013296211    12.000000000000
         C           -0.586722869140     0.661143376557     0.434591703789    12.000000000000
         C            1.794374130860    -0.506966623443     0.447892703789    12.000000000000
         C           -0.497642369140    -0.776914123443    -0.012625996211    12.000000000000
         H            0.491748130860     2.485211376557     0.090136703789     1.007825032230
         H            0.055615130860     1.594297376557    -1.359107296211     1.007825032230
         H            2.119052130860     0.544276376557    -1.377936296211     1.007825032230
         H            2.605708130860     1.434361376557     0.059153703789     1.007825032230
         H           -0.344951869140     0.689331376557     1.509226703789     1.007825032230
         H            2.693013130860    -1.105983623443     0.295425703789     1.007825032230
         H            1.682872130860    -0.323050623443     1.522032703789     1.007825032230
         H           -2.420361869140     0.398074376557    -0.056803296211     1.007825032230

  Basis Set: AUG-CC-PVTZ
    Blend: AUG-CC-PVTZ
  Basis Set: (AUG-CC-PVTZ AUX)
    Blend: AUG-CC-PVTZ-JKFIT
	 Reference Energy          =    -418.7435810201957906 [Eh]
	 Singles Energy            =      -0.0000000000000000 [Eh]
	 Same-Spin Energy          =      -0.4131115164552875 [Eh]
	 Opposite-Spin Energy      =      -1.2936325586330211 [Eh]
	 Correlation Energy        =      -1.7067440750883085 [Eh]
	 Total Energy              =    -420.4503250952840858 [Eh]

	 ================> DF-SCS-MP2 Energies <==================
	-----------------------------------------------------------
	 SCS Same-Spin Scale       =       0.3333333333333333 [-]
	 SCS Opposite-Spin Scale   =       1.2000000000000000 [-]
	 SCS Same-Spin Energy      =      -0.1377038388184292 [Eh]
	 SCS Opposite-Spin Energy  =      -1.5523590703596253 [Eh]
	 SCS Correlation Energy    =      -1.6900629091780544 [Eh]
	 SCS Total Energy          =    -420.4336439293738295 [Eh]
	-----------------------------------------------------------

  Dipole Moment: [D]
     X:     4.0040      Y:     1.7040      Z:     1.0185     Total:     4.4692

*** Psi4 exiting successfully. Buy a developer a beer!
