                               Psi4 1.3.2 release

  ==> Input File <==

--------------------------------------------------------------------------
#psi4
#
memory 32 gb

molecule  {
0 1
  O        0.6176142    -1.4829831    -0.0404525
  O       -1.9400820     1.1224280     0.2266150
  O       -1.5482610    -1.4485240    -0.4053400
  C        0.3934500     1.4379940    -0.3488290
  C        1.7709580     0.7423380    -0.3578590
  C       -0.6401280     0.6164470     0.4297460
  C        1.7409690    -0.5516630     0.4430470
  C       -0.5671300    -0.8317210    -0.0237270
  H        0.4383430     2.4405150     0.0852910
  H        0.0022100     1.5496010    -1.3639530
  H        2.0656470     0.4995800    -1.3827820
  H        2.5523030     1.3896650     0.0543080
  H       -0.3983570     0.6446350     1.5043810
  H        2.6396080    -1.1506800     0.2905800
  H        1.6294670    -0.3677470     1.5171870
  H       -2.4737670     0.3533780    -0.0616490
units angstrom
no_reorient  #important for SAPT in psi4, default
symmetry c1  #important for SAPT in psi4, default
}

set PROPERTIES_ORIGIN ["COM"]
properties('MP2/aug-cc-pvtz', properties = ['dipole'])
--------------------------------------------------------------------------

    Molecular point group: c1
  Charge       = 0
  Multiplicity = 1
  Basis Set: AUG-CC-PVTZ
    Blend: AUG-CC-PVTZ
  Basis Set: (AUG-CC-PVTZ AUX)
    Blend: AUG-CC-PVTZ-JKFIT

    Orbital Energies [Eh]
    ---------------------

    Doubly Occupied:

       1A    -20.618465     2A    -20.567656     3A    -20.549224
       4A    -11.387317     5A    -11.321275     6A    -11.315876
       7A    -11.259329     8A    -11.251468     9A     -1.456650
      10A     -1.379163    11A     -1.348360    12A     -1.107889
      13A     -1.019514    14A     -0.920686    15A     -0.857996
      16A     -0.762699    17A     -0.739712    18A     -0.706457
      19A     -0.684762    20A     -0.635823    21A     -0.623742
      22A     -0.619388    23A     -0.593183    24A     -0.574587
      25A     -0.556461    26A     -0.530199    27A     -0.519188
      28A     -0.496523    29A     -0.469199    30A     -0.451266
      31A     -0.446494

  @DF-RHF Final Energy:  -418.73693194738291

   => Energetics <=

    Nuclear Repulsion Energy =            399.8017036027108588
    One-Electron Energy =               -1365.5361695845472241
    Two-Electron Energy =                 546.9975340344534516
    Total Energy =                       -418.7369319473829137
  Basis Set: (AUG-CC-PVTZ AUX)
    Blend: AUG-CC-PVTZ-RI
    Molecular point group: c1

    Geometry (in Angstrom), charge = 0, multiplicity = 1:

       Center              X                  Y                   Z               Mass
    ------------   -----------------  -----------------  -----------------  -----------------
         O            0.678224513574    -1.426329973971    -0.030553160454    15.994914619570
         O           -1.879471686426     1.179081126029     0.236514339546    15.994914619570
         O           -1.487650686426    -1.391870873971    -0.395440660454    15.994914619570
         C            0.454060313574     1.494647126029    -0.338929660454    12.000000000000
         C            1.831568313574     0.798991126029    -0.347959660454    12.000000000000
         C           -0.579517686426     0.673100126029     0.439645339546    12.000000000000
         C            1.801579313574    -0.495009873971     0.452946339546    12.000000000000
         C           -0.506519686426    -0.775067873971    -0.013827660454    12.000000000000
         H            0.498953313574     2.497168126029     0.095190339546     1.007825032230
         H            0.062820313574     1.606254126029    -1.354053660454     1.007825032230
         H            2.126257313574     0.556233126029    -1.372882660454     1.007825032230
         H            2.612913313574     1.446318126029     0.064207339546     1.007825032230
         H           -0.337746686426     0.701288126029     1.514280339546     1.007825032230
         H            2.700218313574    -1.094026873971     0.300479339546     1.007825032230
         H            1.690077313574    -0.311093873971     1.527086339546     1.007825032230
         H           -2.413156686426     0.410031126029    -0.051749660454     1.007825032230

  Basis Set: AUG-CC-PVTZ
    Blend: AUG-CC-PVTZ
  Basis Set: (AUG-CC-PVTZ AUX)
    Blend: AUG-CC-PVTZ-JKFIT
	 Reference Energy          =    -418.7369319473829137 [Eh]
	 Singles Energy            =      -0.0000000000000000 [Eh]
	 Same-Spin Energy          =      -0.4131416452229553 [Eh]
	 Opposite-Spin Energy      =      -1.2952603826172004 [Eh]
	 Correlation Energy        =      -1.7084020278401557 [Eh]
	 Total Energy              =    -420.4453339752230931 [Eh]

	 ================> DF-SCS-MP2 Energies <==================
	-----------------------------------------------------------
	 SCS Same-Spin Scale       =       0.3333333333333333 [-]
	 SCS Opposite-Spin Scale   =       1.2000000000000000 [-]
	 SCS Same-Spin Energy      =      -0.1377138817409851 [Eh]
	 SCS Opposite-Spin Energy  =      -1.5543124591406405 [Eh]
	 SCS Correlation Energy    =      -1.6920263408816256 [Eh]
	 SCS Total Energy          =    -420.4289582882645391 [Eh]
	-----------------------------------------------------------

  Dipole Moment: [D]
     X:     4.0216      Y:     1.8656      Z:     1.0514     Total:     4.5562

*** Psi4 exiting successfully. Buy a developer a beer!
