                               Psi4 1.3.2 release

  ==> Input File <==

--------------------------------------------------------------------------
#psi4
#
memory 32 gb

molecule  {
0 1
  O        0.6578240    -1.4038190    -0.0084800
  O       -1.9400820     1.1224280     0.2266150
  O       -1.5482610    -1.4485240    -0.4053400
  C        0.3934500     1.4379940    -0.3488290
  C        1.7709580     0.7423380    -0.3578590
  C       -0.6401280     0.6164470     0.4297460
  C        1.7409690    -0.5516630     0.4430470
  C       -0.4765303    -0.8740344    -0.0225993
  H        0.4383430     2.4405150     0.0852910
  H        0.0022100     1.5496010    -1.3639530
  H        2.0656470     0.4995800    -1.3827820
  H        2.5523030     1.3896650     0.0543080
  H       -0.3983570     0.6446350     1.5043810
  H        2.6396080    -1.1506800     0.2905800
  H        1.6294670    -0.3677470     1.5171870
  H       -2.4737670     0.3533780    -0.0616490
units angstrom
no_reorient  #important for SAPT in psi4, default
symmetry c1  #important for SAPT in psi4, default
}

set PROPERTIES_ORIGIN ["COM"]
properties('MP2/aug-cc-pvtz', properties = ['dipole'])
--------------------------------------------------------------------------

    Molecular point group: c1
  Charge       = 0
  Multiplicity = 1
  Basis Set: AUG-CC-PVTZ
    Blend: AUG-CC-PVTZ
  Basis Set: (AUG-CC-PVTZ AUX)
    Blend: AUG-CC-PVTZ-JKFIT

    Orbital Energies [Eh]
    ---------------------

    Doubly Occupied:

       1A    -20.641943     2A    -20.562711     3A    -20.536004
       4A    -11.392206     5A    -11.327519     6A    -11.311775
       7A    -11.260699     8A    -11.248487     9A     -1.513065
      10A     -1.374598    11A     -1.328335    12A     -1.110808
      13A     -1.030722    14A     -0.925020    15A     -0.875032
      16A     -0.765236    17A     -0.756433    18A     -0.714055
      19A     -0.697410    20A     -0.652686    21A     -0.623730
      22A     -0.614633    23A     -0.605791    24A     -0.577108
      25A     -0.554680    26A     -0.528245    27A     -0.515972
      28A     -0.492585    29A     -0.461136    30A     -0.442937
      31A     -0.432479

  @DF-RHF Final Energy:  -418.73224226070090

   => Energetics <=

    Nuclear Repulsion Energy =            401.8561008991664494
    One-Electron Energy =               -1369.4286092554257266
    Two-Electron Energy =                 548.8402660955583769
    Total Energy =                       -418.7322422607009003
  Basis Set: (AUG-CC-PVTZ AUX)
    Blend: AUG-CC-PVTZ-RI
    Molecular point group: c1

    Geometry (in Angstrom), charge = 0, multiplicity = 1:

       Center              X                  Y                   Z               Mass
    ------------   -----------------  -----------------  -----------------  -----------------
         O            0.703523599925    -1.353701673874    -0.003104071237    15.994914619570
         O           -1.894382400075     1.172545326126     0.231990928763    15.994914619570
         O           -1.502561400075    -1.398406673874    -0.399964071237    15.994914619570
         C            0.439149599925     1.488111326126    -0.343453071237    12.000000000000
         C            1.816657599925     0.792455326126    -0.352483071237    12.000000000000
         C           -0.594428400075     0.666564326126     0.435121928763    12.000000000000
         C            1.786668599925    -0.501545673874     0.448422928763    12.000000000000
         C           -0.430830700075    -0.823917073874    -0.017223371237    12.000000000000
         H            0.484042599925     2.490632326126     0.090666928763     1.007825032230
         H            0.047909599925     1.599718326126    -1.358577071237     1.007825032230
         H            2.111346599925     0.549697326126    -1.377406071237     1.007825032230
         H            2.598002599925     1.439782326126     0.059683928763     1.007825032230
         H           -0.352657400075     0.694752326126     1.509756928763     1.007825032230
         H            2.685307599925    -1.100562673874     0.295955928763     1.007825032230
         H            1.675166599925    -0.317629673874     1.522562928763     1.007825032230
         H           -2.428067400075     0.403495326126    -0.056273071237     1.007825032230

  Basis Set: AUG-CC-PVTZ
    Blend: AUG-CC-PVTZ
  Basis Set: (AUG-CC-PVTZ AUX)
    Blend: AUG-CC-PVTZ-JKFIT
	 Reference Energy          =    -418.7322422607009003 [Eh]
	 Singles Energy            =      -0.0000000000000000 [Eh]
	 Same-Spin Energy          =      -0.4129966380004926 [Eh]
	 Opposite-Spin Energy      =      -1.2928876802883551 [Eh]
	 Correlation Energy        =      -1.7058843182888477 [Eh]
	 Total Energy              =    -420.4381265789897384 [Eh]

	 ================> DF-SCS-MP2 Energies <==================
	-----------------------------------------------------------
	 SCS Same-Spin Scale       =       0.3333333333333333 [-]
	 SCS Opposite-Spin Scale   =       1.2000000000000000 [-]
	 SCS Same-Spin Energy      =      -0.1376655460001642 [Eh]
	 SCS Opposite-Spin Energy  =      -1.5514652163460261 [Eh]
	 SCS Correlation Energy    =      -1.6891307623461902 [Eh]
	 SCS Total Energy          =    -420.4213730230470674 [Eh]
	-----------------------------------------------------------

  Dipole Moment: [D]
     X:     4.7073      Y:     1.5463      Z:     1.0788     Total:     5.0709

*** Psi4 exiting successfully. Buy a developer a beer!
