                               Psi4 1.3.2 release

  ==> Input File <==

--------------------------------------------------------------------------
#psi4
#
memory 32 gb

molecule  {
0 1
  O        0.6578240    -1.4038190    -0.0084800
  O       -1.9400820     1.1224280     0.2266150
  O       -1.5482610    -1.4485240    -0.4053400
  C        0.3934500     1.4379940    -0.3488290
  C        1.7709580     0.7423380    -0.3578590
  C       -0.6401280     0.6164470     0.4297460
  C        1.7409690    -0.5516630     0.4430470
  C       -0.5736579    -0.8241199    -0.0482769
  H        0.4383430     2.4405150     0.0852910
  H        0.0022100     1.5496010    -1.3639530
  H        2.0656470     0.4995800    -1.3827820
  H        2.5523030     1.3896650     0.0543080
  H       -0.3983570     0.6446350     1.5043810
  H        2.6396080    -1.1506800     0.2905800
  H        1.6294670    -0.3677470     1.5171870
  H       -2.4737670     0.3533780    -0.0616490
units angstrom
no_reorient  #important for SAPT in psi4, default
symmetry c1  #important for SAPT in psi4, default
}

set PROPERTIES_ORIGIN ["COM"]
properties('MP2/aug-cc-pvtz', properties = ['dipole'])
--------------------------------------------------------------------------

    Molecular point group: c1
  Charge       = 0
  Multiplicity = 1
  Basis Set: AUG-CC-PVTZ
    Blend: AUG-CC-PVTZ
  Basis Set: (AUG-CC-PVTZ AUX)
    Blend: AUG-CC-PVTZ-JKFIT

    Orbital Energies [Eh]
    ---------------------

    Doubly Occupied:

       1A    -20.616315     2A    -20.566757     3A    -20.558923
       4A    -11.392765     5A    -11.313160     6A    -11.312928
       7A    -11.254083     8A    -11.249422     9A     -1.466136
      10A     -1.386097    11A     -1.361579    12A     -1.102764
      13A     -1.024351    14A     -0.917030    15A     -0.866383
      16A     -0.761646    17A     -0.743608    18A     -0.710827
      19A     -0.691114    20A     -0.641124    21A     -0.632715
      22A     -0.619970    23A     -0.591145    24A     -0.572392
      25A     -0.555063    26A     -0.532567    27A     -0.516449
      28A     -0.501849    29A     -0.470569    30A     -0.450361
      31A     -0.445645

  @DF-RHF Final Energy:  -418.74614891180994

   => Energetics <=

    Nuclear Repulsion Energy =            401.6429086034494844
    One-Electron Energy =               -1369.1266423863171440
    Two-Electron Energy =                 548.7375848710576065
    Total Energy =                       -418.7461489118099962
  Basis Set: (AUG-CC-PVTZ AUX)
    Blend: AUG-CC-PVTZ-RI
    Molecular point group: c1

    Geometry (in Angstrom), charge = 0, multiplicity = 1:

       Center              X                  Y                   Z               Mass
    ------------   -----------------  -----------------  -----------------  -----------------
         O            0.713567183506    -1.358863136246    -0.000448851487    15.994914619570
         O           -1.884338816494     1.167383863754     0.234646148513    15.994914619570
         O           -1.492517816494    -1.403568136246    -0.397308851487    15.994914619570
         C            0.449193183506     1.482949863754    -0.340797851487    12.000000000000
         C            1.826701183506     0.787293863754    -0.349827851487    12.000000000000
         C           -0.584384816494     0.661402863754     0.437777148513    12.000000000000
         C            1.796712183506    -0.506707136246     0.451078148513    12.000000000000
         C           -0.517914716494    -0.779164036246    -0.040245751487    12.000000000000
         H            0.494086183506     2.485470863754     0.093322148513     1.007825032230
         H            0.057953183506     1.594556863754    -1.355921851487     1.007825032230
         H            2.121390183506     0.544535863754    -1.374750851487     1.007825032230
         H            2.608046183506     1.434620863754     0.062339148513     1.007825032230
         H           -0.342613816494     0.689590863754     1.512412148513     1.007825032230
         H            2.695351183506    -1.105724136246     0.298611148513     1.007825032230
         H            1.685210183506    -0.322791136246     1.525218148513     1.007825032230
         H           -2.418023816494     0.398333863754    -0.053617851487     1.007825032230

  Basis Set: AUG-CC-PVTZ
    Blend: AUG-CC-PVTZ
  Basis Set: (AUG-CC-PVTZ AUX)
    Blend: AUG-CC-PVTZ-JKFIT
	 Reference Energy          =    -418.7461489118099394 [Eh]
	 Singles Energy            =      -0.0000000000000000 [Eh]
	 Same-Spin Energy          =      -0.4124559957427182 [Eh]
	 Opposite-Spin Energy      =      -1.2925127262505969 [Eh]
	 Correlation Energy        =      -1.7049687219933152 [Eh]
	 Total Energy              =    -420.4511176338032783 [Eh]

	 ================> DF-SCS-MP2 Energies <==================
	-----------------------------------------------------------
	 SCS Same-Spin Scale       =       0.3333333333333333 [-]
	 SCS Opposite-Spin Scale   =       1.2000000000000000 [-]
	 SCS Same-Spin Energy      =      -0.1374853319142394 [Eh]
	 SCS Opposite-Spin Energy  =      -1.5510152715007162 [Eh]
	 SCS Correlation Energy    =      -1.6885006034149557 [Eh]
	 SCS Total Energy          =    -420.4346495152249190 [Eh]
	-----------------------------------------------------------

  Dipole Moment: [D]
     X:     3.7622      Y:     1.6426      Z:     0.9454     Total:     4.2126

*** Psi4 exiting successfully. Buy a developer a beer!
