                               Psi4 1.3.2 release

  ==> Input File <==

--------------------------------------------------------------------------
#psi4
#
memory 32 gb

molecule  {
0 1
  O        0.6245855    -1.2948770    -0.1088318
  O       -1.9400820     1.1224280     0.2266150
  O       -1.5482610    -1.4485240    -0.4053400
  C        0.3934500     1.4379940    -0.3488290
  C        1.7709580     0.7423380    -0.3578590
  C       -0.6401280     0.6164470     0.4297460
  C        1.7409690    -0.5516630     0.4430470
  C       -0.5671300    -0.8317210    -0.0237270
  H        0.4383430     2.4405150     0.0852910
  H        0.0022100     1.5496010    -1.3639530
  H        2.0656470     0.4995800    -1.3827820
  H        2.5523030     1.3896650     0.0543080
  H       -0.3983570     0.6446350     1.5043810
  H        2.6396080    -1.1506800     0.2905800
  H        1.6294670    -0.3677470     1.5171870
  H       -2.4737670     0.3533780    -0.0616490
units angstrom
no_reorient  #important for SAPT in psi4, default
symmetry c1  #important for SAPT in psi4, default
}

set PROPERTIES_ORIGIN ["COM"]
properties('MP2/aug-cc-pvtz', properties = ['dipole'])
--------------------------------------------------------------------------

    Molecular point group: c1
  Charge       = 0
  Multiplicity = 1
  Basis Set: AUG-CC-PVTZ
    Blend: AUG-CC-PVTZ
  Basis Set: (AUG-CC-PVTZ AUX)
    Blend: AUG-CC-PVTZ-JKFIT

    Orbital Energies [Eh]
    ---------------------

    Doubly Occupied:

       1A    -20.621756     2A    -20.561643     3A    -20.545344
       4A    -11.384535     5A    -11.322596     6A    -11.306513
       7A    -11.253932     8A    -11.247945     9A     -1.494609
      10A     -1.383132    11A     -1.353891    12A     -1.104031
      13A     -1.033161    14A     -0.921633    15A     -0.869526
      16A     -0.763499    17A     -0.758006    18A     -0.712368
      19A     -0.695222    20A     -0.644277    21A     -0.634498
      22A     -0.618423    23A     -0.591864    24A     -0.576272
      25A     -0.551950    26A     -0.529087    27A     -0.516019
      28A     -0.496312    29A     -0.465982    30A     -0.447984
      31A     -0.440712

  @DF-RHF Final Energy:  -418.74323745936073

   => Energetics <=

    Nuclear Repulsion Energy =            404.5040064723971796
    One-Electron Energy =               -1374.8010423981752410
    Two-Electron Energy =                 551.5537984664174473
    Total Energy =                       -418.7432374593606710
  Basis Set: (AUG-CC-PVTZ AUX)
    Blend: AUG-CC-PVTZ-RI
    Molecular point group: c1

    Geometry (in Angstrom), charge = 0, multiplicity = 1:

       Center              X                  Y                   Z               Mass
    ------------   -----------------  -----------------  -----------------  -----------------
         O            0.684234952736    -1.264150714709    -0.089507677202    15.994914619570
         O           -1.880432547264     1.153154285291     0.245939122798    15.994914619570
         O           -1.488611547264    -1.417797714709    -0.386015877202    15.994914619570
         C            0.453099452736     1.468720285291    -0.329504877202    12.000000000000
         C            1.830607452736     0.773064285291    -0.338534877202    12.000000000000
         C           -0.580478547264     0.647173285291     0.449070122798    12.000000000000
         C            1.800618452736    -0.520936714709     0.462371122798    12.000000000000
         C           -0.507480547264    -0.800994714709    -0.004402877202    12.000000000000
         H            0.497992452736     2.471241285291     0.104615122798     1.007825032230
         H            0.061859452736     1.580327285291    -1.344628877202     1.007825032230
         H            2.125296452736     0.530306285291    -1.363457877202     1.007825032230
         H            2.611952452736     1.420391285291     0.073632122798     1.007825032230
         H           -0.338707547264     0.675361285291     1.523705122798     1.007825032230
         H            2.699257452736    -1.119953714709     0.309904122798     1.007825032230
         H            1.689116452736    -0.337020714709     1.536511122798     1.007825032230
         H           -2.414117547264     0.384104285291    -0.042324877202     1.007825032230

  Basis Set: AUG-CC-PVTZ
    Blend: AUG-CC-PVTZ
  Basis Set: (AUG-CC-PVTZ AUX)
    Blend: AUG-CC-PVTZ-JKFIT
	 Reference Energy          =    -418.7432374593607278 [Eh]
	 Singles Energy            =      -0.0000000000000000 [Eh]
	 Same-Spin Energy          =      -0.4120349397754394 [Eh]
	 Opposite-Spin Energy      =      -1.2902356399448194 [Eh]
	 Correlation Energy        =      -1.7022705797202589 [Eh]
	 Total Energy              =    -420.4455080390810053 [Eh]

	 ================> DF-SCS-MP2 Energies <==================
	-----------------------------------------------------------
	 SCS Same-Spin Scale       =       0.3333333333333333 [-]
	 SCS Opposite-Spin Scale   =       1.2000000000000000 [-]
	 SCS Same-Spin Energy      =      -0.1373449799251464 [Eh]
	 SCS Opposite-Spin Energy  =      -1.5482827679337832 [Eh]
	 SCS Correlation Energy    =      -1.6856277478589297 [Eh]
	 SCS Total Energy          =    -420.4288652072196442 [Eh]
	-----------------------------------------------------------

  Dipole Moment: [D]
     X:     4.2934      Y:     1.4236      Z:     1.1592     Total:     4.6694

*** Psi4 exiting successfully. Buy a developer a beer!
