                               Psi4 1.3.2 release

  ==> Input File <==

--------------------------------------------------------------------------
#psi4
#
memory 32 gb

molecule  {
0 1
  O        0.6578240    -1.4038190    -0.0084800
  O       -1.9400820     1.1224280     0.2266150
  O       -1.5360107    -1.4656386    -0.4085789
  C        0.3934500     1.4379940    -0.3488290
  C        1.7709580     0.7423380    -0.3578590
  C       -0.6401280     0.6164470     0.4297460
  C        1.7409690    -0.5516630     0.4430470
  C       -0.5671300    -0.8317210    -0.0237270
  H        0.4383430     2.4405150     0.0852910
  H        0.0022100     1.5496010    -1.3639530
  H        2.0656470     0.4995800    -1.3827820
  H        2.5523030     1.3896650     0.0543080
  H       -0.3983570     0.6446350     1.5043810
  H        2.6396080    -1.1506800     0.2905800
  H        1.6294670    -0.3677470     1.5171870
  H       -2.4737670     0.3533780    -0.0616490
units angstrom
no_reorient  #important for SAPT in psi4, default
symmetry c1  #important for SAPT in psi4, default
}

set PROPERTIES_ORIGIN ["COM"]
properties('MP2/aug-cc-pvtz', properties = ['dipole'])
--------------------------------------------------------------------------

    Molecular point group: c1
  Charge       = 0
  Multiplicity = 1
  Basis Set: AUG-CC-PVTZ
    Blend: AUG-CC-PVTZ
  Basis Set: (AUG-CC-PVTZ AUX)
    Blend: AUG-CC-PVTZ-JKFIT

    Orbital Energies [Eh]
    ---------------------

    Doubly Occupied:

       1A    -20.617919     2A    -20.567760     3A    -20.555976
       4A    -11.392719     5A    -11.314266     6A    -11.313735
       7A    -11.254650     8A    -11.250256     9A     -1.467762
      10A     -1.384562    11A     -1.358560    12A     -1.103634
      13A     -1.025340    14A     -0.918738    15A     -0.867690
      16A     -0.761626    17A     -0.744956    18A     -0.710025
      19A     -0.691241    20A     -0.641805    21A     -0.630734
      22A     -0.620070    23A     -0.592611    24A     -0.573141
      25A     -0.554254    26A     -0.532129    27A     -0.516625
      28A     -0.500592    29A     -0.469979    30A     -0.450386
      31A     -0.445718

  @DF-RHF Final Energy:  -418.74604114517354

   => Energetics <=

    Nuclear Repulsion Energy =            401.5123618673913484
    One-Electron Energy =               -1368.8578898268840476
    Two-Electron Energy =                 548.5994868143192207
    Total Energy =                       -418.7460411451735354
  Basis Set: (AUG-CC-PVTZ AUX)
    Blend: AUG-CC-PVTZ-RI
    Molecular point group: c1

    Geometry (in Angstrom), charge = 0, multiplicity = 1:

       Center              X                  Y                   Z               Mass
    ------------   -----------------  -----------------  -----------------  -----------------
         O            0.711203688635    -1.355718214934    -0.002541039575    15.994914619570
         O           -1.886702311365     1.170528785066     0.232553960425    15.994914619570
         O           -1.482631011365    -1.417537814934    -0.402639939575    15.994914619570
         C            0.446829688635     1.486094785066    -0.342890039575    12.000000000000
         C            1.824337688635     0.790438785066    -0.351920039575    12.000000000000
         C           -0.586748311365     0.664547785066     0.435684960425    12.000000000000
         C            1.794348688635    -0.503562214934     0.448985960425    12.000000000000
         C           -0.513750311365    -0.783620214934    -0.017788039575    12.000000000000
         H            0.491722688635     2.488615785066     0.091229960425     1.007825032230
         H            0.055589688635     1.597701785066    -1.358014039575     1.007825032230
         H            2.119026688635     0.547680785066    -1.376843039575     1.007825032230
         H            2.605682688635     1.437765785066     0.060246960425     1.007825032230
         H           -0.344977311365     0.692735785066     1.510319960425     1.007825032230
         H            2.692987688635    -1.102579214934     0.296518960425     1.007825032230
         H            1.682846688635    -0.319646214934     1.523125960425     1.007825032230
         H           -2.420387311365     0.401478785066    -0.055710039575     1.007825032230

  Basis Set: AUG-CC-PVTZ
    Blend: AUG-CC-PVTZ
  Basis Set: (AUG-CC-PVTZ AUX)
    Blend: AUG-CC-PVTZ-JKFIT
	 Reference Energy          =    -418.7460411451735354 [Eh]
	 Singles Energy            =      -0.0000000000000000 [Eh]
	 Same-Spin Energy          =      -0.4125472741775703 [Eh]
	 Opposite-Spin Energy      =      -1.2926827167391017 [Eh]
	 Correlation Energy        =      -1.7052299909166719 [Eh]
	 Total Energy              =    -420.4512711360902131 [Eh]

	 ================> DF-SCS-MP2 Energies <==================
	-----------------------------------------------------------
	 SCS Same-Spin Scale       =       0.3333333333333333 [-]
	 SCS Opposite-Spin Scale   =       1.2000000000000000 [-]
	 SCS Same-Spin Energy      =      -0.1375157580591901 [Eh]
	 SCS Opposite-Spin Energy  =      -1.5512192600869221 [Eh]
	 SCS Correlation Energy    =      -1.6887350181461123 [Eh]
	 SCS Total Energy          =    -420.4347761633196683 [Eh]
	-----------------------------------------------------------

  Dipole Moment: [D]
     X:     3.8248      Y:     1.6959      Z:     0.9913     Total:     4.2997

*** Psi4 exiting successfully. Buy a developer a beer!
