                               Psi4 1.3.2 release

  ==> Input File <==

--------------------------------------------------------------------------
#psi4
#
memory 32 gb

molecule  {
0 1
  O        0.6578240    -1.4038190    -0.0084800
  O       -1.9400820     1.1224280     0.2266150
  O       -1.5482610    -1.4485240    -0.4053400
  C        0.3934500     1.4379940    -0.3488290
  C        1.7709580     0.7423380    -0.3578590
  C       -0.6401280     0.6164470     0.4297460
  C        1.7409690    -0.5516630     0.4430470
  C       -0.5541428    -0.8455977     0.0257796
  H        0.4383430     2.4405150     0.0852910
  H        0.0022100     1.5496010    -1.3639530
  H        2.0656470     0.4995800    -1.3827820
  H        2.5523030     1.3896650     0.0543080
  H       -0.3983570     0.6446350     1.5043810
  H        2.6396080    -1.1506800     0.2905800
  H        1.6294670    -0.3677470     1.5171870
  H       -2.4737670     0.3533780    -0.0616490
units angstrom
no_reorient  #important for SAPT in psi4, default
symmetry c1  #important for SAPT in psi4, default
}

set PROPERTIES_ORIGIN ["COM"]
properties('MP2/aug-cc-pvtz', properties = ['dipole'])
--------------------------------------------------------------------------

    Molecular point group: c1
  Charge       = 0
  Multiplicity = 1
  Basis Set: AUG-CC-PVTZ
    Blend: AUG-CC-PVTZ
  Basis Set: (AUG-CC-PVTZ AUX)
    Blend: AUG-CC-PVTZ-JKFIT

    Orbital Energies [Eh]
    ---------------------

    Doubly Occupied:

       1A    -20.624354     2A    -20.566424     3A    -20.551966
       4A    -11.394286     5A    -11.316854     6A    -11.313581
       7A    -11.255888     8A    -11.250743     9A     -1.472761
      10A     -1.382505    11A     -1.349895    12A     -1.104933
      13A     -1.027067    14A     -0.921521    15A     -0.870242
      16A     -0.760566    17A     -0.748342    18A     -0.709264
      19A     -0.692433    20A     -0.643115    21A     -0.627517
      22A     -0.620038    23A     -0.595340    24A     -0.573281
      25A     -0.552713    26A     -0.530190    27A     -0.517105
      28A     -0.499019    29A     -0.468554    30A     -0.449747
      31A     -0.443959

  @DF-RHF Final Energy:  -418.74294440724668

   => Energetics <=

    Nuclear Repulsion Energy =            401.4748002601279495
    One-Electron Energy =               -1368.7670764840524953
    Two-Electron Energy =                 548.5493318166778636
    Total Energy =                       -418.7429444072466822
  Basis Set: (AUG-CC-PVTZ AUX)
    Blend: AUG-CC-PVTZ-RI
    Molecular point group: c1

    Geometry (in Angstrom), charge = 0, multiplicity = 1:

       Center              X                  Y                   Z               Mass
    ------------   -----------------  -----------------  -----------------  -----------------
         O            0.711549203674    -1.356642201317    -0.008106743245    15.994914619570
         O           -1.886356796326     1.169604798683     0.226988256755    15.994914619570
         O           -1.494535796326    -1.401347201317    -0.404966743245    15.994914619570
         C            0.447175203674     1.485170798683    -0.348455743245    12.000000000000
         C            1.824683203674     0.789514798683    -0.357485743245    12.000000000000
         C           -0.586402796326     0.663623798683     0.430119256755    12.000000000000
         C            1.794694203674    -0.504486201317     0.443420256755    12.000000000000
         C           -0.500417596326    -0.798420901317     0.026152856755    12.000000000000
         H            0.492068203674     2.487691798683     0.085664256755     1.007825032230
         H            0.055935203674     1.596777798683    -1.363579743245     1.007825032230
         H            2.119372203674     0.546756798683    -1.382408743245     1.007825032230
         H            2.606028203674     1.436841798683     0.054681256755     1.007825032230
         H           -0.344631796326     0.691811798683     1.504754256755     1.007825032230
         H            2.693333203674    -1.103503201317     0.290953256755     1.007825032230
         H            1.683192203674    -0.320570201317     1.517560256755     1.007825032230
         H           -2.420041796326     0.400554798683    -0.061275743245     1.007825032230

  Basis Set: AUG-CC-PVTZ
    Blend: AUG-CC-PVTZ
  Basis Set: (AUG-CC-PVTZ AUX)
    Blend: AUG-CC-PVTZ-JKFIT
	 Reference Energy          =    -418.7429444072466822 [Eh]
	 Singles Energy            =      -0.0000000000000000 [Eh]
	 Same-Spin Energy          =      -0.4129921600089784 [Eh]
	 Opposite-Spin Energy      =      -1.2934129845643301 [Eh]
	 Correlation Energy        =      -1.7064051445733086 [Eh]
	 Total Energy              =    -420.4493495518199779 [Eh]

	 ================> DF-SCS-MP2 Energies <==================
	-----------------------------------------------------------
	 SCS Same-Spin Scale       =       0.3333333333333333 [-]
	 SCS Opposite-Spin Scale   =       1.2000000000000000 [-]
	 SCS Same-Spin Energy      =      -0.1376640533363261 [Eh]
	 SCS Opposite-Spin Energy  =      -1.5520955814771960 [Eh]
	 SCS Correlation Energy    =      -1.6897596348135222 [Eh]
	 SCS Total Energy          =    -420.4327040420602088 [Eh]
	-----------------------------------------------------------

  Dipole Moment: [D]
     X:     4.0371      Y:     1.6563      Z:     1.0532     Total:     4.4890

*** Psi4 exiting successfully. Buy a developer a beer!
