                               Psi4 1.3.2 release

  ==> Input File <==

--------------------------------------------------------------------------
#psi4
#
memory 32 gb

molecule  {
0 1
  O        0.6578240    -1.4038190    -0.0084800
  O       -1.9400820     1.1224280     0.2266150
  O       -1.5482610    -1.4485240    -0.4053400
  C        0.3934500     1.4379940    -0.3488290
  C        1.7709580     0.7423380    -0.3578590
  C       -0.6563348     0.5719027     0.4165477
  C        1.7409690    -0.5516630     0.4430470
  C       -0.5671300    -0.8317210    -0.0237270
  H        0.4383430     2.4405150     0.0852910
  H        0.0022100     1.5496010    -1.3639530
  H        2.0656470     0.4995800    -1.3827820
  H        2.5523030     1.3896650     0.0543080
  H       -0.3983570     0.6446350     1.5043810
  H        2.6396080    -1.1506800     0.2905800
  H        1.6294670    -0.3677470     1.5171870
  H       -2.4737670     0.3533780    -0.0616490
units angstrom
no_reorient  #important for SAPT in psi4, default
symmetry c1  #important for SAPT in psi4, default
}

set PROPERTIES_ORIGIN ["COM"]
properties('MP2/aug-cc-pvtz', properties = ['dipole'])
--------------------------------------------------------------------------

    Molecular point group: c1
  Charge       = 0
  Multiplicity = 1
  Basis Set: AUG-CC-PVTZ
    Blend: AUG-CC-PVTZ
  Basis Set: (AUG-CC-PVTZ AUX)
    Blend: AUG-CC-PVTZ-JKFIT

    Orbital Energies [Eh]
    ---------------------

    Doubly Occupied:

       1A    -20.619855     2A    -20.568478     3A    -20.555916
       4A    -11.392512     5A    -11.314243     6A    -11.312724
       7A    -11.254016     8A    -11.251653     9A     -1.469582
      10A     -1.387199    11A     -1.359023    12A     -1.101287
      13A     -1.027670    14A     -0.923379    15A     -0.867795
      16A     -0.760623    17A     -0.747403    18A     -0.709177
      19A     -0.693470    20A     -0.637680    21A     -0.631662
      22A     -0.620302    23A     -0.591757    24A     -0.573135
      25A     -0.554783    26A     -0.531867    27A     -0.516666
      28A     -0.501391    29A     -0.470123    30A     -0.452451
      31A     -0.443348

  @DF-RHF Final Energy:  -418.74327573193676

   => Energetics <=

    Nuclear Repulsion Energy =            402.0103777448233018
    One-Electron Energy =               -1369.8249696508257784
    Two-Electron Energy =                 549.0713161740657142
    Total Energy =                       -418.7432757319368193
  Basis Set: (AUG-CC-PVTZ AUX)
    Blend: AUG-CC-PVTZ-RI
    Molecular point group: c1

    Geometry (in Angstrom), charge = 0, multiplicity = 1:

       Center              X                  Y                   Z               Mass
    ------------   -----------------  -----------------  -----------------  -----------------
         O            0.714568040534    -1.353470985269    -0.001622675852    15.994914619570
         O           -1.883337959466     1.172776014731     0.233472324148    15.994914619570
         O           -1.491516959466    -1.398175985269    -0.398482675852    15.994914619570
         C            0.450194040534     1.488342014731    -0.341971675852    12.000000000000
         C            1.827702040534     0.792686014731    -0.351001675852    12.000000000000
         C           -0.599590759466     0.622250714731     0.423405024148    12.000000000000
         C            1.797713040534    -0.501314985269     0.449904324148    12.000000000000
         C           -0.510385959466    -0.781372985269    -0.016869675852    12.000000000000
         H            0.495087040534     2.490863014731     0.092148324148     1.007825032230
         H            0.058954040534     1.599949014731    -1.357095675852     1.007825032230
         H            2.122391040534     0.549928014731    -1.375924675852     1.007825032230
         H            2.609047040534     1.440013014731     0.061165324148     1.007825032230
         H           -0.341612959466     0.694983014731     1.511238324148     1.007825032230
         H            2.696352040534    -1.100331985269     0.297437324148     1.007825032230
         H            1.686211040534    -0.317398985269     1.524044324148     1.007825032230
         H           -2.417022959466     0.403726014731    -0.054791675852     1.007825032230

  Basis Set: AUG-CC-PVTZ
    Blend: AUG-CC-PVTZ
  Basis Set: (AUG-CC-PVTZ AUX)
    Blend: AUG-CC-PVTZ-JKFIT
	 Reference Energy          =    -418.7432757319367624 [Eh]
	 Singles Energy            =      -0.0000000000000000 [Eh]
	 Same-Spin Energy          =      -0.4129047892309969 [Eh]
	 Opposite-Spin Energy      =      -1.2932029525082349 [Eh]
	 Correlation Energy        =      -1.7061077417392319 [Eh]
	 Total Energy              =    -420.4493834736759936 [Eh]

	 ================> DF-SCS-MP2 Energies <==================
	-----------------------------------------------------------
	 SCS Same-Spin Scale       =       0.3333333333333333 [-]
	 SCS Opposite-Spin Scale   =       1.2000000000000000 [-]
	 SCS Same-Spin Energy      =      -0.1376349297436656 [Eh]
	 SCS Opposite-Spin Energy  =      -1.5518435430098818 [Eh]
	 SCS Correlation Energy    =      -1.6894784727535475 [Eh]
	 SCS Total Energy          =    -420.4327542046902977 [Eh]
	-----------------------------------------------------------

  Dipole Moment: [D]
     X:     3.8301      Y:     1.6742      Z:     0.9896     Total:     4.2956

*** Psi4 exiting successfully. Buy a developer a beer!
