                               Psi4 1.3.2 release

  ==> Input File <==

--------------------------------------------------------------------------
#psi4
#
memory 32 gb

molecule  {
0 1
  O        0.6578240    -1.4038190    -0.0084800
  O       -1.9400820     1.1224280     0.2266150
  O       -1.5482610    -1.4485240    -0.4053400
  C        0.3934500     1.4379940    -0.3488290
  C        1.7709580     0.7423380    -0.3578590
  C       -0.6124836     0.7073299     0.4553844
  C        1.7409690    -0.5516630     0.4430470
  C       -0.5671300    -0.8317210    -0.0237270
  H        0.4383430     2.4405150     0.0852910
  H        0.0022100     1.5496010    -1.3639530
  H        2.0656470     0.4995800    -1.3827820
  H        2.5523030     1.3896650     0.0543080
  H       -0.3983570     0.6446350     1.5043810
  H        2.6396080    -1.1506800     0.2905800
  H        1.6294670    -0.3677470     1.5171870
  H       -2.4737670     0.3533780    -0.0616490
units angstrom
no_reorient  #important for SAPT in psi4, default
symmetry c1  #important for SAPT in psi4, default
}

set PROPERTIES_ORIGIN ["COM"]
properties('MP2/aug-cc-pvtz', properties = ['dipole'])
--------------------------------------------------------------------------

    Molecular point group: c1
  Charge       = 0
  Multiplicity = 1
  Basis Set: AUG-CC-PVTZ
    Blend: AUG-CC-PVTZ
  Basis Set: (AUG-CC-PVTZ AUX)
    Blend: AUG-CC-PVTZ-JKFIT

    Orbital Energies [Eh]
    ---------------------

    Doubly Occupied:

       1A    -20.616816     2A    -20.563731     3A    -20.556418
       4A    -11.391669     5A    -11.315799     6A    -11.314196
       7A    -11.256394     8A    -11.247492     9A     -1.464027
      10A     -1.381158    11A     -1.356891    12A     -1.108676
      13A     -1.023471    14A     -0.911748    15A     -0.865391
      16A     -0.762446    17A     -0.740017    18A     -0.712814
      19A     -0.687542    20A     -0.648853    21A     -0.630139
      22A     -0.620322    23A     -0.594438    24A     -0.575282
      25A     -0.550953    26A     -0.531002    27A     -0.516276
      28A     -0.500029    29A     -0.471056    30A     -0.457055
      31A     -0.429738

  @DF-RHF Final Energy:  -418.73762951816087

   => Energetics <=

    Nuclear Repulsion Energy =            400.7737538384230902
    One-Electron Energy =               -1367.4190914109283312
    Two-Electron Energy =                 547.9077080543443117
    Total Energy =                       -418.7376295181609294
  Basis Set: (AUG-CC-PVTZ AUX)
    Blend: AUG-CC-PVTZ-RI
    Molecular point group: c1

    Geometry (in Angstrom), charge = 0, multiplicity = 1:

       Center              X                  Y                   Z               Mass
    ------------   -----------------  -----------------  -----------------  -----------------
         O            0.710033560198    -1.367474980038    -0.005638626441    15.994914619570
         O           -1.887872439802     1.158772019962     0.229456373559    15.994914619570
         O           -1.496051439802    -1.412179980038    -0.402498626441    15.994914619570
         C            0.445659560198     1.474338019962    -0.345987626441    12.000000000000
         C            1.823167560198     0.778682019962    -0.355017626441    12.000000000000
         C           -0.560274039802     0.743673919962     0.458225773559    12.000000000000
         C            1.793178560198    -0.515318980038     0.445888373559    12.000000000000
         C           -0.514920439802    -0.795376980038    -0.020885626441    12.000000000000
         H            0.490552560198     2.476859019962     0.088132373559     1.007825032230
         H            0.054419560198     1.585945019962    -1.361111626441     1.007825032230
         H            2.117856560198     0.535924019962    -1.379940626441     1.007825032230
         H            2.604512560198     1.426009019962     0.057149373559     1.007825032230
         H           -0.346147439802     0.680979019962     1.507222373559     1.007825032230
         H            2.691817560198    -1.114335980038     0.293421373559     1.007825032230
         H            1.681676560198    -0.331402980038     1.520028373559     1.007825032230
         H           -2.421557439802     0.389722019962    -0.058807626441     1.007825032230

  Basis Set: AUG-CC-PVTZ
    Blend: AUG-CC-PVTZ
  Basis Set: (AUG-CC-PVTZ AUX)
    Blend: AUG-CC-PVTZ-JKFIT
	 Reference Energy          =    -418.7376295181608725 [Eh]
	 Singles Energy            =      -0.0000000000000000 [Eh]
	 Same-Spin Energy          =      -0.4126453760974201 [Eh]
	 Opposite-Spin Energy      =      -1.2928056515088715 [Eh]
	 Correlation Energy        =      -1.7054510276062915 [Eh]
	 Total Energy              =    -420.4430805457671454 [Eh]

	 ================> DF-SCS-MP2 Energies <==================
	-----------------------------------------------------------
	 SCS Same-Spin Scale       =       0.3333333333333333 [-]
	 SCS Opposite-Spin Scale   =       1.2000000000000000 [-]
	 SCS Same-Spin Energy      =      -0.1375484586991400 [Eh]
	 SCS Opposite-Spin Energy  =      -1.5513667818106458 [Eh]
	 SCS Correlation Energy    =      -1.6889152405097858 [Eh]
	 SCS Total Energy          =    -420.4265447586706728 [Eh]
	-----------------------------------------------------------

  Dipole Moment: [D]
     X:     3.9091      Y:     1.6262      Z:     0.9690     Total:     4.3433

*** Psi4 exiting successfully. Buy a developer a beer!
