                               Psi4 1.3.2 release

  ==> Input File <==

--------------------------------------------------------------------------
#psi4
#
memory 32 gb

molecule  {
0 1
  O        0.6578240    -1.4038190    -0.0084800
  O       -1.9087861     1.2080909     0.2635431
  O       -1.5482610    -1.4485240    -0.4053400
  C        0.3934500     1.4379940    -0.3488290
  C        1.7709580     0.7423380    -0.3578590
  C       -0.6401280     0.6164470     0.4297460
  C        1.7409690    -0.5516630     0.4430470
  C       -0.5671300    -0.8317210    -0.0237270
  H        0.4383430     2.4405150     0.0852910
  H        0.0022100     1.5496010    -1.3639530
  H        2.0656470     0.4995800    -1.3827820
  H        2.5523030     1.3896650     0.0543080
  H       -0.3983570     0.6446350     1.5043810
  H        2.6396080    -1.1506800     0.2905800
  H        1.6294670    -0.3677470     1.5171870
  H       -2.4737670     0.3533780    -0.0616490
units angstrom
no_reorient  #important for SAPT in psi4, default
symmetry c1  #important for SAPT in psi4, default
}

set PROPERTIES_ORIGIN ["COM"]
properties('MP2/aug-cc-pvtz', properties = ['dipole'])
--------------------------------------------------------------------------

    Molecular point group: c1
  Charge       = 0
  Multiplicity = 1
  Basis Set: AUG-CC-PVTZ
    Blend: AUG-CC-PVTZ
  Basis Set: (AUG-CC-PVTZ AUX)
    Blend: AUG-CC-PVTZ-JKFIT

    Orbital Energies [Eh]
    ---------------------

    Doubly Occupied:

       1A    -20.621079     2A    -20.575170     3A    -20.559740
       4A    -11.396029     5A    -11.314350     6A    -11.311355
       7A    -11.253450     8A    -11.248131     9A     -1.469400
      10A     -1.379774    11A     -1.352985    12A     -1.101158
      13A     -1.022779    14A     -0.917358    15A     -0.867288
      16A     -0.752110    17A     -0.746385    18A     -0.705784
      19A     -0.691452    20A     -0.636706    21A     -0.627491
      22A     -0.618248    23A     -0.590954    24A     -0.573678
      25A     -0.555791    26A     -0.527164    27A     -0.516322
      28A     -0.501045    29A     -0.471069    30A     -0.449865
      31A     -0.444771

  @DF-RHF Final Energy:  -418.73163834665019

   => Energetics <=

    Nuclear Repulsion Energy =            400.7046229387762537
    One-Electron Energy =               -1367.2747571007437273
    Two-Electron Energy =                 547.8384958153171738
    Total Energy =                       -418.7316383466502430
  Basis Set: (AUG-CC-PVTZ AUX)
    Blend: AUG-CC-PVTZ-RI
    Molecular point group: c1

    Geometry (in Angstrom), charge = 0, multiplicity = 1:

       Center              X                  Y                   Z               Mass
    ------------   -----------------  -----------------  -----------------  -----------------
         O            0.708578615669    -1.369884134454    -0.008077294975    15.994914619570
         O           -1.858031484331     1.242025765546     0.263945805025    15.994914619570
         O           -1.497506384331    -1.414589134454    -0.404937294975    15.994914619570
         C            0.444204615669     1.471928865546    -0.348426294975    12.000000000000
         C            1.821712615669     0.776272865546    -0.357456294975    12.000000000000
         C           -0.589373384331     0.650381865546     0.430148705025    12.000000000000
         C            1.791723615669    -0.517728134454     0.443449705025    12.000000000000
         C           -0.516375384331    -0.797786134454    -0.023324294975    12.000000000000
         H            0.489097615669     2.474449865546     0.085693705025     1.007825032230
         H            0.052964615669     1.583535865546    -1.363550294975     1.007825032230
         H            2.116401615669     0.533514865546    -1.382379294975     1.007825032230
         H            2.603057615669     1.423599865546     0.054710705025     1.007825032230
         H           -0.347602384331     0.678569865546     1.504783705025     1.007825032230
         H            2.690362615669    -1.116745134454     0.290982705025     1.007825032230
         H            1.680221615669    -0.333812134454     1.517589705025     1.007825032230
         H           -2.423012384331     0.387312865546    -0.061246294975     1.007825032230

  Basis Set: AUG-CC-PVTZ
    Blend: AUG-CC-PVTZ
  Basis Set: (AUG-CC-PVTZ AUX)
    Blend: AUG-CC-PVTZ-JKFIT
	 Reference Energy          =    -418.7316383466501861 [Eh]
	 Singles Energy            =      -0.0000000000000000 [Eh]
	 Same-Spin Energy          =      -0.4141904939308925 [Eh]
	 Opposite-Spin Energy      =      -1.2964099682309900 [Eh]
	 Correlation Energy        =      -1.7106004621618824 [Eh]
	 Total Energy              =    -420.4422388088120783 [Eh]

	 ================> DF-SCS-MP2 Energies <==================
	-----------------------------------------------------------
	 SCS Same-Spin Scale       =       0.3333333333333333 [-]
	 SCS Opposite-Spin Scale   =       1.2000000000000000 [-]
	 SCS Same-Spin Energy      =      -0.1380634979769642 [Eh]
	 SCS Opposite-Spin Energy  =      -1.5556919618771878 [Eh]
	 SCS Correlation Energy    =      -1.6937554598541520 [Eh]
	 SCS Total Energy          =    -420.4253938065043599 [Eh]
	-----------------------------------------------------------

  Dipole Moment: [D]
     X:     3.8044      Y:     1.4886      Z:     0.9230     Total:     4.1883

*** Psi4 exiting successfully. Buy a developer a beer!
