                               Psi4 1.3.2 release

  ==> Input File <==

--------------------------------------------------------------------------
#psi4
#
memory 32 gb

molecule  {
0 1
  O        0.6578240    -1.4038190    -0.0084800
  O       -1.9400820     1.1224280     0.2266150
  O       -1.5482610    -1.4485240    -0.4053400
  C        0.3934500     1.4379940    -0.3488290
  C        1.7709580     0.7423380    -0.3578590
  C       -0.6401280     0.6164470     0.4297460
  C        1.7409690    -0.5516630     0.4430470
  C       -0.5767397    -0.6410800     0.0359695
  H        0.4383430     2.4405150     0.0852910
  H        0.0022100     1.5496010    -1.3639530
  H        2.0656470     0.4995800    -1.3827820
  H        2.5523030     1.3896650     0.0543080
  H       -0.3983570     0.6446350     1.5043810
  H        2.6396080    -1.1506800     0.2905800
  H        1.6294670    -0.3677470     1.5171870
  H       -2.4737670     0.3533780    -0.0616490
units angstrom
no_reorient  #important for SAPT in psi4, default
symmetry c1  #important for SAPT in psi4, default
}

set PROPERTIES_ORIGIN ["COM"]
properties('MP2/aug-cc-pvtz', properties = ['dipole'])
--------------------------------------------------------------------------

    Molecular point group: c1
  Charge       = 0
  Multiplicity = 1
  Basis Set: AUG-CC-PVTZ
    Blend: AUG-CC-PVTZ
  Basis Set: (AUG-CC-PVTZ AUX)
    Blend: AUG-CC-PVTZ-JKFIT

    Orbital Energies [Eh]
    ---------------------

    Doubly Occupied:

       1A    -20.618015     2A    -20.578030     3A    -20.552911
       4A    -11.407160     5A    -11.317060     6A    -11.307880
       7A    -11.265113     8A    -11.257947     9A     -1.434547
      10A     -1.391037    11A     -1.301549    12A     -1.128900
      13A     -1.053566    14A     -0.944227    15A     -0.866846
      16A     -0.776681    17A     -0.740479    18A     -0.711504
      19A     -0.692791    20A     -0.636265    21A     -0.628832
      22A     -0.610012    23A     -0.584342    24A     -0.572075
      25A     -0.550676    26A     -0.524374    27A     -0.518199
      28A     -0.498385    29A     -0.475690    30A     -0.454058
      31A     -0.435530

  @DF-RHF Final Energy:  -418.66845136608191

   => Energetics <=

    Nuclear Repulsion Energy =            402.2939306701024407
    One-Electron Energy =               -1370.2554024601836318
    Two-Electron Energy =                 549.2930204239992236
    Total Energy =                       -418.6684513660819675
  Basis Set: (AUG-CC-PVTZ AUX)
    Blend: AUG-CC-PVTZ-RI
    Molecular point group: c1

    Geometry (in Angstrom), charge = 0, multiplicity = 1:

       Center              X                  Y                   Z               Mass
    ------------   -----------------  -----------------  -----------------  -----------------
         O            0.713885860338    -1.377790573291    -0.009160440776    15.994914619570
         O           -1.884020139662     1.148456426709     0.225934559224    15.994914619570
         O           -1.492199139662    -1.422495573291    -0.406020440776    15.994914619570
         C            0.449511860338     1.464022426709    -0.349509440776    12.000000000000
         C            1.827019860338     0.768366426709    -0.358539440776    12.000000000000
         C           -0.584066139662     0.642475426709     0.429065559224    12.000000000000
         C            1.797030860338    -0.525634573291     0.442366559224    12.000000000000
         C           -0.520677839662    -0.615051573291     0.035289059224    12.000000000000
         H            0.494404860338     2.466543426709     0.084610559224     1.007825032230
         H            0.058271860338     1.575629426709    -1.364633440776     1.007825032230
         H            2.121708860338     0.525608426709    -1.383462440776     1.007825032230
         H            2.608364860338     1.415693426709     0.053627559224     1.007825032230
         H           -0.342295139662     0.670663426709     1.503700559224     1.007825032230
         H            2.695669860338    -1.124651573291     0.289899559224     1.007825032230
         H            1.685528860338    -0.341718573291     1.516506559224     1.007825032230
         H           -2.417705139662     0.379406426709    -0.062329440776     1.007825032230

  Basis Set: AUG-CC-PVTZ
    Blend: AUG-CC-PVTZ
  Basis Set: (AUG-CC-PVTZ AUX)
    Blend: AUG-CC-PVTZ-JKFIT
	 Reference Energy          =    -418.6684513660819107 [Eh]
	 Singles Energy            =      -0.0000000000000000 [Eh]
	 Same-Spin Energy          =      -0.4200786711014901 [Eh]
	 Opposite-Spin Energy      =      -1.3074063441132915 [Eh]
	 Correlation Energy        =      -1.7274850152147816 [Eh]
	 Total Energy              =    -420.3959363812966785 [Eh]

	 ================> DF-SCS-MP2 Energies <==================
	-----------------------------------------------------------
	 SCS Same-Spin Scale       =       0.3333333333333333 [-]
	 SCS Opposite-Spin Scale   =       1.2000000000000000 [-]
	 SCS Same-Spin Energy      =      -0.1400262237004967 [Eh]
	 SCS Opposite-Spin Energy  =      -1.5688876129359497 [Eh]
	 SCS Correlation Energy    =      -1.7089138366364462 [Eh]
	 SCS Total Energy          =    -420.3773652027183516 [Eh]
	-----------------------------------------------------------

  Dipole Moment: [D]
     X:     3.7356      Y:     2.4509      Z:     1.1543     Total:     4.6145

*** Psi4 exiting successfully. Buy a developer a beer!
