                               Psi4 1.3.2 release

  ==> Input File <==

--------------------------------------------------------------------------
#psi4
#
memory 32 gb

molecule  {
0 1
  O        0.6578240    -1.4038190    -0.0084800
  O       -1.9400820     1.1224280     0.2266150
  O       -1.5482610    -1.4485240    -0.4053400
  C        0.3934500     1.4379940    -0.3488290
  C        1.7709580     0.7423380    -0.3578590
  C       -0.5479109     0.5805533     0.4441559
  C        1.7409690    -0.5516630     0.4430470
  C       -0.5671300    -0.8317210    -0.0237270
  H        0.4383430     2.4405150     0.0852910
  H        0.0022100     1.5496010    -1.3639530
  H        2.0656470     0.4995800    -1.3827820
  H        2.5523030     1.3896650     0.0543080
  H       -0.3983570     0.6446350     1.5043810
  H        2.6396080    -1.1506800     0.2905800
  H        1.6294670    -0.3677470     1.5171870
  H       -2.4737670     0.3533780    -0.0616490
units angstrom
no_reorient  #important for SAPT in psi4, default
symmetry c1  #important for SAPT in psi4, default
}

set PROPERTIES_ORIGIN ["COM"]
properties('MP2/aug-cc-pvtz', properties = ['dipole'])
--------------------------------------------------------------------------

    Molecular point group: c1
  Charge       = 0
  Multiplicity = 1
  Basis Set: AUG-CC-PVTZ
    Blend: AUG-CC-PVTZ
  Basis Set: (AUG-CC-PVTZ AUX)
    Blend: AUG-CC-PVTZ-JKFIT

    Orbital Energies [Eh]
    ---------------------

    Doubly Occupied:

       1A    -20.618686     2A    -20.559871     3A    -20.556692
       4A    -11.396369     5A    -11.315989     6A    -11.312842
       7A    -11.255683     8A    -11.252480     9A     -1.470378
      10A     -1.376493    11A     -1.332267    12A     -1.112612
      13A     -1.033178    14A     -0.925030    15A     -0.872496
      16A     -0.756258    17A     -0.746163    18A     -0.708134
      19A     -0.693221    20A     -0.639330    21A     -0.628434
      22A     -0.616923    23A     -0.598565    24A     -0.564494
      25A     -0.545146    26A     -0.533712    27A     -0.510664
      28A     -0.501844    29A     -0.469007    30A     -0.458288
      31A     -0.452023

  @DF-RHF Final Energy:  -418.73405444290813

   => Energetics <=

    Nuclear Repulsion Energy =            401.8742469473960455
    One-Electron Energy =               -1369.5900521856547130
    Two-Electron Energy =                 548.9817507953505356
    Total Energy =                       -418.7340544429081319
  Basis Set: (AUG-CC-PVTZ AUX)
    Blend: AUG-CC-PVTZ-RI
    Molecular point group: c1

    Geometry (in Angstrom), charge = 0, multiplicity = 1:

       Center              X                  Y                   Z               Mass
    ------------   -----------------  -----------------  -----------------  -----------------
         O            0.703356350944    -1.354365509833    -0.004477531364    15.994914619570
         O           -1.894549649056     1.171881490167     0.230617468636    15.994914619570
         O           -1.502728649056    -1.399070509833    -0.401337531364    15.994914619570
         C            0.438982350944     1.487447490167    -0.344826531364    12.000000000000
         C            1.816490350944     0.791791490167    -0.353856531364    12.000000000000
         C           -0.502378549056     0.630006790167     0.448158368636    12.000000000000
         C            1.786501350944    -0.502209509833     0.447049468636    12.000000000000
         C           -0.521597649056    -0.782267509833    -0.019724531364    12.000000000000
         H            0.483875350944     2.489968490167     0.089293468636     1.007825032230
         H            0.047742350944     1.599054490167    -1.359950531364     1.007825032230
         H            2.111179350944     0.549033490167    -1.378779531364     1.007825032230
         H            2.597835350944     1.439118490167     0.058310468636     1.007825032230
         H           -0.352824649056     0.694088490167     1.508383468636     1.007825032230
         H            2.685140350944    -1.101226509833     0.294582468636     1.007825032230
         H            1.674999350944    -0.318293509833     1.521189468636     1.007825032230
         H           -2.428234649056     0.402831490167    -0.057646531364     1.007825032230

  Basis Set: AUG-CC-PVTZ
    Blend: AUG-CC-PVTZ
  Basis Set: (AUG-CC-PVTZ AUX)
    Blend: AUG-CC-PVTZ-JKFIT
	 Reference Energy          =    -418.7340544429081319 [Eh]
	 Singles Energy            =      -0.0000000000000000 [Eh]
	 Same-Spin Energy          =      -0.4134951847095027 [Eh]
	 Opposite-Spin Energy      =      -1.2955799051839541 [Eh]
	 Correlation Energy        =      -1.7090750898934568 [Eh]
	 Total Energy              =    -420.4431295328016063 [Eh]

	 ================> DF-SCS-MP2 Energies <==================
	-----------------------------------------------------------
	 SCS Same-Spin Scale       =       0.3333333333333333 [-]
	 SCS Opposite-Spin Scale   =       1.2000000000000000 [-]
	 SCS Same-Spin Energy      =      -0.1378317282365009 [Eh]
	 SCS Opposite-Spin Energy  =      -1.5546958862207447 [Eh]
	 SCS Correlation Energy    =      -1.6925276144572456 [Eh]
	 SCS Total Energy          =    -420.4265820573653514 [Eh]
	-----------------------------------------------------------

  Dipole Moment: [D]
     X:     4.1510      Y:     1.5655      Z:     1.0018     Total:     4.5480

*** Psi4 exiting successfully. Buy a developer a beer!
