                               Psi4 1.3.2 release

  ==> Input File <==

--------------------------------------------------------------------------
#psi4
#
memory 32 gb

molecule  {
0 1
  O        0.5958114    -1.5204475    -0.0592798
  O       -1.9400820     1.1224280     0.2266150
  O       -1.5482610    -1.4485240    -0.4053400
  C        0.3934500     1.4379940    -0.3488290
  C        1.7709580     0.7423380    -0.3578590
  C       -0.6401280     0.6164470     0.4297460
  C        1.7409690    -0.5516630     0.4430470
  C       -0.5671300    -0.8317210    -0.0237270
  H        0.4383430     2.4405150     0.0852910
  H        0.0022100     1.5496010    -1.3639530
  H        2.0656470     0.4995800    -1.3827820
  H        2.5523030     1.3896650     0.0543080
  H       -0.3983570     0.6446350     1.5043810
  H        2.6396080    -1.1506800     0.2905800
  H        1.6294670    -0.3677470     1.5171870
  H       -2.4737670     0.3533780    -0.0616490
units angstrom
no_reorient  #important for SAPT in psi4, default
symmetry c1  #important for SAPT in psi4, default
}

set PROPERTIES_ORIGIN ["COM"]
properties('MP2/aug-cc-pvtz', properties = ['dipole'])
--------------------------------------------------------------------------

    Molecular point group: c1
  Charge       = 0
  Multiplicity = 1
  Basis Set: AUG-CC-PVTZ
    Blend: AUG-CC-PVTZ
  Basis Set: (AUG-CC-PVTZ AUX)
    Blend: AUG-CC-PVTZ-JKFIT

    Orbital Energies [Eh]
    ---------------------

    Doubly Occupied:

       1A    -20.617613     2A    -20.568141     3A    -20.545649
       4A    -11.384771     5A    -11.324831     6A    -11.317206
       7A    -11.261513     8A    -11.252277     9A     -1.452556
      10A     -1.377708    11A     -1.341565    12A     -1.110016
      13A     -1.017706    14A     -0.922060    15A     -0.853524
      16A     -0.763530    17A     -0.736995    18A     -0.705309
      19A     -0.681716    20A     -0.632909    21A     -0.625590
      22A     -0.614846    23A     -0.592245    24A     -0.575380
      25A     -0.557752    26A     -0.529665    27A     -0.520336
      28A     -0.493463    29A     -0.468072    30A     -0.451214
      31A     -0.446305

  @DF-RHF Final Energy:  -418.72859438224179

   => Energetics <=

    Nuclear Repulsion Energy =            398.9809895624782143
    One-Electron Energy =               -1363.9342443444515993
    Two-Electron Energy =                 546.2246603997315333
    Total Energy =                       -418.7285943822417948
  Basis Set: (AUG-CC-PVTZ AUX)
    Blend: AUG-CC-PVTZ-RI
    Molecular point group: c1

    Geometry (in Angstrom), charge = 0, multiplicity = 1:

       Center              X                  Y                   Z               Mass
    ------------   -----------------  -----------------  -----------------  -----------------
         O            0.659426814011    -1.458630620472    -0.046785475982    15.994914619570
         O           -1.876466585989     1.184244879528     0.239109324018    15.994914619570
         O           -1.484645585989    -1.386707120472    -0.392845675982    15.994914619570
         C            0.457065414011     1.499810879528    -0.336334675982    12.000000000000
         C            1.834573414011     0.804154879528    -0.345364675982    12.000000000000
         C           -0.576512585989     0.678263879528     0.442240324018    12.000000000000
         C            1.804584414011    -0.489846120472     0.455541324018    12.000000000000
         C           -0.503514585989    -0.769904120472    -0.011232675982    12.000000000000
         H            0.501958414011     2.502331879528     0.097785324018     1.007825032230
         H            0.065825414011     1.611417879528    -1.351458675982     1.007825032230
         H            2.129262414011     0.561396879528    -1.370287675982     1.007825032230
         H            2.615918414011     1.451481879528     0.066802324018     1.007825032230
         H           -0.334741585989     0.706451879528     1.516875324018     1.007825032230
         H            2.703223414011    -1.088863120472     0.303074324018     1.007825032230
         H            1.693082414011    -0.305930120472     1.529681324018     1.007825032230
         H           -2.410151585989     0.415194879528    -0.049154675982     1.007825032230

  Basis Set: AUG-CC-PVTZ
    Blend: AUG-CC-PVTZ
  Basis Set: (AUG-CC-PVTZ AUX)
    Blend: AUG-CC-PVTZ-JKFIT
	 Reference Energy          =    -418.7285943822417948 [Eh]
	 Singles Energy            =      -0.0000000000000000 [Eh]
	 Same-Spin Energy          =      -0.4136059695412702 [Eh]
	 Opposite-Spin Energy      =      -1.2968959639176902 [Eh]
	 Correlation Energy        =      -1.7105019334589604 [Eh]
	 Total Energy              =    -420.4390963157007377 [Eh]

	 ================> DF-SCS-MP2 Energies <==================
	-----------------------------------------------------------
	 SCS Same-Spin Scale       =       0.3333333333333333 [-]
	 SCS Opposite-Spin Scale   =       1.2000000000000000 [-]
	 SCS Same-Spin Energy      =      -0.1378686565137567 [Eh]
	 SCS Opposite-Spin Energy  =      -1.5562751567012283 [Eh]
	 SCS Correlation Energy    =      -1.6941438132149851 [Eh]
	 SCS Total Energy          =    -420.4227381954567591 [Eh]
	-----------------------------------------------------------

  Dipole Moment: [D]
     X:     4.0942      Y:     1.9643      Z:     1.0842     Total:     4.6687

*** Psi4 exiting successfully. Buy a developer a beer!
