                               Psi4 1.3.2 release

  ==> Input File <==

--------------------------------------------------------------------------
#psi4
#
memory 32 gb

molecule  {
0 1
  O        0.6578240    -1.4038190    -0.0084800
  O       -1.9400820     1.1224280     0.2266150
  O       -1.5482610    -1.4485240    -0.4053400
  C        0.3934500     1.4379940    -0.3488290
  C        1.7709580     0.7423380    -0.3578590
  C       -0.6401280     0.6164470     0.4297460
  C        1.7409690    -0.5516630     0.4430470
  C       -0.5933553    -0.7986935    -0.1210231
  H        0.4383430     2.4405150     0.0852910
  H        0.0022100     1.5496010    -1.3639530
  H        2.0656470     0.4995800    -1.3827820
  H        2.5523030     1.3896650     0.0543080
  H       -0.3983570     0.6446350     1.5043810
  H        2.6396080    -1.1506800     0.2905800
  H        1.6294670    -0.3677470     1.5171870
  H       -2.4737670     0.3533780    -0.0616490
units angstrom
no_reorient  #important for SAPT in psi4, default
symmetry c1  #important for SAPT in psi4, default
}

set PROPERTIES_ORIGIN ["COM"]
properties('MP2/aug-cc-pvtz', properties = ['dipole'])
--------------------------------------------------------------------------

    Molecular point group: c1
  Charge       = 0
  Multiplicity = 1
  Basis Set: AUG-CC-PVTZ
    Blend: AUG-CC-PVTZ
  Basis Set: (AUG-CC-PVTZ AUX)
    Blend: AUG-CC-PVTZ-JKFIT

    Orbital Energies [Eh]
    ---------------------

    Doubly Occupied:

       1A    -20.607909     2A    -20.567446     3A    -20.566736
       4A    -11.392858     5A    -11.313864     6A    -11.308517
       7A    -11.252261     8A    -11.248371     9A     -1.464668
      10A     -1.385650    11A     -1.367899    12A     -1.100769
      13A     -1.021428    14A     -0.912430    15A     -0.862353
      16A     -0.764129    17A     -0.738324    18A     -0.712594
      19A     -0.689872    20A     -0.641982    21A     -0.633229
      22A     -0.619689    23A     -0.586457    24A     -0.572021
      25A     -0.558060    26A     -0.534210    27A     -0.516460
      28A     -0.503457    29A     -0.470538    30A     -0.450260
      31A     -0.445036

  @DF-RHF Final Energy:  -418.74033734954639

   => Energetics <=

    Nuclear Repulsion Energy =            401.6591388538243450
    One-Electron Energy =               -1369.1799995331389255
    Two-Electron Energy =                 548.7805233297682435
    Total Energy =                       -418.7403373495463939
  Basis Set: (AUG-CC-PVTZ AUX)
    Blend: AUG-CC-PVTZ-RI
    Molecular point group: c1

    Geometry (in Angstrom), charge = 0, multiplicity = 1:

       Center              X                  Y                   Z               Mass
    ------------   -----------------  -----------------  -----------------  -----------------
         O            0.715604014265    -1.361492380390     0.007073547295    15.994914619570
         O           -1.882301985735     1.164754619610     0.242168547295    15.994914619570
         O           -1.490480985735    -1.406197380390    -0.389786452705    15.994914619570
         C            0.451230014265     1.480320619610    -0.333275452705    12.000000000000
         C            1.828738014265     0.784664619610    -0.342305452705    12.000000000000
         C           -0.582347985735     0.658773619610     0.445299547295    12.000000000000
         C            1.798749014265    -0.509336380390     0.458600547295    12.000000000000
         C           -0.535575285735    -0.756366880390    -0.105469552705    12.000000000000
         H            0.496123014265     2.482841619610     0.100844547295     1.007825032230
         H            0.059990014265     1.591927619610    -1.348399452705     1.007825032230
         H            2.123427014265     0.541906619610    -1.367228452705     1.007825032230
         H            2.610083014265     1.431991619610     0.069861547295     1.007825032230
         H           -0.340576985735     0.686961619610     1.519934547295     1.007825032230
         H            2.697388014265    -1.108353380390     0.306133547295     1.007825032230
         H            1.687247014265    -0.325420380390     1.532740547295     1.007825032230
         H           -2.415986985735     0.395704619610    -0.046095452705     1.007825032230

  Basis Set: AUG-CC-PVTZ
    Blend: AUG-CC-PVTZ
  Basis Set: (AUG-CC-PVTZ AUX)
    Blend: AUG-CC-PVTZ-JKFIT
	 Reference Energy          =    -418.7403373495463939 [Eh]
	 Singles Energy            =      -0.0000000000000000 [Eh]
	 Same-Spin Energy          =      -0.4124337576459909 [Eh]
	 Opposite-Spin Energy      =      -1.2929015674475195 [Eh]
	 Correlation Energy        =      -1.7053353250935104 [Eh]
	 Total Energy              =    -420.4456726746399227 [Eh]

	 ================> DF-SCS-MP2 Energies <==================
	-----------------------------------------------------------
	 SCS Same-Spin Scale       =       0.3333333333333333 [-]
	 SCS Opposite-Spin Scale   =       1.2000000000000000 [-]
	 SCS Same-Spin Energy      =      -0.1374779192153303 [Eh]
	 SCS Opposite-Spin Energy  =      -1.5514818809370234 [Eh]
	 SCS Correlation Energy    =      -1.6889598001523538 [Eh]
	 SCS Total Energy          =    -420.4292971496987548 [Eh]
	-----------------------------------------------------------

  Dipole Moment: [D]
     X:     3.4636      Y:     1.6469      Z:     0.8264     Total:     3.9232

*** Psi4 exiting successfully. Buy a developer a beer!
