                               Psi4 1.3.2 release

  ==> Input File <==

--------------------------------------------------------------------------
#psi4
#
memory 32 gb

molecule  {
0 1
  O        0.6454052    -1.3684854    -0.0425358
  O       -1.9400820     1.1224280     0.2266150
  O       -1.5482610    -1.4485240    -0.4053400
  C        0.3934500     1.4379940    -0.3488290
  C        1.7709580     0.7423380    -0.3578590
  C       -0.6401280     0.6164470     0.4297460
  C        1.7409690    -0.5516630     0.4430470
  C       -0.5671300    -0.8317210    -0.0237270
  H        0.4383430     2.4405150     0.0852910
  H        0.0022100     1.5496010    -1.3639530
  H        2.0656470     0.4995800    -1.3827820
  H        2.5523030     1.3896650     0.0543080
  H       -0.3983570     0.6446350     1.5043810
  H        2.6396080    -1.1506800     0.2905800
  H        1.6294670    -0.3677470     1.5171870
  H       -2.4737670     0.3533780    -0.0616490
units angstrom
no_reorient  #important for SAPT in psi4, default
symmetry c1  #important for SAPT in psi4, default
}

set PROPERTIES_ORIGIN ["COM"]
properties('MP2/aug-cc-pvtz', properties = ['dipole'])
--------------------------------------------------------------------------

    Molecular point group: c1
  Charge       = 0
  Multiplicity = 1
  Basis Set: AUG-CC-PVTZ
    Blend: AUG-CC-PVTZ
  Basis Set: (AUG-CC-PVTZ AUX)
    Blend: AUG-CC-PVTZ-JKFIT

    Orbital Energies [Eh]
    ---------------------

    Doubly Occupied:

       1A    -20.620165     2A    -20.564902     3A    -20.552343
       4A    -11.390037     5A    -11.317165     6A    -11.310948
       7A    -11.254461     8A    -11.249236     9A     -1.476682
      10A     -1.384685    11A     -1.356828    12A     -1.103542
      13A     -1.027935    14A     -0.919760    15A     -0.868617
      16A     -0.760334    17A     -0.750911    18A     -0.710739
      19A     -0.692885    20A     -0.642466    21A     -0.632549
      22A     -0.619679    23A     -0.592675    24A     -0.573694
      25A     -0.553688    26A     -0.530693    27A     -0.516532
      28A     -0.499417    29A     -0.468839    30A     -0.449552
      31A     -0.444041

  @DF-RHF Final Energy:  -418.74707396535860

   => Energetics <=

    Nuclear Repulsion Energy =            402.5922216952333770
    One-Electron Energy =               -1371.0065915524683078
    Two-Electron Energy =                 549.6672958918763925
    Total Energy =                       -418.7470739653585952
  Basis Set: (AUG-CC-PVTZ AUX)
    Blend: AUG-CC-PVTZ-RI
    Molecular point group: c1

    Geometry (in Angstrom), charge = 0, multiplicity = 1:

       Center              X                  Y                   Z               Mass
    ------------   -----------------  -----------------  -----------------  -----------------
         O            0.702185053898    -1.327613599684    -0.032349317255    15.994914619570
         O           -1.883302146102     1.163299800316     0.236801482745    15.994914619570
         O           -1.491481146102    -1.407652199684    -0.395153517255    15.994914619570
         C            0.450229853898     1.478865800316    -0.338642517255    12.000000000000
         C            1.827737853898     0.783209800316    -0.347672517255    12.000000000000
         C           -0.583348146102     0.657318800316     0.439932482745    12.000000000000
         C            1.797748853898    -0.510791199684     0.453233482745    12.000000000000
         C           -0.510350146102    -0.790849199684    -0.013540517255    12.000000000000
         H            0.495122853898     2.481386800316     0.095477482745     1.007825032230
         H            0.058989853898     1.590472800316    -1.353766517255     1.007825032230
         H            2.122426853898     0.540451800316    -1.372595517255     1.007825032230
         H            2.609082853898     1.430536800316     0.064494482745     1.007825032230
         H           -0.341577146102     0.685506800316     1.514567482745     1.007825032230
         H            2.696387853898    -1.109808199684     0.300766482745     1.007825032230
         H            1.686246853898    -0.326875199684     1.527373482745     1.007825032230
         H           -2.416987146102     0.394249800316    -0.051462517255     1.007825032230

  Basis Set: AUG-CC-PVTZ
    Blend: AUG-CC-PVTZ
  Basis Set: (AUG-CC-PVTZ AUX)
    Blend: AUG-CC-PVTZ-JKFIT
	 Reference Energy          =    -418.7470739653585952 [Eh]
	 Singles Energy            =      -0.0000000000000000 [Eh]
	 Same-Spin Energy          =      -0.4123244309329430 [Eh]
	 Opposite-Spin Energy      =      -1.2916636081550170 [Eh]
	 Correlation Energy        =      -1.7039880390879600 [Eh]
	 Total Energy              =    -420.4510620044465554 [Eh]

	 ================> DF-SCS-MP2 Energies <==================
	-----------------------------------------------------------
	 SCS Same-Spin Scale       =       0.3333333333333333 [-]
	 SCS Opposite-Spin Scale   =       1.2000000000000000 [-]
	 SCS Same-Spin Energy      =      -0.1374414769776477 [Eh]
	 SCS Opposite-Spin Energy  =      -1.5499963297860204 [Eh]
	 SCS Correlation Energy    =      -1.6874378067636682 [Eh]
	 SCS Total Energy          =    -420.4345117721222778 [Eh]
	-----------------------------------------------------------

  Dipole Moment: [D]
     X:     4.0161      Y:     1.5734      Z:     1.0465     Total:     4.4385

*** Psi4 exiting successfully. Buy a developer a beer!
