                               Psi4 1.3.2 release

  ==> Input File <==

--------------------------------------------------------------------------
#psi4
#
memory 32 gb

molecule  {
0 1
  O        0.6578240    -1.4038190    -0.0084800
  O       -1.9400820     1.1224280     0.2266150
  O       -1.5482610    -1.4485240    -0.4053400
  C        0.3934500     1.4379940    -0.3488290
  C        1.7709580     0.7423380    -0.3578590
  C       -0.6401280     0.6164470     0.4297460
  C        1.7409690    -0.5516630     0.4430470
  C       -0.5802061    -0.8160799    -0.0726811
  H        0.4383430     2.4405150     0.0852910
  H        0.0022100     1.5496010    -1.3639530
  H        2.0656470     0.4995800    -1.3827820
  H        2.5523030     1.3896650     0.0543080
  H       -0.3983570     0.6446350     1.5043810
  H        2.6396080    -1.1506800     0.2905800
  H        1.6294670    -0.3677470     1.5171870
  H       -2.4737670     0.3533780    -0.0616490
units angstrom
no_reorient  #important for SAPT in psi4, default
symmetry c1  #important for SAPT in psi4, default
}

set PROPERTIES_ORIGIN ["COM"]
properties('MP2/aug-cc-pvtz', properties = ['dipole'])
--------------------------------------------------------------------------

    Molecular point group: c1
  Charge       = 0
  Multiplicity = 1
  Basis Set: AUG-CC-PVTZ
    Blend: AUG-CC-PVTZ
  Basis Set: (AUG-CC-PVTZ AUX)
    Blend: AUG-CC-PVTZ-JKFIT

    Orbital Energies [Eh]
    ---------------------

    Doubly Occupied:

       1A    -20.613546     2A    -20.566947     3A    -20.561439
       4A    -11.392610     5A    -11.313265     6A    -11.311505
       7A    -11.253473     8A    -11.249039     9A     -1.464990
      10A     -1.386627    11A     -1.364150    12A     -1.102071
      13A     -1.023392    14A     -0.915501    15A     -0.865050
      16A     -0.762362    17A     -0.741840    18A     -0.711413
      19A     -0.690685    20A     -0.641040    21A     -0.633478
      22A     -0.619891    23A     -0.589618    24A     -0.572184
      25A     -0.556061    26A     -0.533220    27A     -0.516357
      28A     -0.502546    29A     -0.470792    30A     -0.450323
      31A     -0.445742

  @DF-RHF Final Energy:  -418.74517357759771

   => Energetics <=

    Nuclear Repulsion Energy =            401.6654796422320146
    One-Electron Energy =               -1369.1789920073590565
    Two-Electron Energy =                 548.7683387875293874
    Total Energy =                       -418.7451735775977113
  Basis Set: (AUG-CC-PVTZ AUX)
    Blend: AUG-CC-PVTZ-RI
    Molecular point group: c1

    Geometry (in Angstrom), charge = 0, multiplicity = 1:

       Center              X                  Y                   Z               Mass
    ------------   -----------------  -----------------  -----------------  -----------------
         O            0.714244307145    -1.359694521063     0.002074690971    15.994914619570
         O           -1.883661692855     1.166552478937     0.237169690971    15.994914619570
         O           -1.491840692855    -1.404399521063    -0.394785309029    15.994914619570
         C            0.449870307145     1.482118478937    -0.338274309029    12.000000000000
         C            1.827378307145     0.786462478937    -0.347304309029    12.000000000000
         C           -0.583707692855     0.660571478937     0.440300690971    12.000000000000
         C            1.797389307145    -0.507538521063     0.453601690971    12.000000000000
         C           -0.523785792855    -0.771955421063    -0.062126409029    12.000000000000
         H            0.494763307145     2.484639478937     0.095845690971     1.007825032230
         H            0.058630307145     1.593725478937    -1.353398309029     1.007825032230
         H            2.122067307145     0.543704478937    -1.372227309029     1.007825032230
         H            2.608723307145     1.433789478937     0.064862690971     1.007825032230
         H           -0.341936692855     0.688759478937     1.514935690971     1.007825032230
         H            2.696028307145    -1.106555521063     0.301134690971     1.007825032230
         H            1.685887307145    -0.323622521063     1.527741690971     1.007825032230
         H           -2.417346692855     0.397502478937    -0.051094309029     1.007825032230

  Basis Set: AUG-CC-PVTZ
    Blend: AUG-CC-PVTZ
  Basis Set: (AUG-CC-PVTZ AUX)
    Blend: AUG-CC-PVTZ-JKFIT
	 Reference Energy          =    -418.7451735775977113 [Eh]
	 Singles Energy            =      -0.0000000000000000 [Eh]
	 Same-Spin Energy          =      -0.4123912399239016 [Eh]
	 Opposite-Spin Energy      =      -1.2924995499417220 [Eh]
	 Correlation Energy        =      -1.7048907898656236 [Eh]
	 Total Energy              =    -420.4500643674633125 [Eh]

	 ================> DF-SCS-MP2 Energies <==================
	-----------------------------------------------------------
	 SCS Same-Spin Scale       =       0.3333333333333333 [-]
	 SCS Opposite-Spin Scale   =       1.2000000000000000 [-]
	 SCS Same-Spin Energy      =      -0.1374637466413005 [Eh]
	 SCS Opposite-Spin Energy  =      -1.5509994599300663 [Eh]
	 SCS Correlation Energy    =      -1.6884632065713667 [Eh]
	 SCS Total Energy          =    -420.4336367841690958 [Eh]
	-----------------------------------------------------------

  Dipole Moment: [D]
     X:     3.6648      Y:     1.6419      Z:     0.9066     Total:     4.1168

*** Psi4 exiting successfully. Buy a developer a beer!
