                               Psi4 1.3.2 release

  ==> Input File <==

--------------------------------------------------------------------------
#psi4
#
memory 32 gb

molecule  {
0 1
  O        0.6578240    -1.4038190    -0.0084800
  O       -1.9400820     1.1224280     0.2266150
  O       -1.5602124    -1.4312215    -0.4019849
  C        0.3934500     1.4379940    -0.3488290
  C        1.7709580     0.7423380    -0.3578590
  C       -0.6401280     0.6164470     0.4297460
  C        1.7409690    -0.5516630     0.4430470
  C       -0.5671300    -0.8317210    -0.0237270
  H        0.4383430     2.4405150     0.0852910
  H        0.0022100     1.5496010    -1.3639530
  H        2.0656470     0.4995800    -1.3827820
  H        2.5523030     1.3896650     0.0543080
  H       -0.3983570     0.6446350     1.5043810
  H        2.6396080    -1.1506800     0.2905800
  H        1.6294670    -0.3677470     1.5171870
  H       -2.4737670     0.3533780    -0.0616490
units angstrom
no_reorient  #important for SAPT in psi4, default
symmetry c1  #important for SAPT in psi4, default
}

set PROPERTIES_ORIGIN ["COM"]
properties('MP2/aug-cc-pvtz', properties = ['dipole'])
--------------------------------------------------------------------------

    Molecular point group: c1
  Charge       = 0
  Multiplicity = 1
  Basis Set: AUG-CC-PVTZ
    Blend: AUG-CC-PVTZ
  Basis Set: (AUG-CC-PVTZ AUX)
    Blend: AUG-CC-PVTZ-JKFIT

    Orbital Energies [Eh]
    ---------------------

    Doubly Occupied:

       1A    -20.620159     2A    -20.565425     3A    -20.557011
       4A    -11.393491     5A    -11.314844     6A    -11.312089
       7A    -11.254722     8A    -11.249405     9A     -1.468040
      10A     -1.385761    11A     -1.358082    12A     -1.103315
      13A     -1.025225    14A     -0.918351    15A     -0.867693
      16A     -0.760526    17A     -0.745687    18A     -0.710536
      19A     -0.691851    20A     -0.641341    21A     -0.632028
      22A     -0.619984    23A     -0.592618    24A     -0.572171
      25A     -0.554054    26A     -0.531490    27A     -0.516591
      28A     -0.501384    29A     -0.470270    30A     -0.450197
      31A     -0.444813

  @DF-RHF Final Energy:  -418.74600517421067

   => Energetics <=

    Nuclear Repulsion Energy =            401.7019359887386258
    One-Electron Energy =               -1369.2375730428389033
    Two-Electron Energy =                 548.7896318798897255
    Total Energy =                       -418.7460051742106089
  Basis Set: (AUG-CC-PVTZ AUX)
    Blend: AUG-CC-PVTZ-RI
    Molecular point group: c1

    Geometry (in Angstrom), charge = 0, multiplicity = 1:

       Center              X                  Y                   Z               Mass
    ------------   -----------------  -----------------  -----------------  -----------------
         O            0.714539431716    -1.360461956207    -0.003449896799    15.994914619570
         O           -1.883366568284     1.165785043793     0.231645103201    15.994914619570
         O           -1.503496968284    -1.387864456207    -0.396954796799    15.994914619570
         C            0.450165431716     1.481351043793    -0.343798896799    12.000000000000
         C            1.827673431716     0.785695043793    -0.352828896799    12.000000000000
         C           -0.583412568284     0.659804043793     0.434776103201    12.000000000000
         C            1.797684431716    -0.508305956207     0.448077103201    12.000000000000
         C           -0.510414568284    -0.788363956207    -0.018696896799    12.000000000000
         H            0.495058431716     2.483872043793     0.090321103201     1.007825032230
         H            0.058925431716     1.592958043793    -1.358922896799     1.007825032230
         H            2.122362431716     0.542937043793    -1.377751896799     1.007825032230
         H            2.609018431716     1.433022043793     0.059338103201     1.007825032230
         H           -0.341641568284     0.687992043793     1.509411103201     1.007825032230
         H            2.696323431716    -1.107322956207     0.295610103201     1.007825032230
         H            1.686182431716    -0.324389956207     1.522217103201     1.007825032230
         H           -2.417051568284     0.396735043793    -0.056618896799     1.007825032230

  Basis Set: AUG-CC-PVTZ
    Blend: AUG-CC-PVTZ
  Basis Set: (AUG-CC-PVTZ AUX)
    Blend: AUG-CC-PVTZ-JKFIT
	 Reference Energy          =    -418.7460051742106657 [Eh]
	 Singles Energy            =      -0.0000000000000000 [Eh]
	 Same-Spin Energy          =      -0.4126171718638558 [Eh]
	 Opposite-Spin Energy      =      -1.2926700965587177 [Eh]
	 Correlation Energy        =      -1.7052872684225735 [Eh]
	 Total Energy              =    -420.4512924426332461 [Eh]

	 ================> DF-SCS-MP2 Energies <==================
	-----------------------------------------------------------
	 SCS Same-Spin Scale       =       0.3333333333333333 [-]
	 SCS Opposite-Spin Scale   =       1.2000000000000000 [-]
	 SCS Same-Spin Energy      =      -0.1375390572879519 [Eh]
	 SCS Opposite-Spin Energy  =      -1.5512041158704613 [Eh]
	 SCS Correlation Energy    =      -1.6887431731584133 [Eh]
	 SCS Total Energy          =    -420.4347483473690659 [Eh]
	-----------------------------------------------------------

  Dipole Moment: [D]
     X:     3.8883      Y:     1.5939      Z:     0.9742     Total:     4.3138

*** Psi4 exiting successfully. Buy a developer a beer!
