                               Psi4 1.3.2 release

  ==> Input File <==

--------------------------------------------------------------------------
#psi4
#
memory 32 gb

molecule  {
0 1
  O        0.6578240    -1.4038190    -0.0084800
  O       -1.9375794     1.1185573     0.2024476
  O       -1.5482610    -1.4485240    -0.4053400
  C        0.3934500     1.4379940    -0.3488290
  C        1.7709580     0.7423380    -0.3578590
  C       -0.6401280     0.6164470     0.4297460
  C        1.7409690    -0.5516630     0.4430470
  C       -0.5671300    -0.8317210    -0.0237270
  H        0.4383430     2.4405150     0.0852910
  H        0.0022100     1.5496010    -1.3639530
  H        2.0656470     0.4995800    -1.3827820
  H        2.5523030     1.3896650     0.0543080
  H       -0.3983570     0.6446350     1.5043810
  H        2.6396080    -1.1506800     0.2905800
  H        1.6294670    -0.3677470     1.5171870
  H       -2.4737670     0.3533780    -0.0616490
units angstrom
no_reorient  #important for SAPT in psi4, default
symmetry c1  #important for SAPT in psi4, default
}

set PROPERTIES_ORIGIN ["COM"]
properties('MP2/aug-cc-pvtz', properties = ['dipole'])
--------------------------------------------------------------------------

    Molecular point group: c1
  Charge       = 0
  Multiplicity = 1
  Basis Set: AUG-CC-PVTZ
    Blend: AUG-CC-PVTZ
  Basis Set: (AUG-CC-PVTZ AUX)
    Blend: AUG-CC-PVTZ-JKFIT

    Orbital Energies [Eh]
    ---------------------

    Doubly Occupied:

       1A    -20.618784     2A    -20.565783     3A    -20.556139
       4A    -11.392747     5A    -11.314227     6A    -11.313445
       7A    -11.254505     8A    -11.249640     9A     -1.467714
      10A     -1.386007    11A     -1.358722    12A     -1.103474
      13A     -1.025482    14A     -0.918667    15A     -0.867705
      16A     -0.761260    17A     -0.745163    18A     -0.711407
      19A     -0.691631    20A     -0.643032    21A     -0.631067
      22A     -0.620085    23A     -0.592417    24A     -0.572488
      25A     -0.553653    26A     -0.531520    27A     -0.516557
      28A     -0.500818    29A     -0.470148    30A     -0.450830
      31A     -0.444971

  @DF-RHF Final Energy:  -418.74652794874629

   => Energetics <=

    Nuclear Repulsion Energy =            401.7838203436748472
    One-Electron Energy =               -1369.4005240961037089
    Two-Electron Energy =                 548.8701758036826277
    Total Energy =                       -418.7465279487462340
  Basis Set: (AUG-CC-PVTZ AUX)
    Blend: AUG-CC-PVTZ-RI
    Molecular point group: c1

    Geometry (in Angstrom), charge = 0, multiplicity = 1:

       Center              X                  Y                   Z               Mass
    ------------   -----------------  -----------------  -----------------  -----------------
         O            0.712547223297    -1.357543634131     0.000343555270    15.994914619570
         O           -1.882856176703     1.164832665869     0.211271155270    15.994914619570
         O           -1.493537776703    -1.402248634131    -0.396516444730    15.994914619570
         C            0.448173223297     1.484269365869    -0.340005444730    12.000000000000
         C            1.825681223297     0.788613365869    -0.349035444730    12.000000000000
         C           -0.585404776703     0.662722365869     0.438569555270    12.000000000000
         C            1.795692223297    -0.505387634131     0.451870555270    12.000000000000
         C           -0.512406776703    -0.785445634131    -0.014903444730    12.000000000000
         H            0.493066223297     2.486790365869     0.094114555270     1.007825032230
         H            0.056933223297     1.595876365869    -1.355129444730     1.007825032230
         H            2.120370223297     0.545855365869    -1.373958444730     1.007825032230
         H            2.607026223297     1.435940365869     0.063131555270     1.007825032230
         H           -0.343633776703     0.690910365869     1.513204555270     1.007825032230
         H            2.694331223297    -1.104404634131     0.299403555270     1.007825032230
         H            1.684190223297    -0.321471634131     1.526010555270     1.007825032230
         H           -2.419043776703     0.399653365869    -0.052825444730     1.007825032230

  Basis Set: AUG-CC-PVTZ
    Blend: AUG-CC-PVTZ
  Basis Set: (AUG-CC-PVTZ AUX)
    Blend: AUG-CC-PVTZ-JKFIT
	 Reference Energy          =    -418.7465279487462908 [Eh]
	 Singles Energy            =      -0.0000000000000000 [Eh]
	 Same-Spin Energy          =      -0.4124578422827726 [Eh]
	 Opposite-Spin Energy      =      -1.2923804235214249 [Eh]
	 Correlation Energy        =      -1.7048382658041974 [Eh]
	 Total Energy              =    -420.4513662145504895 [Eh]

	 ================> DF-SCS-MP2 Energies <==================
	-----------------------------------------------------------
	 SCS Same-Spin Scale       =       0.3333333333333333 [-]
	 SCS Opposite-Spin Scale   =       1.2000000000000000 [-]
	 SCS Same-Spin Energy      =      -0.1374859474275908 [Eh]
	 SCS Opposite-Spin Energy  =      -1.5508565082257098 [Eh]
	 SCS Correlation Energy    =      -1.6883424556533007 [Eh]
	 SCS Total Energy          =    -420.4348704043995895 [Eh]
	-----------------------------------------------------------

  Dipole Moment: [D]
     X:     3.8441      Y:     1.6525      Z:     1.0314     Total:     4.3095

*** Psi4 exiting successfully. Buy a developer a beer!
