                               Psi4 1.4a3.dev225

  ==> Input File <==

--------------------------------------------------------------------------
#psi4
#
memory 32 gb

molecule  {
0 1
  O        0.6578240    -1.4038190    -0.0084800
  O       -1.9400820     1.1224280     0.2266150
  O       -1.5482610    -1.4485240    -0.4053400
  C        0.3934500     1.4379940    -0.3488290
  C        1.7709580     0.7423380    -0.3578590
  C       -0.6401280     0.6164470     0.4297460
  C        1.7559063    -0.5399112     0.4492738
  C       -0.5671300    -0.8317210    -0.0237270
  H        0.4383430     2.4405150     0.0852910
  H        0.0022100     1.5496010    -1.3639530
  H        2.0656470     0.4995800    -1.3827820
  H        2.5523030     1.3896650     0.0543080
  H       -0.3983570     0.6446350     1.5043810
  H        2.6396080    -1.1506800     0.2905800
  H        1.6294670    -0.3677470     1.5171870
  H       -2.4737670     0.3533780    -0.0616490
units angstrom
no_reorient  #important for SAPT in psi4, default
symmetry c1  #important for SAPT in psi4, default
}

set PROPERTIES_ORIGIN ["COM"]
properties('MP2/aug-cc-pvtz', properties = ['dipole'])
--------------------------------------------------------------------------

    Molecular point group: c1
  Charge       = 0
  Multiplicity = 1
  Basis Set: AUG-CC-PVTZ
    Blend: AUG-CC-PVTZ
  Basis Set: (AUG-CC-PVTZ AUX)
    Blend: AUG-CC-PVTZ-JKFIT

    Orbital Energies [Eh]
    ---------------------

    Doubly Occupied:

       1A    -20.616781     2A    -20.566226     3A    -20.555188
       4A    -11.391691     5A    -11.314925     6A    -11.312775
       7A    -11.255235     8A    -11.250191     9A     -1.463462
      10A     -1.382955    11A     -1.356743    12A     -1.104560
      13A     -1.025703    14A     -0.918605    15A     -0.866118
      16A     -0.760812    17A     -0.743827    18A     -0.709694
      19A     -0.689740    20A     -0.640151    21A     -0.629920
      22A     -0.620989    23A     -0.591454    24A     -0.572963
      25A     -0.555383    26A     -0.531566    27A     -0.518248
      28A     -0.499677    29A     -0.469758    30A     -0.450672
      31A     -0.444991

  @DF-RHF Final Energy:  -418.74543991923713

   => Energetics <=

    Nuclear Repulsion Energy =            401.3260856511887482
    One-Electron Energy =               -1368.5210420533665001
    Two-Electron Energy =                 548.4495164829405667
    Total Energy =                       -418.7454399192371284
  Basis Set: (AUG-CC-PVTZ AUX)
    Blend: AUG-CC-PVTZ-RI
    Molecular point group: c1

    Geometry (in Angstrom), charge = 0, multiplicity = 1:

       Center              X                  Y                   Z               Mass
    ------------   -----------------  -----------------  -----------------  -----------------
         O            0.711347551493    -1.359292343828    -0.003631349137    15.994914619570
         O           -1.886558448507     1.166954656172     0.231463650863    15.994914619570
         O           -1.494737448507    -1.403997343828    -0.400491349137    15.994914619570
         C            0.446973551493     1.482520656172    -0.343980349137    12.000000000000
         C            1.824481551493     0.786864656172    -0.353010349137    12.000000000000
         C           -0.586604448507     0.660973656172     0.434594650863    12.000000000000
         C            1.809429851493    -0.495384543828     0.454122450863    12.000000000000
         C           -0.513606448507    -0.787194343828    -0.018878349137    12.000000000000
         H            0.491866551493     2.485041656172     0.090139650863     1.007825032230
         H            0.055733551493     1.594127656172    -1.359104349137     1.007825032230
         H            2.119170551493     0.544106656172    -1.377933349137     1.007825032230
         H            2.605826551493     1.434191656172     0.059156650863     1.007825032230
         H           -0.344833448507     0.689161656172     1.509229650863     1.007825032230
         H            2.693131551493    -1.106153343828     0.295428650863     1.007825032230
         H            1.682990551493    -0.323220343828     1.522035650863     1.007825032230
         H           -2.420243448507     0.397904656172    -0.056800349137     1.007825032230

  Basis Set: AUG-CC-PVTZ
    Blend: AUG-CC-PVTZ
  Basis Set: (AUG-CC-PVTZ AUX)
    Blend: AUG-CC-PVTZ-JKFIT
	 Reference Energy          =    -418.7454399192371284 [Eh]
	 Singles Energy            =      -0.0000000000000000 [Eh]
	 Same-Spin Energy          =      -0.4126316090854842 [Eh]
	 Opposite-Spin Energy      =      -1.2929310114509076 [Eh]
	 Correlation Energy        =      -1.7055626205363918 [Eh]
	 Total Energy              =    -420.4510025397735262 [Eh]

	 ================> DF-SCS-MP2 Energies <==================
	-----------------------------------------------------------
	 SCS Same-Spin Scale       =       0.3333333333333333 [-]
	 SCS Opposite-Spin Scale   =       1.2000000000000000 [-]
	 SCS Same-Spin Energy      =      -0.1375438696951614 [Eh]
	 SCS Opposite-Spin Energy  =      -1.5515172137410891 [Eh]
	 SCS Correlation Energy    =      -1.6890610834362505 [Eh]
	 SCS Total Energy          =    -420.4345010026733576 [Eh]
	-----------------------------------------------------------

  Dipole Moment: [D]
     X:     3.9211      Y:     1.6801      Z:     1.0011     Total:     4.3818

*** Psi4 exiting successfully. Buy a developer a beer!
