                               Psi4 1.3.2 release

  ==> Input File <==

--------------------------------------------------------------------------
#psi4
#
memory 32 gb

molecule  {
0 1
  O        0.6578240    -1.4038190    -0.0084800
  O       -1.9574963     1.0871668     0.2561859
  O       -1.5482610    -1.4485240    -0.4053400
  C        0.3934500     1.4379940    -0.3488290
  C        1.7709580     0.7423380    -0.3578590
  C       -0.6401280     0.6164470     0.4297460
  C        1.7409690    -0.5516630     0.4430470
  C       -0.5671300    -0.8317210    -0.0237270
  H        0.4383430     2.4405150     0.0852910
  H        0.0022100     1.5496010    -1.3639530
  H        2.0656470     0.4995800    -1.3827820
  H        2.5523030     1.3896650     0.0543080
  H       -0.3983570     0.6446350     1.5043810
  H        2.6396080    -1.1506800     0.2905800
  H        1.6294670    -0.3677470     1.5171870
  H       -2.4737670     0.3533780    -0.0616490
units angstrom
no_reorient  #important for SAPT in psi4, default
symmetry c1  #important for SAPT in psi4, default
}

set PROPERTIES_ORIGIN ["COM"]
properties('MP2/aug-cc-pvtz', properties = ['dipole'])
--------------------------------------------------------------------------

    Molecular point group: c1
  Charge       = 0
  Multiplicity = 1
  Basis Set: AUG-CC-PVTZ
    Blend: AUG-CC-PVTZ
  Basis Set: (AUG-CC-PVTZ AUX)
    Blend: AUG-CC-PVTZ-JKFIT

    Orbital Energies [Eh]
    ---------------------

    Doubly Occupied:

       1A    -20.618528     2A    -20.563543     3A    -20.555613
       4A    -11.392332     5A    -11.314392     6A    -11.313767
       7A    -11.255638     8A    -11.251083     9A     -1.467551
      10A     -1.387924    11A     -1.359312    12A     -1.104702
      13A     -1.026349    14A     -0.919258    15A     -0.867824
      16A     -0.766243    17A     -0.745068    18A     -0.710578
      19A     -0.691220    20A     -0.643096    21A     -0.631779
      22A     -0.620434    23A     -0.593713    24A     -0.572430
      25A     -0.554095    26A     -0.533812    27A     -0.516848
      28A     -0.501075    29A     -0.469599    30A     -0.449904
      31A     -0.445597

  @DF-RHF Final Energy:  -418.74716474648318

   => Energetics <=

    Nuclear Repulsion Energy =            401.7428438100787389
    One-Electron Energy =               -1369.2934072148282212
    Two-Electron Energy =                 548.8033986582662465
    Total Energy =                       -418.7471647464832358
  Basis Set: (AUG-CC-PVTZ AUX)
    Blend: AUG-CC-PVTZ-RI
    Molecular point group: c1

    Geometry (in Angstrom), charge = 0, multiplicity = 1:

       Center              X                  Y                   Z               Mass
    ------------   -----------------  -----------------  -----------------  -----------------
         O            0.715292388362    -1.353217051983    -0.007063245177    15.994914619570
         O           -1.900027911638     1.137768748017     0.257602654823    15.994914619570
         O           -1.490792611638    -1.397922051983    -0.403923245177    15.994914619570
         C            0.450918388362     1.488595948017    -0.347412245177    12.000000000000
         C            1.828426388362     0.792939948017    -0.356442245177    12.000000000000
         C           -0.582659611638     0.667048948017     0.431162754823    12.000000000000
         C            1.798437388362    -0.501061051983     0.444463754823    12.000000000000
         C           -0.509661611638    -0.781119051983    -0.022310245177    12.000000000000
         H            0.495811388362     2.491116948017     0.086707754823     1.007825032230
         H            0.059678388362     1.600202948017    -1.362536245177     1.007825032230
         H            2.123115388362     0.550181948017    -1.381365245177     1.007825032230
         H            2.609771388362     1.440266948017     0.055724754823     1.007825032230
         H           -0.340888611638     0.695236948017     1.505797754823     1.007825032230
         H            2.697076388362    -1.100078051983     0.291996754823     1.007825032230
         H            1.686935388362    -0.317145051983     1.518603754823     1.007825032230
         H           -2.416298611638     0.403979948017    -0.060232245177     1.007825032230

  Basis Set: AUG-CC-PVTZ
    Blend: AUG-CC-PVTZ
  Basis Set: (AUG-CC-PVTZ AUX)
    Blend: AUG-CC-PVTZ-JKFIT
	 Reference Energy          =    -418.7471647464831790 [Eh]
	 Singles Energy            =      -0.0000000000000000 [Eh]
	 Same-Spin Energy          =      -0.4121246799125265 [Eh]
	 Opposite-Spin Energy      =      -1.2916747415679475 [Eh]
	 Correlation Energy        =      -1.7037994214804741 [Eh]
	 Total Energy              =    -420.4509641679636616 [Eh]

	 ================> DF-SCS-MP2 Energies <==================
	-----------------------------------------------------------
	 SCS Same-Spin Scale       =       0.3333333333333333 [-]
	 SCS Opposite-Spin Scale   =       1.2000000000000000 [-]
	 SCS Same-Spin Energy      =      -0.1373748933041755 [Eh]
	 SCS Opposite-Spin Energy  =      -1.5500096898815370 [Eh]
	 SCS Correlation Energy    =      -1.6873845831857124 [Eh]
	 SCS Total Energy          =    -420.4345493296688687 [Eh]
	-----------------------------------------------------------

  Dipole Moment: [D]
     X:     3.9078      Y:     1.7110      Z:     0.9172     Total:     4.3635

*** Psi4 exiting successfully. Buy a developer a beer!
