                               Psi4 1.3.2 release

  ==> Input File <==

--------------------------------------------------------------------------
#psi4
#
memory 32 gb

molecule  {
0 1
  O        0.6578240    -1.4038190    -0.0084800
  O       -1.8784309     1.2243449     0.1395299
  O       -1.5482610    -1.4485240    -0.4053400
  C        0.3934500     1.4379940    -0.3488290
  C        1.7709580     0.7423380    -0.3578590
  C       -0.6401280     0.6164470     0.4297460
  C        1.7409690    -0.5516630     0.4430470
  C       -0.5671300    -0.8317210    -0.0237270
  H        0.4383430     2.4405150     0.0852910
  H        0.0022100     1.5496010    -1.3639530
  H        2.0656470     0.4995800    -1.3827820
  H        2.5523030     1.3896650     0.0543080
  H       -0.3983570     0.6446350     1.5043810
  H        2.6396080    -1.1506800     0.2905800
  H        1.6294670    -0.3677470     1.5171870
  H       -2.4737670     0.3533780    -0.0616490
units angstrom
no_reorient  #important for SAPT in psi4, default
symmetry c1  #important for SAPT in psi4, default
}

set PROPERTIES_ORIGIN ["COM"]
properties('MP2/aug-cc-pvtz', properties = ['dipole'])
--------------------------------------------------------------------------

    Molecular point group: c1
  Charge       = 0
  Multiplicity = 1
  Basis Set: AUG-CC-PVTZ
    Blend: AUG-CC-PVTZ
  Basis Set: (AUG-CC-PVTZ AUX)
    Blend: AUG-CC-PVTZ-JKFIT

    Orbital Energies [Eh]
    ---------------------

    Doubly Occupied:

       1A    -20.620455     2A    -20.575577     3A    -20.559155
       4A    -11.395264     5A    -11.313895     6A    -11.311684
       7A    -11.251596     8A    -11.246077     9A     -1.468934
      10A     -1.379866    11A     -1.353580    12A     -1.099580
      13A     -1.022085    14A     -0.917328    15A     -0.866940
      16A     -0.748818    17A     -0.745670    18A     -0.707672
      19A     -0.692033    20A     -0.638269    21A     -0.627555
      22A     -0.618642    23A     -0.589568    24A     -0.572981
      25A     -0.553899    26A     -0.523481    27A     -0.516612
      28A     -0.499746    29A     -0.471051    30A     -0.451231
      31A     -0.443974

  @DF-RHF Final Energy:  -418.73019995421180

   => Energetics <=

    Nuclear Repulsion Energy =            401.3109356800889032
    One-Electron Energy =               -1368.5158355945711719
    Two-Electron Energy =                 548.4746999602704136
    Total Energy =                       -418.7301999542117983
  Basis Set: (AUG-CC-PVTZ AUX)
    Blend: AUG-CC-PVTZ-RI
    Molecular point group: c1

    Geometry (in Angstrom), charge = 0, multiplicity = 1:

       Center              X                  Y                   Z               Mass
    ------------   -----------------  -----------------  -----------------  -----------------
         O            0.704394729894    -1.372124438566     0.009015561055    15.994914619570
         O           -1.831860170106     1.256039461434     0.157025461055    15.994914619570
         O           -1.501690270106    -1.416829438566    -0.387844438945    15.994914619570
         C            0.440020729894     1.469688561434    -0.331333438945    12.000000000000
         C            1.817528729894     0.774032561434    -0.340363438945    12.000000000000
         C           -0.593557270106     0.648141561434     0.447241561055    12.000000000000
         C            1.787539729894    -0.519968438566     0.460542561055    12.000000000000
         C           -0.520559270106    -0.800026438566    -0.006231438945    12.000000000000
         H            0.484913729894     2.472209561434     0.102786561055     1.007825032230
         H            0.048780729894     1.581295561434    -1.346457438945     1.007825032230
         H            2.112217729894     0.531274561434    -1.365286438945     1.007825032230
         H            2.598873729894     1.421359561434     0.071803561055     1.007825032230
         H           -0.351786270106     0.676329561434     1.521876561055     1.007825032230
         H            2.686178729894    -1.118985438566     0.308075561055     1.007825032230
         H            1.676037729894    -0.336052438566     1.534682561055     1.007825032230
         H           -2.427196270106     0.385072561434    -0.044153438945     1.007825032230

  Basis Set: AUG-CC-PVTZ
    Blend: AUG-CC-PVTZ
  Basis Set: (AUG-CC-PVTZ AUX)
    Blend: AUG-CC-PVTZ-JKFIT
	 Reference Energy          =    -418.7301999542117983 [Eh]
	 Singles Energy            =      -0.0000000000000000 [Eh]
	 Same-Spin Energy          =      -0.4143307244575314 [Eh]
	 Opposite-Spin Energy      =      -1.2965924403336024 [Eh]
	 Correlation Energy        =      -1.7109231647911338 [Eh]
	 Total Energy              =    -420.4411231190029525 [Eh]

	 ================> DF-SCS-MP2 Energies <==================
	-----------------------------------------------------------
	 SCS Same-Spin Scale       =       0.3333333333333333 [-]
	 SCS Opposite-Spin Scale   =       1.2000000000000000 [-]
	 SCS Same-Spin Energy      =      -0.1381102414858438 [Eh]
	 SCS Opposite-Spin Energy  =      -1.5559109284003230 [Eh]
	 SCS Correlation Energy    =      -1.6940211698861667 [Eh]
	 SCS Total Energy          =    -420.4242211240979827 [Eh]
	-----------------------------------------------------------

  Dipole Moment: [D]
     X:     3.6963      Y:     1.4678      Z:     1.1637     Total:     4.1438

*** Psi4 exiting successfully. Buy a developer a beer!
