                               Psi4 1.3.2 release

  ==> Input File <==

--------------------------------------------------------------------------
#psi4
#
memory 32 gb

molecule  {
0 1
  O        0.6866038    -1.4713297     0.0612398
  O       -1.9400820     1.1224280     0.2266150
  O       -1.5482610    -1.4485240    -0.4053400
  C        0.3934500     1.4379940    -0.3488290
  C        1.7709580     0.7423380    -0.3578590
  C       -0.6401280     0.6164470     0.4297460
  C        1.7409690    -0.5516630     0.4430470
  C       -0.5671300    -0.8317210    -0.0237270
  H        0.4383430     2.4405150     0.0852910
  H        0.0022100     1.5496010    -1.3639530
  H        2.0656470     0.4995800    -1.3827820
  H        2.5523030     1.3896650     0.0543080
  H       -0.3983570     0.6446350     1.5043810
  H        2.6396080    -1.1506800     0.2905800
  H        1.6294670    -0.3677470     1.5171870
  H       -2.4737670     0.3533780    -0.0616490
units angstrom
no_reorient  #important for SAPT in psi4, default
symmetry c1  #important for SAPT in psi4, default
}

set PROPERTIES_ORIGIN ["COM"]
properties('MP2/aug-cc-pvtz', properties = ['dipole'])
--------------------------------------------------------------------------

    Molecular point group: c1
  Charge       = 0
  Multiplicity = 1
  Basis Set: AUG-CC-PVTZ
    Blend: AUG-CC-PVTZ
  Basis Set: (AUG-CC-PVTZ AUX)
    Blend: AUG-CC-PVTZ-JKFIT

    Orbital Energies [Eh]
    ---------------------

    Doubly Occupied:

       1A    -20.616278     2A    -20.570091     3A    -20.565652
       4A    -11.399556     5A    -11.317609     6A    -11.308492
       7A    -11.255143     8A    -11.250968     9A     -1.452593
      10A     -1.384406    11A     -1.361253    12A     -1.103719
      13A     -1.020295    14A     -0.915999    15A     -0.864850
      16A     -0.763047    17A     -0.734734    18A     -0.710174
      19A     -0.688884    20A     -0.640243    21A     -0.628289
      22A     -0.619784    23A     -0.591699    24A     -0.571537
      25A     -0.554280    26A     -0.534704    27A     -0.516858
      28A     -0.503948    29A     -0.471890    30A     -0.451490
      31A     -0.446693

  @DF-RHF Final Energy:  -418.73837236921190

   => Energetics <=

    Nuclear Repulsion Energy =            399.5910579285296649
    One-Electron Energy =               -1365.0285485019105636
    Two-Electron Energy =                 546.6991182041690536
    Total Energy =                       -418.7383723692119020
  Basis Set: (AUG-CC-PVTZ AUX)
    Blend: AUG-CC-PVTZ-RI
    Molecular point group: c1

    Geometry (in Angstrom), charge = 0, multiplicity = 1:

       Center              X                  Y                   Z               Mass
    ------------   -----------------  -----------------  -----------------  -----------------
         O            0.737705212099    -1.416282773057     0.057122794163    15.994914619570
         O           -1.888980587901     1.177474926943     0.222497994163    15.994914619570
         O           -1.497159587901    -1.393477073057    -0.409457005837    15.994914619570
         C            0.444551412099     1.493040926943    -0.352946005837    12.000000000000
         C            1.822059412099     0.797384926943    -0.361976005837    12.000000000000
         C           -0.589026587901     0.671493926943     0.425628994163    12.000000000000
         C            1.792070412099    -0.496616073057     0.438929994163    12.000000000000
         C           -0.516028587901    -0.776674073057    -0.027844005837    12.000000000000
         H            0.489444412099     2.495561926943     0.081173994163     1.007825032230
         H            0.053311412099     1.604647926943    -1.368070005837     1.007825032230
         H            2.116748412099     0.554626926943    -1.386899005837     1.007825032230
         H            2.603404412099     1.444711926943     0.050190994163     1.007825032230
         H           -0.347255587901     0.699681926943     1.500263994163     1.007825032230
         H            2.690709412099    -1.095633073057     0.286462994163     1.007825032230
         H            1.680568412099    -0.312700073057     1.513069994163     1.007825032230
         H           -2.422665587901     0.408424926943    -0.065766005837     1.007825032230

  Basis Set: AUG-CC-PVTZ
    Blend: AUG-CC-PVTZ
  Basis Set: (AUG-CC-PVTZ AUX)
    Blend: AUG-CC-PVTZ-JKFIT
	 Reference Energy          =    -418.7383723692119020 [Eh]
	 Singles Energy            =      -0.0000000000000000 [Eh]
	 Same-Spin Energy          =      -0.4132987271610934 [Eh]
	 Opposite-Spin Energy      =      -1.2952411031423852 [Eh]
	 Correlation Energy        =      -1.7085398303034784 [Eh]
	 Total Energy              =    -420.4469121995153955 [Eh]

	 ================> DF-SCS-MP2 Energies <==================
	-----------------------------------------------------------
	 SCS Same-Spin Scale       =       0.3333333333333333 [-]
	 SCS Opposite-Spin Scale   =       1.2000000000000000 [-]
	 SCS Same-Spin Energy      =      -0.1377662423870311 [Eh]
	 SCS Opposite-Spin Energy  =      -1.5542893237708622 [Eh]
	 SCS Correlation Energy    =      -1.6920555661578933 [Eh]
	 SCS Total Energy          =    -420.4304279353697780 [Eh]
	-----------------------------------------------------------

  Dipole Moment: [D]
     X:     3.5088      Y:     1.7852      Z:     0.8434     Total:     4.0261

*** Psi4 exiting successfully. Buy a developer a beer!
