                               Psi4 1.3.2 release

  ==> Input File <==

--------------------------------------------------------------------------
#psi4
#
memory 32 gb

molecule  {
0 1
  O        0.6483239    -1.4238866    -0.0164722
  O       -1.9400820     1.1224280     0.2266150
  O       -1.5482610    -1.4485240    -0.4053400
  C        0.3934500     1.4379940    -0.3488290
  C        1.7709580     0.7423380    -0.3578590
  C       -0.6401280     0.6164470     0.4297460
  C        1.7409690    -0.5516630     0.4430470
  C       -0.5671300    -0.8317210    -0.0237270
  H        0.4383430     2.4405150     0.0852910
  H        0.0022100     1.5496010    -1.3639530
  H        2.0656470     0.4995800    -1.3827820
  H        2.5523030     1.3896650     0.0543080
  H       -0.3983570     0.6446350     1.5043810
  H        2.6396080    -1.1506800     0.2905800
  H        1.6294670    -0.3677470     1.5171870
  H       -2.4737670     0.3533780    -0.0616490
units angstrom
no_reorient  #important for SAPT in psi4, default
symmetry c1  #important for SAPT in psi4, default
}

set PROPERTIES_ORIGIN ["COM"]
properties('MP2/aug-cc-pvtz', properties = ['dipole'])
--------------------------------------------------------------------------

    Molecular point group: c1
  Charge       = 0
  Multiplicity = 1
  Basis Set: AUG-CC-PVTZ
    Blend: AUG-CC-PVTZ
  Basis Set: (AUG-CC-PVTZ AUX)
    Blend: AUG-CC-PVTZ-JKFIT

    Orbital Energies [Eh]
    ---------------------

    Doubly Occupied:

       1A    -20.619042     2A    -20.566879     3A    -20.554668
       4A    -11.391563     5A    -11.316014     6A    -11.313855
       7A    -11.255869     8A    -11.250241     9A     -1.464649
      10A     -1.383169    11A     -1.356441    12A     -1.104589
      13A     -1.023534    14A     -0.918980    15A     -0.865239
      16A     -0.761465    17A     -0.743913    18A     -0.709081
      19A     -0.689787    20A     -0.640152    21A     -0.628154
      22A     -0.620916    23A     -0.592990    24A     -0.573199
      25A     -0.554662    26A     -0.531363    27A     -0.517304
      28A     -0.500075    29A     -0.470082    30A     -0.450692
      31A     -0.445768

  @DF-RHF Final Energy:  -418.74487425752130

   => Energetics <=

    Nuclear Repulsion Energy =            401.1358366204254935
    One-Electron Energy =               -1368.1327505461833880
    Two-Electron Energy =                 548.2520396682365345
    Total Energy =                       -418.7448742575213601
  Basis Set: (AUG-CC-PVTZ AUX)
    Blend: AUG-CC-PVTZ-RI
    Molecular point group: c1

    Geometry (in Angstrom), charge = 0, multiplicity = 1:

       Center              X                  Y                   Z               Mass
    ------------   -----------------  -----------------  -----------------  -----------------
         O            0.704701466731    -1.375378800165    -0.009878087764    15.994914619570
         O           -1.883704433269     1.170935799835     0.233209112236    15.994914619570
         O           -1.491883433269    -1.400016200165    -0.398745887764    15.994914619570
         C            0.449827566731     1.486501799835    -0.342234887764    12.000000000000
         C            1.827335566731     0.790845799835    -0.351264887764    12.000000000000
         C           -0.583750433269     0.664954799835     0.436340112236    12.000000000000
         C            1.797346566731    -0.503155200165     0.449641112236    12.000000000000
         C           -0.510752433269    -0.783213200165    -0.017132887764    12.000000000000
         H            0.494720566731     2.489022799835     0.091885112236     1.007825032230
         H            0.058587566731     1.598108799835    -1.357358887764     1.007825032230
         H            2.122024566731     0.548087799835    -1.376187887764     1.007825032230
         H            2.608680566731     1.438172799835     0.060902112236     1.007825032230
         H           -0.341979433269     0.693142799835     1.510975112236     1.007825032230
         H            2.695985566731    -1.102172200165     0.297174112236     1.007825032230
         H            1.685844566731    -0.319239200165     1.523781112236     1.007825032230
         H           -2.417389433269     0.401885799835    -0.055054887764     1.007825032230

  Basis Set: AUG-CC-PVTZ
    Blend: AUG-CC-PVTZ
  Basis Set: (AUG-CC-PVTZ AUX)
    Blend: AUG-CC-PVTZ-JKFIT
	 Reference Energy          =    -418.7448742575213032 [Eh]
	 Singles Energy            =      -0.0000000000000000 [Eh]
	 Same-Spin Energy          =      -0.4126705967080460 [Eh]
	 Opposite-Spin Energy      =      -1.2932266884072079 [Eh]
	 Correlation Energy        =      -1.7058972851152538 [Eh]
	 Total Energy              =    -420.4507715426365735 [Eh]

	 ================> DF-SCS-MP2 Energies <==================
	-----------------------------------------------------------
	 SCS Same-Spin Scale       =       0.3333333333333333 [-]
	 SCS Opposite-Spin Scale   =       1.2000000000000000 [-]
	 SCS Same-Spin Energy      =      -0.1375568655693487 [Eh]
	 SCS Opposite-Spin Energy  =      -1.5518720260886494 [Eh]
	 SCS Correlation Energy    =      -1.6894288916579980 [Eh]
	 SCS Total Energy          =    -420.4343031491792999 [Eh]
	-----------------------------------------------------------

  Dipole Moment: [D]
     X:     3.9002      Y:     1.7027      Z:     1.0013     Total:     4.3719

*** Psi4 exiting successfully. Buy a developer a beer!
