                               Psi4 1.3.2 release

  ==> Input File <==

--------------------------------------------------------------------------
#psi4
#
memory 32 gb

molecule  {
0 1
  O        0.6578240    -1.4038190    -0.0084800
  O       -1.9400820     1.1224280     0.2266150
  O       -1.5482610    -1.4485240    -0.4053400
  C        0.3934500     1.4379940    -0.3488290
  C        1.7028028     0.6249966    -0.2702314
  C       -0.6401280     0.6164470     0.4297460
  C        1.7409690    -0.5516630     0.4430470
  C       -0.5671300    -0.8317210    -0.0237270
  H        0.4383430     2.4405150     0.0852910
  H        0.0022100     1.5496010    -1.3639530
  H        2.0656470     0.4995800    -1.3827820
  H        2.5523030     1.3896650     0.0543080
  H       -0.3983570     0.6446350     1.5043810
  H        2.6396080    -1.1506800     0.2905800
  H        1.6294670    -0.3677470     1.5171870
  H       -2.4737670     0.3533780    -0.0616490
units angstrom
no_reorient  #important for SAPT in psi4, default
symmetry c1  #important for SAPT in psi4, default
}

set PROPERTIES_ORIGIN ["COM"]
properties('MP2/aug-cc-pvtz', properties = ['dipole'])
--------------------------------------------------------------------------

    Molecular point group: c1
  Charge       = 0
  Multiplicity = 1
  Basis Set: AUG-CC-PVTZ
    Blend: AUG-CC-PVTZ
  Basis Set: (AUG-CC-PVTZ AUX)
    Blend: AUG-CC-PVTZ-JKFIT

    Orbital Energies [Eh]
    ---------------------

    Doubly Occupied:

       1A    -20.617524     2A    -20.565555     3A    -20.557016
       4A    -11.393665     5A    -11.312264     6A    -11.309059
       7A    -11.261671     8A    -11.252902     9A     -1.470078
      10A     -1.385774    11A     -1.359022    12A     -1.120392
      13A     -1.040369    14A     -0.916199    15A     -0.865151
      16A     -0.758204    17A     -0.748113    18A     -0.715462
      19A     -0.700278    20A     -0.640729    21A     -0.637586
      22A     -0.613270    23A     -0.594041    24A     -0.574952
      25A     -0.569523    26A     -0.526793    27A     -0.518132
      28A     -0.476385    29A     -0.471868    30A     -0.451807
      31A     -0.439478

  @DF-RHF Final Energy:  -418.71476391578409

   => Energetics <=

    Nuclear Repulsion Energy =            404.2607154129797777
    One-Electron Energy =               -1374.2244294540530518
    Two-Electron Energy =                 551.2489501252890705
    Total Energy =                       -418.7147639157841468
  Basis Set: (AUG-CC-PVTZ AUX)
    Blend: AUG-CC-PVTZ-RI
    Molecular point group: c1

    Geometry (in Angstrom), charge = 0, multiplicity = 1:

       Center              X                  Y                   Z               Mass
    ------------   -----------------  -----------------  -----------------  -----------------
         O            0.719939820516    -1.345943323118    -0.012048686108    15.994914619570
         O           -1.877966179484     1.180303676882     0.223046313892    15.994914619570
         O           -1.486145179484    -1.390648323118    -0.408908686108    15.994914619570
         C            0.455565820516     1.495869676882    -0.352397686108    12.000000000000
         C            1.764918620516     0.682872276882    -0.273800086108    12.000000000000
         C           -0.578012179484     0.674322676882     0.426177313892    12.000000000000
         C            1.803084820516    -0.493787323118     0.439478313892    12.000000000000
         C           -0.505014179484    -0.773845323118    -0.027295686108    12.000000000000
         H            0.500458820516     2.498390676882     0.081722313892     1.007825032230
         H            0.064325820516     1.607476676882    -1.367521686108     1.007825032230
         H            2.127762820516     0.557455676882    -1.386350686108     1.007825032230
         H            2.614418820516     1.447540676882     0.050739313892     1.007825032230
         H           -0.336241179484     0.702510676882     1.500812313892     1.007825032230
         H            2.701723820516    -1.092804323118     0.287011313892     1.007825032230
         H            1.691582820516    -0.309871323118     1.513618313892     1.007825032230
         H           -2.411651179484     0.411253676882    -0.065217686108     1.007825032230

  Basis Set: AUG-CC-PVTZ
    Blend: AUG-CC-PVTZ
  Basis Set: (AUG-CC-PVTZ AUX)
    Blend: AUG-CC-PVTZ-JKFIT
	 Reference Energy          =    -418.7147639157840899 [Eh]
	 Singles Energy            =      -0.0000000000000000 [Eh]
	 Same-Spin Energy          =      -0.4145837448499119 [Eh]
	 Opposite-Spin Energy      =      -1.2954548085813209 [Eh]
	 Correlation Energy        =      -1.7100385534312328 [Eh]
	 Total Energy              =    -420.4248024692153081 [Eh]

	 ================> DF-SCS-MP2 Energies <==================
	-----------------------------------------------------------
	 SCS Same-Spin Scale       =       0.3333333333333333 [-]
	 SCS Opposite-Spin Scale   =       1.2000000000000000 [-]
	 SCS Same-Spin Energy      =      -0.1381945816166373 [Eh]
	 SCS Opposite-Spin Energy  =      -1.5545457702975851 [Eh]
	 SCS Correlation Energy    =      -1.6927403519142223 [Eh]
	 SCS Total Energy          =    -420.4075042676983003 [Eh]
	-----------------------------------------------------------

  Dipole Moment: [D]
     X:     3.8276      Y:     1.6804      Z:     0.9905     Total:     4.2959

*** Psi4 exiting successfully. Buy a developer a beer!
