                               Psi4 1.3.2 release

  ==> Input File <==

--------------------------------------------------------------------------
#psi4
#
memory 32 gb

molecule  {
0 1
  O        0.6578240    -1.4038190    -0.0084800
  O       -1.9400820     1.1224280     0.2266150
  O       -1.5482610    -1.4485240    -0.4053400
  C        0.3934500     1.4379940    -0.3488290
  C        1.7709580     0.7423380    -0.3578590
  C       -0.8245623     0.6882343     0.4009263
  C        1.7409690    -0.5516630     0.4430470
  C       -0.5671300    -0.8317210    -0.0237270
  H        0.4383430     2.4405150     0.0852910
  H        0.0022100     1.5496010    -1.3639530
  H        2.0656470     0.4995800    -1.3827820
  H        2.5523030     1.3896650     0.0543080
  H       -0.3983570     0.6446350     1.5043810
  H        2.6396080    -1.1506800     0.2905800
  H        1.6294670    -0.3677470     1.5171870
  H       -2.4737670     0.3533780    -0.0616490
units angstrom
no_reorient  #important for SAPT in psi4, default
symmetry c1  #important for SAPT in psi4, default
}

set PROPERTIES_ORIGIN ["COM"]
properties('MP2/aug-cc-pvtz', properties = ['dipole'])
--------------------------------------------------------------------------

    Molecular point group: c1
  Charge       = 0
  Multiplicity = 1
  Basis Set: AUG-CC-PVTZ
    Blend: AUG-CC-PVTZ
  Basis Set: (AUG-CC-PVTZ AUX)
    Blend: AUG-CC-PVTZ-JKFIT

    Orbital Energies [Eh]
    ---------------------

    Doubly Occupied:

       1A    -20.618969     2A    -20.590991     3A    -20.550118
       4A    -11.386088     5A    -11.323990     6A    -11.310218
       7A    -11.252373     8A    -11.243328     9A     -1.492085
      10A     -1.456059    11A     -1.364842    12A     -1.087728
      13A     -1.005830    14A     -0.906409    15A     -0.858253
      16A     -0.809576    17A     -0.746945    18A     -0.713153
      19A     -0.690531    20A     -0.662826    21A     -0.637018
      22A     -0.621875    23A     -0.620114    24A     -0.579130
      25A     -0.556932    26A     -0.523443    27A     -0.514992
      28A     -0.497782    29A     -0.467405    30A     -0.418511
      31A     -0.414363

  @DF-RHF Final Energy:  -418.69828784060121

   => Energetics <=

    Nuclear Repulsion Energy =            401.5151098421277993
    One-Electron Energy =               -1368.5830398526777572
    Two-Electron Energy =                 548.3696421699487473
    Total Energy =                       -418.6982878406012105
  Basis Set: (AUG-CC-PVTZ AUX)
    Blend: AUG-CC-PVTZ-RI
    Molecular point group: c1

    Geometry (in Angstrom), charge = 0, multiplicity = 1:

       Center              X                  Y                   Z               Mass
    ------------   -----------------  -----------------  -----------------  -----------------
         O            0.731963785481    -1.365500379053    -0.000007328241    15.994914619570
         O           -1.865942214519     1.160746620947     0.235087671759    15.994914619570
         O           -1.474121214519    -1.410205379053    -0.396867328241    15.994914619570
         C            0.467589785481     1.476312620947    -0.340356328241    12.000000000000
         C            1.845097785481     0.780656620947    -0.349386328241    12.000000000000
         C           -0.750422514519     0.726552920947     0.409398971759    12.000000000000
         C            1.815108785481    -0.513344379053     0.451519671759    12.000000000000
         C           -0.492990214519    -0.793402379053    -0.015254328241    12.000000000000
         H            0.512482785481     2.478833620947     0.093763671759     1.007825032230
         H            0.076349785481     1.587919620947    -1.355480328241     1.007825032230
         H            2.139786785481     0.537898620947    -1.374309328241     1.007825032230
         H            2.626442785481     1.427983620947     0.062780671759     1.007825032230
         H           -0.324217214519     0.682953620947     1.512853671759     1.007825032230
         H            2.713747785481    -1.112361379053     0.299052671759     1.007825032230
         H            1.703606785481    -0.329428379053     1.525659671759     1.007825032230
         H           -2.399627214519     0.391696620947    -0.053176328241     1.007825032230

  Basis Set: AUG-CC-PVTZ
    Blend: AUG-CC-PVTZ
  Basis Set: (AUG-CC-PVTZ AUX)
    Blend: AUG-CC-PVTZ-JKFIT
	 Reference Energy          =    -418.6982878406012105 [Eh]
	 Singles Energy            =      -0.0000000000000000 [Eh]
	 Same-Spin Energy          =      -0.4135316896799567 [Eh]
	 Opposite-Spin Energy      =      -1.2916200968848330 [Eh]
	 Correlation Energy        =      -1.7051517865647896 [Eh]
	 Total Energy              =    -420.4034396271659944 [Eh]

	 ================> DF-SCS-MP2 Energies <==================
	-----------------------------------------------------------
	 SCS Same-Spin Scale       =       0.3333333333333333 [-]
	 SCS Opposite-Spin Scale   =       1.2000000000000000 [-]
	 SCS Same-Spin Energy      =      -0.1378438965599856 [Eh]
	 SCS Opposite-Spin Energy  =      -1.5499441162617995 [Eh]
	 SCS Correlation Energy    =      -1.6877880128217850 [Eh]
	 SCS Total Energy          =    -420.3860758534229944 [Eh]
	-----------------------------------------------------------

  Dipole Moment: [D]
     X:     3.0329      Y:     1.8675      Z:     0.8597     Total:     3.6640

*** Psi4 exiting successfully. Buy a developer a beer!
