                               Psi4 1.3.2 release

  ==> Input File <==

--------------------------------------------------------------------------
#psi4
#
memory 32 gb

molecule  {
0 1
  O        0.6578240    -1.4038190    -0.0084800
  O       -1.9421887     1.1261445     0.2508443
  O       -1.5482610    -1.4485240    -0.4053400
  C        0.3934500     1.4379940    -0.3488290
  C        1.7709580     0.7423380    -0.3578590
  C       -0.6401280     0.6164470     0.4297460
  C        1.7409690    -0.5516630     0.4430470
  C       -0.5671300    -0.8317210    -0.0237270
  H        0.4383430     2.4405150     0.0852910
  H        0.0022100     1.5496010    -1.3639530
  H        2.0656470     0.4995800    -1.3827820
  H        2.5523030     1.3896650     0.0543080
  H       -0.3983570     0.6446350     1.5043810
  H        2.6396080    -1.1506800     0.2905800
  H        1.6294670    -0.3677470     1.5171870
  H       -2.4737670     0.3533780    -0.0616490
units angstrom
no_reorient  #important for SAPT in psi4, default
symmetry c1  #important for SAPT in psi4, default
}

set PROPERTIES_ORIGIN ["COM"]
properties('MP2/aug-cc-pvtz', properties = ['dipole'])
--------------------------------------------------------------------------

    Molecular point group: c1
  Charge       = 0
  Multiplicity = 1
  Basis Set: AUG-CC-PVTZ
    Blend: AUG-CC-PVTZ
  Basis Set: (AUG-CC-PVTZ AUX)
    Blend: AUG-CC-PVTZ-JKFIT

    Orbital Energies [Eh]
    ---------------------

    Doubly Occupied:

       1A    -20.619295     2A    -20.567486     3A    -20.556855
       4A    -11.393441     5A    -11.314359     6A    -11.312905
       7A    -11.254869     8A    -11.250022     9A     -1.468056
      10A     -1.384209    11A     -1.357996    12A     -1.103470
      13A     -1.025077    14A     -0.918413    15A     -0.867685
      16A     -0.760816    17A     -0.745471    18A     -0.709199
      19A     -0.691443    20A     -0.640137    21A     -0.631594
      22A     -0.619891    23A     -0.592791    24A     -0.572819
      25A     -0.554655    26A     -0.532040    27A     -0.516674
      28A     -0.501187    29A     -0.470083    30A     -0.449826
      31A     -0.445575

  @DF-RHF Final Energy:  -418.74540787320228

   => Energetics <=

    Nuclear Repulsion Energy =            401.4249411690923921
    One-Electron Energy =               -1368.6840174169419697
    Two-Electron Energy =                 548.5136683746472954
    Total Energy =                       -418.7454078732023390
  Basis Set: (AUG-CC-PVTZ AUX)
    Blend: AUG-CC-PVTZ-RI
    Molecular point group: c1

    Geometry (in Angstrom), charge = 0, multiplicity = 1:

       Center              X                  Y                   Z               Mass
    ------------   -----------------  -----------------  -----------------  -----------------
         O            0.713182527453    -1.358589385045    -0.006327007424    15.994914619570
         O           -1.886830172547     1.171374114955     0.252997292576    15.994914619570
         O           -1.492902472547    -1.403294385045    -0.403187007424    15.994914619570
         C            0.448808527453     1.483223614955    -0.346676007424    12.000000000000
         C            1.826316527453     0.787567614955    -0.355706007424    12.000000000000
         C           -0.584769472547     0.661676614955     0.431898992576    12.000000000000
         C            1.796327527453    -0.506433385045     0.445199992576    12.000000000000
         C           -0.511771472547    -0.786491385045    -0.021574007424    12.000000000000
         H            0.493701527453     2.485744614955     0.087443992576     1.007825032230
         H            0.057568527453     1.594830614955    -1.361800007424     1.007825032230
         H            2.121005527453     0.544809614955    -1.380629007424     1.007825032230
         H            2.607661527453     1.434894614955     0.056460992576     1.007825032230
         H           -0.342998472547     0.689864614955     1.506533992576     1.007825032230
         H            2.694966527453    -1.105450385045     0.292732992576     1.007825032230
         H            1.684825527453    -0.322517385045     1.519339992576     1.007825032230
         H           -2.418408472547     0.398607614955    -0.059496007424     1.007825032230

  Basis Set: AUG-CC-PVTZ
    Blend: AUG-CC-PVTZ
  Basis Set: (AUG-CC-PVTZ AUX)
    Blend: AUG-CC-PVTZ-JKFIT
	 Reference Energy          =    -418.7454078732022822 [Eh]
	 Singles Energy            =      -0.0000000000000000 [Eh]
	 Same-Spin Energy          =      -0.4127145547713889 [Eh]
	 Opposite-Spin Energy      =      -1.2929933109224008 [Eh]
	 Correlation Energy        =      -1.7057078656937896 [Eh]
	 Total Energy              =    -420.4511157388960783 [Eh]

	 ================> DF-SCS-MP2 Energies <==================
	-----------------------------------------------------------
	 SCS Same-Spin Scale       =       0.3333333333333333 [-]
	 SCS Opposite-Spin Scale   =       1.2000000000000000 [-]
	 SCS Same-Spin Energy      =      -0.1375715182571296 [Eh]
	 SCS Opposite-Spin Energy  =      -1.5515919731068808 [Eh]
	 SCS Correlation Energy    =      -1.6891634913640103 [Eh]
	 SCS Total Energy          =    -420.4345713645662954 [Eh]
	-----------------------------------------------------------

  Dipole Moment: [D]
     X:     3.8686      Y:     1.6388      Z:     0.9348     Total:     4.3042

*** Psi4 exiting successfully. Buy a developer a beer!
