                               Psi4 1.3.2 release

  ==> Input File <==

--------------------------------------------------------------------------
#psi4
#
memory 32 gb

molecule  {
0 1
  O        0.6514487    -1.3862793    -0.0255793
  O       -1.9400820     1.1224280     0.2266150
  O       -1.5482610    -1.4485240    -0.4053400
  C        0.3934500     1.4379940    -0.3488290
  C        1.7709580     0.7423380    -0.3578590
  C       -0.6401280     0.6164470     0.4297460
  C        1.7409690    -0.5516630     0.4430470
  C       -0.5671300    -0.8317210    -0.0237270
  H        0.4383430     2.4405150     0.0852910
  H        0.0022100     1.5496010    -1.3639530
  H        2.0656470     0.4995800    -1.3827820
  H        2.5523030     1.3896650     0.0543080
  H       -0.3983570     0.6446350     1.5043810
  H        2.6396080    -1.1506800     0.2905800
  H        1.6294670    -0.3677470     1.5171870
  H       -2.4737670     0.3533780    -0.0616490
units angstrom
no_reorient  #important for SAPT in psi4, default
symmetry c1  #important for SAPT in psi4, default
}

set PROPERTIES_ORIGIN ["COM"]
properties('MP2/aug-cc-pvtz', properties = ['dipole'])
--------------------------------------------------------------------------

    Molecular point group: c1
  Charge       = 0
  Multiplicity = 1
  Basis Set: AUG-CC-PVTZ
    Blend: AUG-CC-PVTZ
  Basis Set: (AUG-CC-PVTZ AUX)
    Blend: AUG-CC-PVTZ-JKFIT

    Orbital Energies [Eh]
    ---------------------

    Doubly Occupied:

       1A    -20.619629     2A    -20.565750     3A    -20.554377
       4A    -11.391549     5A    -11.315738     6A    -11.312065
       7A    -11.254577     8A    -11.249539     9A     -1.472232
      10A     -1.384936    11A     -1.357615    12A     -1.103494
      13A     -1.026605    14A     -0.919169    15A     -0.868197
      16A     -0.760675    17A     -0.748112    18A     -0.710470
      19A     -0.692225    20A     -0.642012    21A     -0.631986
      22A     -0.619883    23A     -0.592683    24A     -0.573142
      25A     -0.553955    26A     -0.531232    27A     -0.516585
      28A     -0.500217    29A     -0.469496    30A     -0.449948
      31A     -0.444706

  @DF-RHF Final Energy:  -418.74684095837887

   => Energetics <=

    Nuclear Repulsion Energy =            402.0999080980830058
    One-Electron Energy =               -1370.0279006840482907
    Two-Electron Energy =                 549.1811516275864733
    Total Energy =                       -418.7468409583788116
  Basis Set: (AUG-CC-PVTZ AUX)
    Blend: AUG-CC-PVTZ-RI
    Molecular point group: c1

    Geometry (in Angstrom), charge = 0, multiplicity = 1:

       Center              X                  Y                   Z               Mass
    ------------   -----------------  -----------------  -----------------  -----------------
         O            0.707395572607    -1.342954949706    -0.017729947603    15.994914619570
         O           -1.884135127393     1.165752350294     0.234464352397    15.994914619570
         O           -1.492314127393    -1.405199649706    -0.397490647603    15.994914619570
         C            0.449396872607     1.481318350294    -0.340979647603    12.000000000000
         C            1.826904872607     0.785662350294    -0.350009647603    12.000000000000
         C           -0.584181127393     0.659771350294     0.437595352397    12.000000000000
         C            1.796915872607    -0.508338649706     0.450896352397    12.000000000000
         C           -0.511183127393    -0.788396649706    -0.015877647603    12.000000000000
         H            0.494289872607     2.483839350294     0.093140352397     1.007825032230
         H            0.058156872607     1.592925350294    -1.356103647603     1.007825032230
         H            2.121593872607     0.542904350294    -1.374932647603     1.007825032230
         H            2.608249872607     1.432989350294     0.062157352397     1.007825032230
         H           -0.342410127393     0.687959350294     1.512230352397     1.007825032230
         H            2.695554872607    -1.107355649706     0.298429352397     1.007825032230
         H            1.685413872607    -0.324422649706     1.525036352397     1.007825032230
         H           -2.417820127393     0.396702350294    -0.053799647603     1.007825032230

  Basis Set: AUG-CC-PVTZ
    Blend: AUG-CC-PVTZ
  Basis Set: (AUG-CC-PVTZ AUX)
    Blend: AUG-CC-PVTZ-JKFIT
	 Reference Energy          =    -418.7468409583788684 [Eh]
	 Singles Energy            =      -0.0000000000000000 [Eh]
	 Same-Spin Energy          =      -0.4124422026773135 [Eh]
	 Opposite-Spin Energy      =      -1.2921425512460167 [Eh]
	 Correlation Energy        =      -1.7045847539233301 [Eh]
	 Total Energy              =    -420.4514257123021821 [Eh]

	 ================> DF-SCS-MP2 Energies <==================
	-----------------------------------------------------------
	 SCS Same-Spin Scale       =       0.3333333333333333 [-]
	 SCS Opposite-Spin Scale   =       1.2000000000000000 [-]
	 SCS Same-Spin Energy      =      -0.1374807342257711 [Eh]
	 SCS Opposite-Spin Energy  =      -1.5505710614952199 [Eh]
	 SCS Correlation Energy    =      -1.6880517957209911 [Eh]
	 SCS Total Energy          =    -420.4348927540998488 [Eh]
	-----------------------------------------------------------

  Dipole Moment: [D]
     X:     3.9380      Y:     1.6096      Z:     1.0153     Total:     4.3737

*** Psi4 exiting successfully. Buy a developer a beer!
