                               Psi4 1.3.2 release

  ==> Input File <==

--------------------------------------------------------------------------
#psi4
#
memory 32 gb

molecule  {
0 1
  O        0.6578240    -1.4038190    -0.0084800
  O       -1.9533633     1.0786456     0.2085110
  O       -1.5482610    -1.4485240    -0.4053400
  C        0.3934500     1.4379940    -0.3488290
  C        1.7709580     0.7423380    -0.3578590
  C       -0.6401280     0.6164470     0.4297460
  C        1.7409690    -0.5516630     0.4430470
  C       -0.5671300    -0.8317210    -0.0237270
  H        0.4383430     2.4405150     0.0852910
  H        0.0022100     1.5496010    -1.3639530
  H        2.0656470     0.4995800    -1.3827820
  H        2.5523030     1.3896650     0.0543080
  H       -0.3983570     0.6446350     1.5043810
  H        2.6396080    -1.1506800     0.2905800
  H        1.6294670    -0.3677470     1.5171870
  H       -2.4737670     0.3533780    -0.0616490
units angstrom
no_reorient  #important for SAPT in psi4, default
symmetry c1  #important for SAPT in psi4, default
}

set PROPERTIES_ORIGIN ["COM"]
properties('MP2/aug-cc-pvtz', properties = ['dipole'])
--------------------------------------------------------------------------

    Molecular point group: c1
  Charge       = 0
  Multiplicity = 1
  Basis Set: AUG-CC-PVTZ
    Blend: AUG-CC-PVTZ
  Basis Set: (AUG-CC-PVTZ AUX)
    Blend: AUG-CC-PVTZ-JKFIT

    Orbital Energies [Eh]
    ---------------------

    Doubly Occupied:

       1A    -20.618012     2A    -20.561447     3A    -20.554874
       4A    -11.391634     5A    -11.314430     6A    -11.314277
       7A    -11.255328     8A    -11.250769     9A     -1.467248
      10A     -1.390544    11A     -1.359775    12A     -1.104839
      13A     -1.026937    14A     -0.919649    15A     -0.867868
      16A     -0.767261    17A     -0.744749    18A     -0.713075
      19A     -0.691375    20A     -0.646246    21A     -0.631013
      22A     -0.620598    23A     -0.593329    24A     -0.572101
      25A     -0.553058    26A     -0.533241    27A     -0.516630
      28A     -0.500721    29A     -0.469723    30A     -0.450993
      31A     -0.444871

  @DF-RHF Final Energy:  -418.74685222148520

   => Energetics <=

    Nuclear Repulsion Energy =            402.1191635309176036
    One-Electron Energy =               -1370.0387973615374904
    Two-Electron Energy =                 549.1727816091347449
    Total Energy =                       -418.7468522214851419
  Basis Set: (AUG-CC-PVTZ AUX)
    Blend: AUG-CC-PVTZ-RI
    Molecular point group: c1

    Geometry (in Angstrom), charge = 0, multiplicity = 1:

       Center              X                  Y                   Z               Mass
    ------------   -----------------  -----------------  -----------------  -----------------
         O            0.714722733084    -1.352042566970    -0.000492168857    15.994914619570
         O           -1.896464566916     1.130422033030     0.216498831143    15.994914619570
         O           -1.491362266916    -1.396747566970    -0.397352168857    15.994914619570
         C            0.450348733084     1.489770433030    -0.340841168857    12.000000000000
         C            1.827856733084     0.794114433030    -0.349871168857    12.000000000000
         C           -0.583229266916     0.668223433030     0.437733831143    12.000000000000
         C            1.797867733084    -0.499886566970     0.451034831143    12.000000000000
         C           -0.510231266916    -0.779944566970    -0.015739168857    12.000000000000
         H            0.495241733084     2.492291433030     0.093278831143     1.007825032230
         H            0.059108733084     1.601377433030    -1.355965168857     1.007825032230
         H            2.122545733084     0.551356433030    -1.374794168857     1.007825032230
         H            2.609201733084     1.441441433030     0.062295831143     1.007825032230
         H           -0.341458266916     0.696411433030     1.512368831143     1.007825032230
         H            2.696506733084    -1.098903566970     0.298567831143     1.007825032230
         H            1.686365733084    -0.315970566970     1.525174831143     1.007825032230
         H           -2.416868266916     0.405154433030    -0.053661168857     1.007825032230

  Basis Set: AUG-CC-PVTZ
    Blend: AUG-CC-PVTZ
  Basis Set: (AUG-CC-PVTZ AUX)
    Blend: AUG-CC-PVTZ-JKFIT
	 Reference Energy          =    -418.7468522214851987 [Eh]
	 Singles Energy            =      -0.0000000000000000 [Eh]
	 Same-Spin Energy          =      -0.4118516631573371 [Eh]
	 Opposite-Spin Energy      =      -1.2910433547036171 [Eh]
	 Correlation Energy        =      -1.7028950178609543 [Eh]
	 Total Energy              =    -420.4497472393461521 [Eh]

	 ================> DF-SCS-MP2 Energies <==================
	-----------------------------------------------------------
	 SCS Same-Spin Scale       =       0.3333333333333333 [-]
	 SCS Opposite-Spin Scale   =       1.2000000000000000 [-]
	 SCS Same-Spin Energy      =      -0.1372838877191124 [Eh]
	 SCS Opposite-Spin Energy  =      -1.5492520256443405 [Eh]
	 SCS Correlation Energy    =      -1.6865359133634530 [Eh]
	 SCS Total Energy          =    -420.4333881348486557 [Eh]
	-----------------------------------------------------------

  Dipole Moment: [D]
     X:     3.8871      Y:     1.7252      Z:     1.0140     Total:     4.3720

*** Psi4 exiting successfully. Buy a developer a beer!
