                               Psi4 1.4a3.dev225

  ==> Input File <==

--------------------------------------------------------------------------
#psi4
#
memory 32 gb

molecule  {
0 1
  O        0.6578240    -1.4038190    -0.0084800
  O       -1.9400820     1.1224280     0.2266150
  O       -1.5482610    -1.4485240    -0.4053400
  C        0.3934500     1.4379940    -0.3488290
  C        1.7709580     0.7423380    -0.3578590
  C       -0.5940194     0.5985002     0.4369509
  C        1.7409690    -0.5516630     0.4430470
  C       -0.5671300    -0.8317210    -0.0237270
  H        0.4383430     2.4405150     0.0852910
  H        0.0022100     1.5496010    -1.3639530
  H        2.0656470     0.4995800    -1.3827820
  H        2.5523030     1.3896650     0.0543080
  H       -0.3983570     0.6446350     1.5043810
  H        2.6396080    -1.1506800     0.2905800
  H        1.6294670    -0.3677470     1.5171870
  H       -2.4737670     0.3533780    -0.0616490
units angstrom
no_reorient  #important for SAPT in psi4, default
symmetry c1  #important for SAPT in psi4, default
}

set PROPERTIES_ORIGIN ["COM"]
properties('MP2/aug-cc-pvtz', properties = ['dipole'])
--------------------------------------------------------------------------

    Molecular point group: c1
  Charge       = 0
  Multiplicity = 1
  Basis Set: AUG-CC-PVTZ
    Blend: AUG-CC-PVTZ
  Basis Set: (AUG-CC-PVTZ AUX)
    Blend: AUG-CC-PVTZ-JKFIT

    Orbital Energies [Eh]
    ---------------------

    Doubly Occupied:

       1A    -20.618853     2A    -20.561672     3A    -20.558179
       4A    -11.394706     5A    -11.315126     6A    -11.312579
       7A    -11.255153     8A    -11.251151     9A     -1.469022
      10A     -1.378308    11A     -1.346701    12A     -1.107938
      13A     -1.029396    14A     -0.921798    15A     -0.870126
      16A     -0.757250    17A     -0.745642    18A     -0.709241
      19A     -0.692370    20A     -0.639624    21A     -0.630317
      22A     -0.618500    23A     -0.595470    24A     -0.566288
      25A     -0.550403    26A     -0.533065    27A     -0.514973
      28A     -0.501570    29A     -0.469858    30A     -0.454890
      31A     -0.449263

  @DF-RHF Final Energy:  -418.74232035378935

   => Energetics <=

    Nuclear Repulsion Energy =            401.7262716100524926
    One-Electron Energy =               -1369.2983293250890711
    Two-Electron Energy =                 548.8297373612473393
    Total Energy =                       -418.7423203537892960
  Basis Set: (AUG-CC-PVTZ AUX)
    Blend: AUG-CC-PVTZ-RI
    Molecular point group: c1

    Geometry (in Angstrom), charge = 0, multiplicity = 1:

       Center              X                  Y                   Z               Mass
    ------------   -----------------  -----------------  -----------------  -----------------
         O            0.708124249807    -1.356221328264    -0.003732490616    15.994914619570
         O           -1.889781750193     1.170025671736     0.231362509384    15.994914619570
         O           -1.497960750193    -1.400926328264    -0.400592490616    15.994914619570
         C            0.443750249807     1.485591671736    -0.344081490616    12.000000000000
         C            1.821258249807     0.789935671736    -0.353111490616    12.000000000000
         C           -0.543719150193     0.646097871736     0.441698409384    12.000000000000
         C            1.791269249807    -0.504065328264     0.447794509384    12.000000000000
         C           -0.516829750193    -0.784123328264    -0.018979490616    12.000000000000
         H            0.488643249807     2.488112671736     0.090038509384     1.007825032230
         H            0.052510249807     1.597198671736    -1.359205490616     1.007825032230
         H            2.115947249807     0.547177671736    -1.378034490616     1.007825032230
         H            2.602603249807     1.437262671736     0.059055509384     1.007825032230
         H           -0.348056750193     0.692232671736     1.509128509384     1.007825032230
         H            2.689908249807    -1.103082328264     0.295327509384     1.007825032230
         H            1.679767249807    -0.320149328264     1.521934509384     1.007825032230
         H           -2.423466750193     0.400975671736    -0.056901490616     1.007825032230

  Basis Set: AUG-CC-PVTZ
    Blend: AUG-CC-PVTZ
  Basis Set: (AUG-CC-PVTZ AUX)
    Blend: AUG-CC-PVTZ-JKFIT
	 Reference Energy          =    -418.7423203537893528 [Eh]
	 Singles Energy            =      -0.0000000000000000 [Eh]
	 Same-Spin Energy          =      -0.4129239867867386 [Eh]
	 Opposite-Spin Energy      =      -1.2939319507376346 [Eh]
	 Correlation Energy        =      -1.7068559375243733 [Eh]
	 Total Energy              =    -420.4491762913137336 [Eh]

	 ================> DF-SCS-MP2 Energies <==================
	-----------------------------------------------------------
	 SCS Same-Spin Scale       =       0.3333333333333333 [-]
	 SCS Opposite-Spin Scale   =       1.2000000000000000 [-]
	 SCS Same-Spin Energy      =      -0.1376413289289128 [Eh]
	 SCS Opposite-Spin Energy  =      -1.5527183408851615 [Eh]
	 SCS Correlation Energy    =      -1.6903596698140744 [Eh]
	 SCS Total Energy          =    -420.4326800236034387 [Eh]
	-----------------------------------------------------------

  Dipole Moment: [D]
     X:     4.0100      Y:     1.6040      Z:     0.9950     Total:     4.4320

*** Psi4 exiting successfully. Buy a developer a beer!
