                               Psi4 1.3.2 release

  ==> Input File <==

--------------------------------------------------------------------------
#psi4
#
memory 32 gb

molecule  {
0 1
  O        0.6578240    -1.4038190    -0.0084800
  O       -1.9210839     1.1570728     0.1972916
  O       -1.5482610    -1.4485240    -0.4053400
  C        0.3934500     1.4379940    -0.3488290
  C        1.7709580     0.7423380    -0.3578590
  C       -0.6401280     0.6164470     0.4297460
  C        1.7409690    -0.5516630     0.4430470
  C       -0.5671300    -0.8317210    -0.0237270
  H        0.4383430     2.4405150     0.0852910
  H        0.0022100     1.5496010    -1.3639530
  H        2.0656470     0.4995800    -1.3827820
  H        2.5523030     1.3896650     0.0543080
  H       -0.3983570     0.6446350     1.5043810
  H        2.6396080    -1.1506800     0.2905800
  H        1.6294670    -0.3677470     1.5171870
  H       -2.4737670     0.3533780    -0.0616490
units angstrom
no_reorient  #important for SAPT in psi4, default
symmetry c1  #important for SAPT in psi4, default
}

set PROPERTIES_ORIGIN ["COM"]
properties('MP2/aug-cc-pvtz', properties = ['dipole'])
--------------------------------------------------------------------------

    Molecular point group: c1
  Charge       = 0
  Multiplicity = 1
  Basis Set: AUG-CC-PVTZ
    Blend: AUG-CC-PVTZ
  Basis Set: (AUG-CC-PVTZ AUX)
    Blend: AUG-CC-PVTZ-JKFIT

    Orbital Energies [Eh]
    ---------------------

    Doubly Occupied:

       1A    -20.619535     2A    -20.569671     3A    -20.557383
       4A    -11.393840     5A    -11.314180     6A    -11.312629
       7A    -11.253699     8A    -11.248577     9A     -1.468230
      10A     -1.382789    11A     -1.357097    12A     -1.102208
      13A     -1.024214    14A     -0.917989    15A     -0.867505
      16A     -0.756278    17A     -0.745559    18A     -0.709670
      19A     -0.691801    20A     -0.640172    21A     -0.630601
      22A     -0.619582    23A     -0.591547    24A     -0.572842
      25A     -0.554131    26A     -0.529442    27A     -0.516515
      28A     -0.500738    29A     -0.470539    30A     -0.450747
      31A     -0.444886

  @DF-RHF Final Energy:  -418.74292491393658

   => Energetics <=

    Nuclear Repulsion Energy =            401.4835833326343959
    One-Electron Energy =               -1368.8238254244402015
    Two-Electron Energy =                 548.5973171778691722
    Total Energy =                       -418.7429249139365766
  Basis Set: (AUG-CC-PVTZ AUX)
    Blend: AUG-CC-PVTZ-RI
    Molecular point group: c1

    Geometry (in Angstrom), charge = 0, multiplicity = 1:

       Center              X                  Y                   Z               Mass
    ------------   -----------------  -----------------  -----------------  -----------------
         O            0.710273633013    -1.362852261732     0.001054211601    15.994914619570
         O           -1.868634266987     1.198039538268     0.206825811601    15.994914619570
         O           -1.495811366987    -1.407557261732    -0.395805788399    15.994914619570
         C            0.445899633013     1.478960738268    -0.339294788399    12.000000000000
         C            1.823407633013     0.783304738268    -0.348324788399    12.000000000000
         C           -0.587678366987     0.657413738268     0.439280211601    12.000000000000
         C            1.793418633013    -0.510696261732     0.452581211601    12.000000000000
         C           -0.514680366987    -0.790754261732    -0.014192788399    12.000000000000
         H            0.490792633013     2.481481738268     0.094825211601     1.007825032230
         H            0.054659633013     1.590567738268    -1.354418788399     1.007825032230
         H            2.118096633013     0.540546738268    -1.373247788399     1.007825032230
         H            2.604752633013     1.430631738268     0.063842211601     1.007825032230
         H           -0.345907366987     0.685601738268     1.513915211601     1.007825032230
         H            2.692057633013    -1.109713261732     0.300114211601     1.007825032230
         H            1.681916633013    -0.326780261732     1.526721211601     1.007825032230
         H           -2.421317366987     0.394344738268    -0.052114788399     1.007825032230

  Basis Set: AUG-CC-PVTZ
    Blend: AUG-CC-PVTZ
  Basis Set: (AUG-CC-PVTZ AUX)
    Blend: AUG-CC-PVTZ-JKFIT
	 Reference Energy          =    -418.7429249139365766 [Eh]
	 Singles Energy            =      -0.0000000000000000 [Eh]
	 Same-Spin Energy          =      -0.4130981826066582 [Eh]
	 Opposite-Spin Energy      =      -1.2938191231493026 [Eh]
	 Correlation Energy        =      -1.7069173057559608 [Eh]
	 Total Energy              =    -420.4498422196925276 [Eh]

	 ================> DF-SCS-MP2 Energies <==================
	-----------------------------------------------------------
	 SCS Same-Spin Scale       =       0.3333333333333333 [-]
	 SCS Opposite-Spin Scale   =       1.2000000000000000 [-]
	 SCS Same-Spin Energy      =      -0.1376993942022194 [Eh]
	 SCS Opposite-Spin Energy  =      -1.5525829477791631 [Eh]
	 SCS Correlation Energy    =      -1.6902823419813824 [Eh]
	 SCS Total Energy          =    -420.4332072559179778 [Eh]
	-----------------------------------------------------------

  Dipole Moment: [D]
     X:     3.8042      Y:     1.5830      Z:     1.0460     Total:     4.2511

*** Psi4 exiting successfully. Buy a developer a beer!
