                               Psi4 1.3.2 release

  ==> Input File <==

--------------------------------------------------------------------------
#psi4
#
memory 32 gb

molecule  {
0 1
  O        0.6578240    -1.4038190    -0.0084800
  O       -1.9469217     1.1006105     0.2175307
  O       -1.5482610    -1.4485240    -0.4053400
  C        0.3934500     1.4379940    -0.3488290
  C        1.7709580     0.7423380    -0.3578590
  C       -0.6401280     0.6164470     0.4297460
  C        1.7409690    -0.5516630     0.4430470
  C       -0.5671300    -0.8317210    -0.0237270
  H        0.4383430     2.4405150     0.0852910
  H        0.0022100     1.5496010    -1.3639530
  H        2.0656470     0.4995800    -1.3827820
  H        2.5523030     1.3896650     0.0543080
  H       -0.3983570     0.6446350     1.5043810
  H        2.6396080    -1.1506800     0.2905800
  H        1.6294670    -0.3677470     1.5171870
  H       -2.4737670     0.3533780    -0.0616490
units angstrom
no_reorient  #important for SAPT in psi4, default
symmetry c1  #important for SAPT in psi4, default
}

set PROPERTIES_ORIGIN ["COM"]
properties('MP2/aug-cc-pvtz', properties = ['dipole'])
--------------------------------------------------------------------------

    Molecular point group: c1
  Charge       = 0
  Multiplicity = 1
  Basis Set: AUG-CC-PVTZ
    Blend: AUG-CC-PVTZ
  Basis Set: (AUG-CC-PVTZ AUX)
    Blend: AUG-CC-PVTZ-JKFIT

    Orbital Energies [Eh]
    ---------------------

    Doubly Occupied:

       1A    -20.618529     2A    -20.564101     3A    -20.555688
       4A    -11.392367     5A    -11.314286     6A    -11.313774
       7A    -11.255007     8A    -11.250295     9A     -1.467554
      10A     -1.387572    11A     -1.359211    12A     -1.104139
      13A     -1.026075    14A     -0.919048    15A     -0.867786
      16A     -0.764026    17A     -0.745037    18A     -0.711643
      19A     -0.691479    20A     -0.643885    21A     -0.631270
      22A     -0.620326    23A     -0.592980    24A     -0.572380
      25A     -0.553619    26A     -0.532610    27A     -0.516635
      28A     -0.500894    29A     -0.469904    30A     -0.450639
      31A     -0.445123

  @DF-RHF Final Energy:  -418.74714953891055

   => Energetics <=

    Nuclear Repulsion Energy =            401.8555475833681498
    One-Electron Energy =               -1369.5296286345478620
    Two-Electron Energy =                 548.9269315122691069
    Total Energy =                       -418.7471495389105485
  Basis Set: (AUG-CC-PVTZ AUX)
    Blend: AUG-CC-PVTZ-RI
    Molecular point group: c1

    Geometry (in Angstrom), charge = 0, multiplicity = 1:

       Center              X                  Y                   Z               Mass
    ------------   -----------------  -----------------  -----------------  -----------------
         O            0.713834881296    -1.355070009802    -0.001735362594    15.994914619570
         O           -1.890910818704     1.149359490198     0.224275337406    15.994914619570
         O           -1.492250118704    -1.399775009802    -0.398595362594    15.994914619570
         C            0.449460881296     1.486742990198    -0.342084362594    12.000000000000
         C            1.826968881296     0.791086990198    -0.351114362594    12.000000000000
         C           -0.584117118704     0.665195990198     0.436490637406    12.000000000000
         C            1.796979881296    -0.502914009802     0.449791637406    12.000000000000
         C           -0.511119118704    -0.782972009802    -0.016982362594    12.000000000000
         H            0.494353881296     2.489263990198     0.092035637406     1.007825032230
         H            0.058220881296     1.598349990198    -1.357208362594     1.007825032230
         H            2.121657881296     0.548328990198    -1.376037362594     1.007825032230
         H            2.608313881296     1.438413990198     0.061052637406     1.007825032230
         H           -0.342346118704     0.693383990198     1.511125637406     1.007825032230
         H            2.695618881296    -1.101931009802     0.297324637406     1.007825032230
         H            1.685477881296    -0.318998009802     1.523931637406     1.007825032230
         H           -2.417756118704     0.402126990198    -0.054904362594     1.007825032230

  Basis Set: AUG-CC-PVTZ
    Blend: AUG-CC-PVTZ
  Basis Set: (AUG-CC-PVTZ AUX)
    Blend: AUG-CC-PVTZ-JKFIT
	 Reference Energy          =    -418.7471495389105485 [Eh]
	 Singles Energy            =      -0.0000000000000000 [Eh]
	 Same-Spin Energy          =      -0.4122066957546575 [Eh]
	 Opposite-Spin Energy      =      -1.2918337194523457 [Eh]
	 Correlation Energy        =      -1.7040404152070032 [Eh]
	 Total Energy              =    -420.4511899541175239 [Eh]

	 ================> DF-SCS-MP2 Energies <==================
	-----------------------------------------------------------
	 SCS Same-Spin Scale       =       0.3333333333333333 [-]
	 SCS Opposite-Spin Scale   =       1.2000000000000000 [-]
	 SCS Same-Spin Energy      =      -0.1374022319182192 [Eh]
	 SCS Opposite-Spin Energy  =      -1.5502004633428148 [Eh]
	 SCS Correlation Energy    =      -1.6876026952610339 [Eh]
	 SCS Total Energy          =    -420.4347522341715830 [Eh]
	-----------------------------------------------------------

  Dipole Moment: [D]
     X:     3.8717      Y:     1.6851      Z:     0.9984     Total:     4.3390

*** Psi4 exiting successfully. Buy a developer a beer!
