                               Psi4 1.4a3.dev225

  ==> Input File <==

--------------------------------------------------------------------------
#psi4
#
memory 32 gb

molecule  {
0 1
  O        0.6578240    -1.4038190    -0.0084800
  O       -1.9400820     1.1224280     0.2266150
  O       -1.5482610    -1.4485240    -0.4053400
  C        0.3934500     1.4379940    -0.3488290
  C        1.7709580     0.7423380    -0.3578590
  C       -0.6401280     0.6164470     0.4297460
  C        1.7783122    -0.5222835     0.4586141
  C       -0.5671300    -0.8317210    -0.0237270
  H        0.4383430     2.4405150     0.0852910
  H        0.0022100     1.5496010    -1.3639530
  H        2.0656470     0.4995800    -1.3827820
  H        2.5523030     1.3896650     0.0543080
  H       -0.3983570     0.6446350     1.5043810
  H        2.6396080    -1.1506800     0.2905800
  H        1.6294670    -0.3677470     1.5171870
  H       -2.4737670     0.3533780    -0.0616490
units angstrom
no_reorient  #important for SAPT in psi4, default
symmetry c1  #important for SAPT in psi4, default
}

set PROPERTIES_ORIGIN ["COM"]
properties('MP2/aug-cc-pvtz', properties = ['dipole'])
--------------------------------------------------------------------------

    Molecular point group: c1
  Charge       = 0
  Multiplicity = 1
  Basis Set: AUG-CC-PVTZ
    Blend: AUG-CC-PVTZ
  Basis Set: (AUG-CC-PVTZ AUX)
    Blend: AUG-CC-PVTZ-JKFIT

    Orbital Energies [Eh]
    ---------------------

    Doubly Occupied:

       1A    -20.613231     2A    -20.565655     3A    -20.553210
       4A    -11.389561     5A    -11.316159     6A    -11.312165
       7A    -11.256118     8A    -11.250745     9A     -1.457384
      10A     -1.379988    11A     -1.353949    12A     -1.106275
      13A     -1.026411    14A     -0.918789    15A     -0.863997
      16A     -0.760507    17A     -0.741533    18A     -0.708965
      19A     -0.687191    20A     -0.638302    21A     -0.628654
      22A     -0.622034    23A     -0.589381    24A     -0.573270
      25A     -0.557198    26A     -0.531489    27A     -0.520483
      28A     -0.497251    29A     -0.468888    30A     -0.450948
      31A     -0.444340

  @DF-RHF Final Energy:  -418.74331861445222

   => Energetics <=

    Nuclear Repulsion Energy =            400.9166977298634151
    One-Electron Energy =               -1367.7518905106537659
    Two-Electron Energy =                 548.0918741663381297
    Total Energy =                       -418.7433186144521642
  Basis Set: (AUG-CC-PVTZ AUX)
    Blend: AUG-CC-PVTZ-RI
    Molecular point group: c1

    Geometry (in Angstrom), charge = 0, multiplicity = 1:

       Center              X                  Y                   Z               Mass
    ------------   -----------------  -----------------  -----------------  -----------------
         O            0.709030645389    -1.361115155040    -0.004597192870    15.994914619570
         O           -1.888875354611     1.165131844960     0.230497807130    15.994914619570
         O           -1.497054354611    -1.405820155040    -0.401457192870    15.994914619570
         C            0.444656645389     1.480697844960    -0.344946192870    12.000000000000
         C            1.822164645389     0.785041844960    -0.353976192870    12.000000000000
         C           -0.588921354611     0.659150844960     0.433628807130    12.000000000000
         C            1.829518845389    -0.479579655040     0.462496907130    12.000000000000
         C           -0.515923354611    -0.789017155040    -0.019844192870    12.000000000000
         H            0.489549645389     2.483218844960     0.089173807130     1.007825032230
         H            0.053416645389     1.592304844960    -1.360070192870     1.007825032230
         H            2.116853645389     0.542283844960    -1.378899192870     1.007825032230
         H            2.603509645389     1.432368844960     0.058190807130     1.007825032230
         H           -0.347150354611     0.687338844960     1.508263807130     1.007825032230
         H            2.690814645389    -1.107976155040     0.294462807130     1.007825032230
         H            1.680673645389    -0.325043155040     1.521069807130     1.007825032230
         H           -2.422560354611     0.396081844960    -0.057766192870     1.007825032230

  Basis Set: AUG-CC-PVTZ
    Blend: AUG-CC-PVTZ
  Basis Set: (AUG-CC-PVTZ AUX)
    Blend: AUG-CC-PVTZ-JKFIT
	 Reference Energy          =    -418.7433186144522210 [Eh]
	 Singles Energy            =      -0.0000000000000000 [Eh]
	 Same-Spin Energy          =      -0.4127549344576072 [Eh]
	 Opposite-Spin Energy      =      -1.2933862795514799 [Eh]
	 Correlation Energy        =      -1.7061412140090870 [Eh]
	 Total Energy              =    -420.4494598284613289 [Eh]

	 ================> DF-SCS-MP2 Energies <==================
	-----------------------------------------------------------
	 SCS Same-Spin Scale       =       0.3333333333333333 [-]
	 SCS Opposite-Spin Scale   =       1.2000000000000000 [-]
	 SCS Same-Spin Energy      =      -0.1375849781525357 [Eh]
	 SCS Opposite-Spin Energy  =      -1.5520635354617758 [Eh]
	 SCS Correlation Energy    =      -1.6896485136143116 [Eh]
	 SCS Total Energy          =    -420.4329671280665366 [Eh]
	-----------------------------------------------------------

  Dipole Moment: [D]
     X:     4.0154      Y:     1.7325      Z:     1.0267     Total:     4.4922

*** Psi4 exiting successfully. Buy a developer a beer!
