                               Psi4 1.3.2 release

  ==> Input File <==

--------------------------------------------------------------------------
#psi4
#
memory 32 gb

molecule  {
0 1
  O        0.6578240    -1.4038190    -0.0084800
  O       -1.9400820     1.1224280     0.2266150
  O       -1.5482610    -1.4485240    -0.4053400
  C        0.3934500     1.4379940    -0.3488290
  C        1.7808677     0.7626719    -0.3724799
  C       -0.6401280     0.6164470     0.4297460
  C        1.7409690    -0.5516630     0.4430470
  C       -0.5671300    -0.8317210    -0.0237270
  H        0.4383430     2.4405150     0.0852910
  H        0.0022100     1.5496010    -1.3639530
  H        2.0656470     0.4995800    -1.3827820
  H        2.5523030     1.3896650     0.0543080
  H       -0.3983570     0.6446350     1.5043810
  H        2.6396080    -1.1506800     0.2905800
  H        1.6294670    -0.3677470     1.5171870
  H       -2.4737670     0.3533780    -0.0616490
units angstrom
no_reorient  #important for SAPT in psi4, default
symmetry c1  #important for SAPT in psi4, default
}

set PROPERTIES_ORIGIN ["COM"]
properties('MP2/aug-cc-pvtz', properties = ['dipole'])
--------------------------------------------------------------------------

    Molecular point group: c1
  Charge       = 0
  Multiplicity = 1
  Basis Set: AUG-CC-PVTZ
    Blend: AUG-CC-PVTZ
  Basis Set: (AUG-CC-PVTZ AUX)
    Blend: AUG-CC-PVTZ-JKFIT

    Orbital Energies [Eh]
    ---------------------

    Doubly Occupied:

       1A    -20.619287     2A    -20.566826     3A    -20.556442
       4A    -11.393040     5A    -11.314949     6A    -11.313429
       7A    -11.254097     8A    -11.249658     9A     -1.467644
      10A     -1.385068    11A     -1.358362    12A     -1.101561
      13A     -1.023162    14A     -0.919119    15A     -0.868159
      16A     -0.761733    17A     -0.744871    18A     -0.709688
      19A     -0.690325    20A     -0.641665    21A     -0.630524
      22A     -0.622554    23A     -0.592191    24A     -0.573219
      25A     -0.551509    26A     -0.533914    27A     -0.514574
      28A     -0.503640    29A     -0.469724    30A     -0.449459
      31A     -0.445388

  @DF-RHF Final Energy:  -418.74565402547125

   => Energetics <=

    Nuclear Repulsion Energy =            401.1921577395672784
    One-Electron Energy =               -1368.2240593123767667
    Two-Electron Energy =                 548.2862475473382347
    Total Energy =                       -418.7456540254712536
  Basis Set: (AUG-CC-PVTZ AUX)
    Blend: AUG-CC-PVTZ-RI
    Molecular point group: c1

    Geometry (in Angstrom), charge = 0, multiplicity = 1:

       Center              X                  Y                   Z               Mass
    ------------   -----------------  -----------------  -----------------  -----------------
         O            0.711867435860    -1.360179785077    -0.001475570374    15.994914619570
         O           -1.886038564140     1.166067214923     0.233619429626    15.994914619570
         O           -1.494217564140    -1.404884785077    -0.398335570374    15.994914619570
         C            0.447493435860     1.481633214923    -0.341824570374    12.000000000000
         C            1.834911135860     0.806311114923    -0.365475470374    12.000000000000
         C           -0.586084564140     0.660086214923     0.436750429626    12.000000000000
         C            1.795012435860    -0.508023785077     0.450051429626    12.000000000000
         C           -0.513086564140    -0.788081785077    -0.016722570374    12.000000000000
         H            0.492386435860     2.484154214923     0.092295429626     1.007825032230
         H            0.056253435860     1.593240214923    -1.356948570374     1.007825032230
         H            2.119690435860     0.543219214923    -1.375777570374     1.007825032230
         H            2.606346435860     1.433304214923     0.061312429626     1.007825032230
         H           -0.344313564140     0.688274214923     1.511385429626     1.007825032230
         H            2.693651435860    -1.107040785077     0.297584429626     1.007825032230
         H            1.683510435860    -0.324107785077     1.524191429626     1.007825032230
         H           -2.419723564140     0.397017214923    -0.054644570374     1.007825032230

  Basis Set: AUG-CC-PVTZ
    Blend: AUG-CC-PVTZ
  Basis Set: (AUG-CC-PVTZ AUX)
    Blend: AUG-CC-PVTZ-JKFIT
	 Reference Energy          =    -418.7456540254712536 [Eh]
	 Singles Energy            =      -0.0000000000000000 [Eh]
	 Same-Spin Energy          =      -0.4124515790016878 [Eh]
	 Opposite-Spin Energy      =      -1.2925874804123714 [Eh]
	 Correlation Energy        =      -1.7050390594140592 [Eh]
	 Total Energy              =    -420.4506930848853017 [Eh]

	 ================> DF-SCS-MP2 Energies <==================
	-----------------------------------------------------------
	 SCS Same-Spin Scale       =       0.3333333333333333 [-]
	 SCS Opposite-Spin Scale   =       1.2000000000000000 [-]
	 SCS Same-Spin Energy      =      -0.1374838596672293 [Eh]
	 SCS Opposite-Spin Energy  =      -1.5511049764948457 [Eh]
	 SCS Correlation Energy    =      -1.6885888361620749 [Eh]
	 SCS Total Energy          =    -420.4342428616333223 [Eh]
	-----------------------------------------------------------

  Dipole Moment: [D]
     X:     3.8572      Y:     1.6396      Z:     0.9831     Total:     4.3050

*** Psi4 exiting successfully. Buy a developer a beer!
