                               Psi4 1.3.2 release

  ==> Input File <==

--------------------------------------------------------------------------
#psi4
#
memory 32 gb

molecule  {
0 1
  O        0.6578240    -1.4038190    -0.0084800
  O       -1.9400820     1.1224280     0.2266150
  O       -1.5482610    -1.4485240    -0.4053400
  C        0.3934500     1.4379940    -0.3488290
  C        1.7709580     0.7423380    -0.3578590
  C       -0.6401280     0.6164470     0.4297460
  C        1.7409690    -0.5516630     0.4430470
  C       -0.3859306    -0.9163477    -0.0214716
  H        0.4383430     2.4405150     0.0852910
  H        0.0022100     1.5496010    -1.3639530
  H        2.0656470     0.4995800    -1.3827820
  H        2.5523030     1.3896650     0.0543080
  H       -0.3983570     0.6446350     1.5043810
  H        2.6396080    -1.1506800     0.2905800
  H        1.6294670    -0.3677470     1.5171870
  H       -2.4737670     0.3533780    -0.0616490
units angstrom
no_reorient  #important for SAPT in psi4, default
symmetry c1  #important for SAPT in psi4, default
}

set PROPERTIES_ORIGIN ["COM"]
properties('MP2/aug-cc-pvtz', properties = ['dipole'])
--------------------------------------------------------------------------

    Molecular point group: c1
  Charge       = 0
  Multiplicity = 1
  Basis Set: AUG-CC-PVTZ
    Blend: AUG-CC-PVTZ
  Basis Set: (AUG-CC-PVTZ AUX)
    Blend: AUG-CC-PVTZ-JKFIT

    Orbital Energies [Eh]
    ---------------------

    Doubly Occupied:

       1A    -20.664834     2A    -20.558678     3A    -20.513292
       4A    -11.389173     5A    -11.341485     6A    -11.310712
       7A    -11.267308     8A    -11.247464     9A     -1.581053
      10A     -1.365472    11A     -1.286312    12A     -1.122155
      13A     -1.038809    14A     -0.935275    15A     -0.881151
      16A     -0.779852    17A     -0.768603    18A     -0.732523
      19A     -0.698836    20A     -0.664841    21A     -0.625571
      22A     -0.617039    23A     -0.599414    24A     -0.583915
      25A     -0.558129    26A     -0.529592    27A     -0.515553
      28A     -0.473885    29A     -0.451387    30A     -0.427584
      31A     -0.409908

  @DF-RHF Final Energy:  -418.68457247892621

   => Energetics <=

    Nuclear Repulsion Energy =            402.3786884414731730
    One-Electron Energy =               -1370.2469089129917847
    Two-Electron Energy =                 549.1836479925923413
    Total Energy =                       -418.6845724789262704
  Basis Set: (AUG-CC-PVTZ AUX)
    Blend: AUG-CC-PVTZ-RI
    Molecular point group: c1

    Geometry (in Angstrom), charge = 0, multiplicity = 1:

       Center              X                  Y                   Z               Mass
    ------------   -----------------  -----------------  -----------------  -----------------
         O            0.694155040840    -1.349326221736    -0.003220682264    15.994914619570
         O           -1.903750959160     1.176920778264     0.231874317736    15.994914619570
         O           -1.511929959160    -1.394031221736    -0.400080682264    15.994914619570
         C            0.429781040840     1.492486778264    -0.343569682264    12.000000000000
         C            1.807289040840     0.796830778264    -0.352599682264    12.000000000000
         C           -0.603796959160     0.670939778264     0.435005317736    12.000000000000
         C            1.777300040840    -0.497170221736     0.448306317736    12.000000000000
         C           -0.349599559160    -0.861854921736    -0.016212282264    12.000000000000
         H            0.474674040840     2.495007778264     0.090550317736     1.007825032230
         H            0.038541040840     1.604093778264    -1.358693682264     1.007825032230
         H            2.101978040840     0.554072778264    -1.377522682264     1.007825032230
         H            2.588634040840     1.444157778264     0.059567317736     1.007825032230
         H           -0.362025959160     0.699127778264     1.509640317736     1.007825032230
         H            2.675939040840    -1.096187221736     0.295839317736     1.007825032230
         H            1.665798040840    -0.313254221736     1.522446317736     1.007825032230
         H           -2.437435959160     0.407870778264    -0.056389682264     1.007825032230

  Basis Set: AUG-CC-PVTZ
    Blend: AUG-CC-PVTZ
  Basis Set: (AUG-CC-PVTZ AUX)
    Blend: AUG-CC-PVTZ-JKFIT
	 Reference Energy          =    -418.6845724789262135 [Eh]
	 Singles Energy            =      -0.0000000000000000 [Eh]
	 Same-Spin Energy          =      -0.4135993431629570 [Eh]
	 Opposite-Spin Energy      =      -1.2935563176128042 [Eh]
	 Correlation Energy        =      -1.7071556607757612 [Eh]
	 Total Energy              =    -420.3917281397019678 [Eh]

	 ================> DF-SCS-MP2 Energies <==================
	-----------------------------------------------------------
	 SCS Same-Spin Scale       =       0.3333333333333333 [-]
	 SCS Opposite-Spin Scale   =       1.2000000000000000 [-]
	 SCS Same-Spin Energy      =      -0.1378664477209857 [Eh]
	 SCS Opposite-Spin Energy  =      -1.5522675811353650 [Eh]
	 SCS Correlation Energy    =      -1.6901340288563507 [Eh]
	 SCS Total Energy          =    -420.3747065077825482 [Eh]
	-----------------------------------------------------------

  Dipole Moment: [D]
     X:     5.5989      Y:     1.4942      Z:     1.1911     Total:     5.9160

*** Psi4 exiting successfully. Buy a developer a beer!
