                               Psi4 1.3.2 release

  ==> Input File <==

--------------------------------------------------------------------------
#psi4
#
memory 32 gb

molecule  {
0 1
  O        0.6578240    -1.4038190    -0.0084800
  O       -1.9400820     1.1224280     0.2266150
  O       -1.5482610    -1.4485240    -0.4053400
  C        0.3934500     1.4379940    -0.3488290
  C        1.7709580     0.7423380    -0.3578590
  C       -0.4556937     0.5446597     0.4585657
  C        1.7409690    -0.5516630     0.4430470
  C       -0.5671300    -0.8317210    -0.0237270
  H        0.4383430     2.4405150     0.0852910
  H        0.0022100     1.5496010    -1.3639530
  H        2.0656470     0.4995800    -1.3827820
  H        2.5523030     1.3896650     0.0543080
  H       -0.3983570     0.6446350     1.5043810
  H        2.6396080    -1.1506800     0.2905800
  H        1.6294670    -0.3677470     1.5171870
  H       -2.4737670     0.3533780    -0.0616490
units angstrom
no_reorient  #important for SAPT in psi4, default
symmetry c1  #important for SAPT in psi4, default
}

set PROPERTIES_ORIGIN ["COM"]
properties('MP2/aug-cc-pvtz', properties = ['dipole'])
--------------------------------------------------------------------------

    Molecular point group: c1
  Charge       = 0
  Multiplicity = 1
  Basis Set: AUG-CC-PVTZ
    Blend: AUG-CC-PVTZ
  Basis Set: (AUG-CC-PVTZ AUX)
    Blend: AUG-CC-PVTZ-JKFIT

    Orbital Energies [Eh]
    ---------------------

    Doubly Occupied:

       1A    -20.618628     2A    -20.563254     3A    -20.545880
       4A    -11.400006     5A    -11.318037     6A    -11.315994
       7A    -11.257169     8A    -11.255365     9A     -1.473734
      10A     -1.376738    11A     -1.304871    12A     -1.122481
      13A     -1.039916    14A     -0.931464    15A     -0.877078
      16A     -0.759378    17A     -0.747400    18A     -0.707822
      19A     -0.694930    20A     -0.642272    21A     -0.624909
      22A     -0.612723    23A     -0.604001    24A     -0.566728
      25A     -0.540641    26A     -0.533600    27A     -0.504818
      28A     -0.488488    29A     -0.466670    30A     -0.463031
      31A     -0.452654

  @DF-RHF Final Energy:  -418.70673764779622

   => Energetics <=

    Nuclear Repulsion Energy =            402.2208006324305529
    One-Electron Energy =               -1370.2337137389779400
    Two-Electron Energy =                 549.3061754587511132
    Total Energy =                       -418.7067376477962171
  Basis Set: (AUG-CC-PVTZ AUX)
    Blend: AUG-CC-PVTZ-RI
    Molecular point group: c1

    Geometry (in Angstrom), charge = 0, multiplicity = 1:

       Center              X                  Y                   Z               Mass
    ------------   -----------------  -----------------  -----------------  -----------------
         O            0.693820532538    -1.350653893654    -0.005967592177    15.994914619570
         O           -1.904085467462     1.175593106346     0.229127407823    15.994914619570
         O           -1.512264467462    -1.395358893654    -0.402827592177    15.994914619570
         C            0.429446532538     1.491159106346    -0.346316592177    12.000000000000
         C            1.806954532538     0.795503106346    -0.355346592177    12.000000000000
         C           -0.419697167462     0.597824806346     0.461078107823    12.000000000000
         C            1.776965532538    -0.498497893654     0.445559407823    12.000000000000
         C           -0.531133467462    -0.778555893654    -0.021214592177    12.000000000000
         H            0.474339532538     2.493680106346     0.087803407823     1.007825032230
         H            0.038206532538     1.602766106346    -1.361440592177     1.007825032230
         H            2.101643532538     0.552745106346    -1.380269592177     1.007825032230
         H            2.588299532538     1.442830106346     0.056820407823     1.007825032230
         H           -0.362360467462     0.697800106346     1.506893407823     1.007825032230
         H            2.675604532538    -1.097514893654     0.293092407823     1.007825032230
         H            1.665463532538    -0.314581893654     1.519699407823     1.007825032230
         H           -2.437770467462     0.406543106346    -0.059136592177     1.007825032230

  Basis Set: AUG-CC-PVTZ
    Blend: AUG-CC-PVTZ
  Basis Set: (AUG-CC-PVTZ AUX)
    Blend: AUG-CC-PVTZ-JKFIT
	 Reference Energy          =    -418.7067376477962171 [Eh]
	 Singles Energy            =      -0.0000000000000000 [Eh]
	 Same-Spin Energy          =      -0.4152681006501264 [Eh]
	 Opposite-Spin Energy      =      -1.2999531858875306 [Eh]
	 Correlation Energy        =      -1.7152212865376570 [Eh]
	 Total Energy              =    -420.4219589343338725 [Eh]

	 ================> DF-SCS-MP2 Energies <==================
	-----------------------------------------------------------
	 SCS Same-Spin Scale       =       0.3333333333333333 [-]
	 SCS Opposite-Spin Scale   =       1.2000000000000000 [-]
	 SCS Same-Spin Energy      =      -0.1384227002167088 [Eh]
	 SCS Opposite-Spin Energy  =      -1.5599438230650366 [Eh]
	 SCS Correlation Energy    =      -1.6983665232817455 [Eh]
	 SCS Total Energy          =    -420.4051041710779373 [Eh]
	-----------------------------------------------------------

  Dipole Moment: [D]
     X:     4.4100      Y:     1.4933      Z:     1.0027     Total:     4.7627

*** Psi4 exiting successfully. Buy a developer a beer!
