                               Psi4 1.3.2 release

  ==> Input File <==

--------------------------------------------------------------------------
#psi4
#
memory 32 gb

molecule  {
0 1
  O        0.6578240    -1.4038190    -0.0084800
  O       -1.8908097     1.2498670     0.2823221
  O       -1.5482610    -1.4485240    -0.4053400
  C        0.3934500     1.4379940    -0.3488290
  C        1.7709580     0.7423380    -0.3578590
  C       -0.6401280     0.6164470     0.4297460
  C        1.7409690    -0.5516630     0.4430470
  C       -0.5671300    -0.8317210    -0.0237270
  H        0.4383430     2.4405150     0.0852910
  H        0.0022100     1.5496010    -1.3639530
  H        2.0656470     0.4995800    -1.3827820
  H        2.5523030     1.3896650     0.0543080
  H       -0.3983570     0.6446350     1.5043810
  H        2.6396080    -1.1506800     0.2905800
  H        1.6294670    -0.3677470     1.5171870
  H       -2.4737670     0.3533780    -0.0616490
units angstrom
no_reorient  #important for SAPT in psi4, default
symmetry c1  #important for SAPT in psi4, default
}

set PROPERTIES_ORIGIN ["COM"]
properties('MP2/aug-cc-pvtz', properties = ['dipole'])
--------------------------------------------------------------------------

    Molecular point group: c1
  Charge       = 0
  Multiplicity = 1
  Basis Set: AUG-CC-PVTZ
    Blend: AUG-CC-PVTZ
  Basis Set: (AUG-CC-PVTZ AUX)
    Blend: AUG-CC-PVTZ-JKFIT

    Orbital Energies [Eh]
    ---------------------

    Doubly Occupied:

       1A    -20.622075     2A    -20.578625     3A    -20.561352
       4A    -11.397479     5A    -11.314379     6A    -11.310727
       7A    -11.252843     8A    -11.247351     9A     -1.470218
      10A     -1.379085    11A     -1.349628    12A     -1.100155
      13A     -1.021844    14A     -0.917132    15A     -0.867067
      16A     -0.749176    17A     -0.746776    18A     -0.704340
      19A     -0.691155    20A     -0.636835    21A     -0.624227
      22A     -0.616493    23A     -0.589943    24A     -0.574097
      25A     -0.556259    26A     -0.524017    27A     -0.515940
      28A     -0.500771    29A     -0.471607    30A     -0.449993
      31A     -0.443895

  @DF-RHF Final Energy:  -418.71986013438357

   => Energetics <=

    Nuclear Repulsion Energy =            400.3173102629529012
    One-Electron Energy =               -1366.5033716557927619
    Two-Electron Energy =                 547.4662012584562945
    Total Energy =                       -418.7198601343835662
  Basis Set: (AUG-CC-PVTZ AUX)
    Blend: AUG-CC-PVTZ-RI
    Molecular point group: c1

    Geometry (in Angstrom), charge = 0, multiplicity = 1:

       Center              X                  Y                   Z               Mass
    ------------   -----------------  -----------------  -----------------  -----------------
         O            0.706100911544    -1.375642173621    -0.010665622213    15.994914619570
         O           -1.842532788456     1.278043826379     0.280136477787    15.994914619570
         O           -1.499984088456    -1.420347173621    -0.407525622213    15.994914619570
         C            0.441726911544     1.466170826379    -0.351014622213    12.000000000000
         C            1.819234911544     0.770514826379    -0.360044622213    12.000000000000
         C           -0.591851088456     0.644623826379     0.427560377787    12.000000000000
         C            1.789245911544    -0.523486173621     0.440861377787    12.000000000000
         C           -0.518853088456    -0.803544173621    -0.025912622213    12.000000000000
         H            0.486619911544     2.468691826379     0.083105377787     1.007825032230
         H            0.050486911544     1.577777826379    -1.366138622213     1.007825032230
         H            2.113923911544     0.527756826379    -1.384967622213     1.007825032230
         H            2.600579911544     1.417841826379     0.052122377787     1.007825032230
         H           -0.350080088456     0.672811826379     1.502195377787     1.007825032230
         H            2.687884911544    -1.122503173621     0.288394377787     1.007825032230
         H            1.677743911544    -0.339570173621     1.515001377787     1.007825032230
         H           -2.425490088456     0.381554826379    -0.063834622213     1.007825032230

  Basis Set: AUG-CC-PVTZ
    Blend: AUG-CC-PVTZ
  Basis Set: (AUG-CC-PVTZ AUX)
    Blend: AUG-CC-PVTZ-JKFIT
	 Reference Energy          =    -418.7198601343835662 [Eh]
	 Singles Energy            =      -0.0000000000000000 [Eh]
	 Same-Spin Energy          =      -0.4150568149287815 [Eh]
	 Opposite-Spin Energy      =      -1.2984853754759555 [Eh]
	 Correlation Energy        =      -1.7135421904047372 [Eh]
	 Total Energy              =    -420.4334023247882897 [Eh]

	 ================> DF-SCS-MP2 Energies <==================
	-----------------------------------------------------------
	 SCS Same-Spin Scale       =       0.3333333333333333 [-]
	 SCS Opposite-Spin Scale   =       1.2000000000000000 [-]
	 SCS Same-Spin Energy      =      -0.1383522716429272 [Eh]
	 SCS Opposite-Spin Energy  =      -1.5581824505711466 [Eh]
	 SCS Correlation Energy    =      -1.6965347222140736 [Eh]
	 SCS Total Energy          =    -420.4163948565976625 [Eh]
	-----------------------------------------------------------

  Dipole Moment: [D]
     X:     3.7814      Y:     1.4117      Z:     0.8939     Total:     4.1342

*** Psi4 exiting successfully. Buy a developer a beer!
