                               Psi4 1.4a3.dev225

  ==> Input File <==

--------------------------------------------------------------------------
#psi4
#
memory 32 gb

molecule  {
0 1
  O        0.6578240    -1.4038190    -0.0084800
  O       -1.9400820     1.1224280     0.2266150
  O       -1.5482610    -1.4485240    -0.4053400
  C        0.3934500     1.4379940    -0.3488290
  C        1.7709580     0.7423380    -0.3578590
  C       -0.6585714     0.6236257     0.4268640
  C        1.7409690    -0.5516630     0.4430470
  C       -0.5671300    -0.8317210    -0.0237270
  H        0.4383430     2.4405150     0.0852910
  H        0.0022100     1.5496010    -1.3639530
  H        2.0656470     0.4995800    -1.3827820
  H        2.5523030     1.3896650     0.0543080
  H       -0.3983570     0.6446350     1.5043810
  H        2.6396080    -1.1506800     0.2905800
  H        1.6294670    -0.3677470     1.5171870
  H       -2.4737670     0.3533780    -0.0616490
units angstrom
no_reorient  #important for SAPT in psi4, default
symmetry c1  #important for SAPT in psi4, default
}

set PROPERTIES_ORIGIN ["COM"]
properties('MP2/aug-cc-pvtz', properties = ['dipole'])
--------------------------------------------------------------------------

    Molecular point group: c1
  Charge       = 0
  Multiplicity = 1
  Basis Set: AUG-CC-PVTZ
    Blend: AUG-CC-PVTZ
  Basis Set: (AUG-CC-PVTZ AUX)
    Blend: AUG-CC-PVTZ-JKFIT

    Orbital Energies [Eh]
    ---------------------

    Doubly Occupied:

       1A    -20.619116     2A    -20.568618     3A    -20.555836
       4A    -11.392464     5A    -11.313962     6A    -11.313660
       7A    -11.254511     8A    -11.249298     9A     -1.467512
      10A     -1.390333    11A     -1.361256    12A     -1.101756
      13A     -1.023548    14A     -0.917244    15A     -0.866710
      16A     -0.763575    17A     -0.745261    18A     -0.710540
      19A     -0.691249    20A     -0.642726    21A     -0.631714
      22A     -0.620596    23A     -0.591685    24A     -0.576255
      25A     -0.554937    26A     -0.531188    27A     -0.516843
      28A     -0.500766    29A     -0.470045    30A     -0.448091
      31A     -0.443375

  @DF-RHF Final Energy:  -418.74621475535434

   => Energetics <=

    Nuclear Repulsion Energy =            401.5628951437885803
    One-Electron Energy =               -1368.9488844515774417
    Two-Electron Energy =                 548.6397745524344600
    Total Energy =                       -418.7462147553543446
  Basis Set: (AUG-CC-PVTZ AUX)
    Blend: AUG-CC-PVTZ-RI
    Molecular point group: c1

    Geometry (in Angstrom), charge = 0, multiplicity = 1:

       Center              X                  Y                   Z               Mass
    ------------   -----------------  -----------------  -----------------  -----------------
         O            0.714799318555    -1.358819457521    -0.002689443910    15.994914619570
         O           -1.883106681445     1.167427542479     0.232405556090    15.994914619570
         O           -1.491285681445    -1.403524457521    -0.399549443910    15.994914619570
         C            0.450425318555     1.482993542479    -0.343038443910    12.000000000000
         C            1.827933318555     0.787337542479    -0.352068443910    12.000000000000
         C           -0.601596081445     0.668625242479     0.432654556090    12.000000000000
         C            1.797944318555    -0.506663457521     0.448837556090    12.000000000000
         C           -0.510154681445    -0.786721457521    -0.017936443910    12.000000000000
         H            0.495318318555     2.485514542479     0.091081556090     1.007825032230
         H            0.059185318555     1.594600542479    -1.358162443910     1.007825032230
         H            2.122622318555     0.544579542479    -1.376991443910     1.007825032230
         H            2.609278318555     1.434664542479     0.060098556090     1.007825032230
         H           -0.341381681445     0.689634542479     1.510171556090     1.007825032230
         H            2.696583318555    -1.105680457521     0.296370556090     1.007825032230
         H            1.686442318555    -0.322747457521     1.522977556090     1.007825032230
         H           -2.416791681445     0.398377542479    -0.055858443910     1.007825032230

  Basis Set: AUG-CC-PVTZ
    Blend: AUG-CC-PVTZ
  Basis Set: (AUG-CC-PVTZ AUX)
    Blend: AUG-CC-PVTZ-JKFIT
	 Reference Energy          =    -418.7462147553543446 [Eh]
	 Singles Energy            =      -0.0000000000000000 [Eh]
	 Same-Spin Energy          =      -0.4125043104763700 [Eh]
	 Opposite-Spin Energy      =      -1.2922740901903067 [Eh]
	 Correlation Energy        =      -1.7047784006666766 [Eh]
	 Total Energy              =    -420.4509931560210134 [Eh]

	 ================> DF-SCS-MP2 Energies <==================
	-----------------------------------------------------------
	 SCS Same-Spin Scale       =       0.3333333333333333 [-]
	 SCS Opposite-Spin Scale   =       1.2000000000000000 [-]
	 SCS Same-Spin Energy      =      -0.1375014368254567 [Eh]
	 SCS Opposite-Spin Energy  =      -1.5507289082283680 [Eh]
	 SCS Correlation Energy    =      -1.6882303450538245 [Eh]
	 SCS Total Energy          =    -420.4344451004081975 [Eh]
	-----------------------------------------------------------

  Dipole Moment: [D]
     X:     3.7915      Y:     1.6629      Z:     0.9764     Total:     4.2537

*** Psi4 exiting successfully. Buy a developer a beer!
