                               Psi4 1.3.2 release

  ==> Input File <==

--------------------------------------------------------------------------
#psi4
#
memory 32 gb

molecule  {
0 1
  O        0.6578240    -1.4038190    -0.0084800
  O       -1.9400820     1.1224280     0.2266150
  O       -1.5482610    -1.4485240    -0.4053400
  C        0.3934500     1.4379940    -0.3488290
  C        1.7709580     0.7423380    -0.3578590
  C       -0.6401280     0.6164470     0.4297460
  C        1.6369476    -0.4426144     0.4612565
  C       -0.5671300    -0.8317210    -0.0237270
  H        0.4383430     2.4405150     0.0852910
  H        0.0022100     1.5496010    -1.3639530
  H        2.0656470     0.4995800    -1.3827820
  H        2.5523030     1.3896650     0.0543080
  H       -0.3983570     0.6446350     1.5043810
  H        2.6396080    -1.1506800     0.2905800
  H        1.6294670    -0.3677470     1.5171870
  H       -2.4737670     0.3533780    -0.0616490
units angstrom
no_reorient  #important for SAPT in psi4, default
symmetry c1  #important for SAPT in psi4, default
}

set PROPERTIES_ORIGIN ["COM"]
properties('MP2/aug-cc-pvtz', properties = ['dipole'])
--------------------------------------------------------------------------

    Molecular point group: c1
  Charge       = 0
  Multiplicity = 1
  Basis Set: AUG-CC-PVTZ
    Blend: AUG-CC-PVTZ
  Basis Set: (AUG-CC-PVTZ AUX)
    Blend: AUG-CC-PVTZ-JKFIT

    Orbital Energies [Eh]
    ---------------------

    Doubly Occupied:

       1A    -20.625368     2A    -20.568313     3A    -20.557490
       4A    -11.392825     5A    -11.318003     6A    -11.315150
       7A    -11.253585     8A    -11.249471     9A     -1.473633
      10A     -1.387500    11A     -1.360406    12A     -1.118515
      13A     -1.024753    14A     -0.918990    15A     -0.867822
      16A     -0.765187    17A     -0.753602    18A     -0.705027
      19A     -0.699396    20A     -0.646864    21A     -0.631071
      22A     -0.608880    23A     -0.594459    24A     -0.573721
      25A     -0.569870    26A     -0.533386    27A     -0.504244
      28A     -0.494066    29A     -0.475533    30A     -0.456461
      31A     -0.437369

  @DF-RHF Final Energy:  -418.71909935260970

   => Energetics <=

    Nuclear Repulsion Energy =            403.6819960328334105
    One-Electron Energy =               -1373.0402719964934022
    Two-Electron Energy =                 550.6391766110501749
    Total Energy =                       -418.7190993526097600
  Basis Set: (AUG-CC-PVTZ AUX)
    Blend: AUG-CC-PVTZ-RI
    Molecular point group: c1

    Geometry (in Angstrom), charge = 0, multiplicity = 1:

       Center              X                  Y                   Z               Mass
    ------------   -----------------  -----------------  -----------------  -----------------
         O            0.723648603369    -1.369353423717    -0.004870433074    15.994914619570
         O           -1.874257396631     1.156893576283     0.230224566926    15.994914619570
         O           -1.482436396631    -1.414058423717    -0.401730433074    15.994914619570
         C            0.459274603369     1.472459576283    -0.345219433074    12.000000000000
         C            1.836782603369     0.776803576283    -0.354249433074    12.000000000000
         C           -0.574303396631     0.650912576283     0.433355566926    12.000000000000
         C            1.702772203369    -0.408148823717     0.464866066926    12.000000000000
         C           -0.501305396631    -0.797255423717    -0.020117433074    12.000000000000
         H            0.504167603369     2.474980576283     0.088900566926     1.007825032230
         H            0.068034603369     1.584066576283    -1.360343433074     1.007825032230
         H            2.131471603369     0.534045576283    -1.379172433074     1.007825032230
         H            2.618127603369     1.424130576283     0.057917566926     1.007825032230
         H           -0.332532396631     0.679100576283     1.507990566926     1.007825032230
         H            2.705432603369    -1.116214423717     0.294189566926     1.007825032230
         H            1.695291603369    -0.333281423717     1.520796566926     1.007825032230
         H           -2.407942396631     0.387843576283    -0.058039433074     1.007825032230

  Basis Set: AUG-CC-PVTZ
    Blend: AUG-CC-PVTZ
  Basis Set: (AUG-CC-PVTZ AUX)
    Blend: AUG-CC-PVTZ-JKFIT
	 Reference Energy          =    -418.7190993526097031 [Eh]
	 Singles Energy            =      -0.0000000000000000 [Eh]
	 Same-Spin Energy          =      -0.4145002403020649 [Eh]
	 Opposite-Spin Energy      =      -1.2960056655861214 [Eh]
	 Correlation Energy        =      -1.7105059058881864 [Eh]
	 Total Energy              =    -420.4296052584978725 [Eh]

	 ================> DF-SCS-MP2 Energies <==================
	-----------------------------------------------------------
	 SCS Same-Spin Scale       =       0.3333333333333333 [-]
	 SCS Opposite-Spin Scale   =       1.2000000000000000 [-]
	 SCS Same-Spin Energy      =      -0.1381667467673550 [Eh]
	 SCS Opposite-Spin Energy  =      -1.5552067987033455 [Eh]
	 SCS Correlation Energy    =      -1.6933735454707004 [Eh]
	 SCS Total Energy          =    -420.4124728980804093 [Eh]
	-----------------------------------------------------------

  Dipole Moment: [D]
     X:     3.6664      Y:     1.7981      Z:     0.9767     Total:     4.1988

*** Psi4 exiting successfully. Buy a developer a beer!
