                               Psi4 1.3.2 release

  ==> Input File <==

--------------------------------------------------------------------------
#psi4
#
memory 32 gb

molecule  {
0 1
  O        0.6578240    -1.4038190    -0.0084800
  O       -1.9400820     1.1224280     0.2266150
  O       -1.5482610    -1.4485240    -0.4053400
  C        0.3934500     1.4379940    -0.3488290
  C        1.7709580     0.7423380    -0.3578590
  C       -0.6326174     0.6389537     0.4362534
  C        1.7409690    -0.5516630     0.4430470
  C       -0.5671300    -0.8317210    -0.0237270
  H        0.4383430     2.4405150     0.0852910
  H        0.0022100     1.5496010    -1.3639530
  H        2.0656470     0.4995800    -1.3827820
  H        2.5523030     1.3896650     0.0543080
  H       -0.3983570     0.6446350     1.5043810
  H        2.6396080    -1.1506800     0.2905800
  H        1.6294670    -0.3677470     1.5171870
  H       -2.4737670     0.3533780    -0.0616490
units angstrom
no_reorient  #important for SAPT in psi4, default
symmetry c1  #important for SAPT in psi4, default
}

set PROPERTIES_ORIGIN ["COM"]
properties('MP2/aug-cc-pvtz', properties = ['dipole'])
--------------------------------------------------------------------------

    Molecular point group: c1
  Charge       = 0
  Multiplicity = 1
  Basis Set: AUG-CC-PVTZ
    Blend: AUG-CC-PVTZ
  Basis Set: (AUG-CC-PVTZ AUX)
    Blend: AUG-CC-PVTZ-JKFIT

    Orbital Energies [Eh]
    ---------------------

    Doubly Occupied:

       1A    -20.618560     2A    -20.565774     3A    -20.556631
       4A    -11.393068     5A    -11.314299     6A    -11.313605
       7A    -11.255078     8A    -11.249085     9A     -1.466980
      10A     -1.384074    11A     -1.358055    12A     -1.104683
      13A     -1.024504    14A     -0.916459    15A     -0.867365
      16A     -0.761388    17A     -0.744096    18A     -0.710856
      19A     -0.690569    20A     -0.643499    21A     -0.631127
      22A     -0.619977    23A     -0.593104    24A     -0.572982
      25A     -0.553475    26A     -0.531693    27A     -0.516557
      28A     -0.500806    29A     -0.470181    30A     -0.452158
      31A     -0.442339

  @DF-RHF Final Energy:  -418.74567445236681

   => Energetics <=

    Nuclear Repulsion Energy =            401.3984975336406933
    One-Electron Energy =               -1368.6422832266709975
    Two-Electron Energy =                 548.4981112406635475
    Total Energy =                       -418.7456744523667567
  Basis Set: (AUG-CC-PVTZ AUX)
    Blend: AUG-CC-PVTZ-RI
    Molecular point group: c1

    Geometry (in Angstrom), charge = 0, multiplicity = 1:

       Center              X                  Y                   Z               Mass
    ------------   -----------------  -----------------  -----------------  -----------------
         O            0.712115517367    -1.360404465790    -0.003660364881    15.994914619570
         O           -1.885790482633     1.165842534210     0.231434635119    15.994914619570
         O           -1.493969482633    -1.405109465790    -0.400520364881    15.994914619570
         C            0.447741517367     1.481408534210    -0.344009364881    12.000000000000
         C            1.825249517367     0.785752534210    -0.353039364881    12.000000000000
         C           -0.578325882633     0.682368234210     0.441073035119    12.000000000000
         C            1.795260517367    -0.508248465790     0.447866635119    12.000000000000
         C           -0.512838482633    -0.788306465790    -0.018907364881    12.000000000000
         H            0.492634517367     2.483929534210     0.090110635119     1.007825032230
         H            0.056501517367     1.593015534210    -1.359133364881     1.007825032230
         H            2.119938517367     0.542994534210    -1.377962364881     1.007825032230
         H            2.606594517367     1.433079534210     0.059127635119     1.007825032230
         H           -0.344065482633     0.688049534210     1.509200635119     1.007825032230
         H            2.693899517367    -1.107265465790     0.295399635119     1.007825032230
         H            1.683758517367    -0.324332465790     1.522006635119     1.007825032230
         H           -2.419475482633     0.396792534210    -0.056829364881     1.007825032230

  Basis Set: AUG-CC-PVTZ
    Blend: AUG-CC-PVTZ
  Basis Set: (AUG-CC-PVTZ AUX)
    Blend: AUG-CC-PVTZ-JKFIT
	 Reference Energy          =    -418.7456744523668135 [Eh]
	 Singles Energy            =      -0.0000000000000000 [Eh]
	 Same-Spin Energy          =      -0.4125071863185139 [Eh]
	 Opposite-Spin Energy      =      -1.2925561866788333 [Eh]
	 Correlation Energy        =      -1.7050633729973472 [Eh]
	 Total Energy              =    -420.4507378253641718 [Eh]

	 ================> DF-SCS-MP2 Energies <==================
	-----------------------------------------------------------
	 SCS Same-Spin Scale       =       0.3333333333333333 [-]
	 SCS Opposite-Spin Scale   =       1.2000000000000000 [-]
	 SCS Same-Spin Energy      =      -0.1375023954395046 [Eh]
	 SCS Opposite-Spin Energy  =      -1.5510674240145998 [Eh]
	 SCS Correlation Energy    =      -1.6885698194541046 [Eh]
	 SCS Total Energy          =    -420.4342442718209440 [Eh]
	-----------------------------------------------------------

  Dipole Moment: [D]
     X:     3.8704      Y:     1.6360      Z:     0.9796     Total:     4.3146

*** Psi4 exiting successfully. Buy a developer a beer!
