                               Psi4 1.3.2 release

  ==> Input File <==

--------------------------------------------------------------------------
#psi4
#
memory 32 gb

molecule  {
0 1
  O        0.6578240    -1.4038190    -0.0084800
  O       -1.9400820     1.1224280     0.2266150
  O       -1.5482610    -1.4485240    -0.4053400
  C        0.3934500     1.4379940    -0.3488290
  C        1.7709580     0.7423380    -0.3578590
  C       -0.6401280     0.6164470     0.4297460
  C        1.7409690    -0.5516630     0.4430470
  C       -0.5575203    -1.0223620    -0.0834235
  H        0.4383430     2.4405150     0.0852910
  H        0.0022100     1.5496010    -1.3639530
  H        2.0656470     0.4995800    -1.3827820
  H        2.5523030     1.3896650     0.0543080
  H       -0.3983570     0.6446350     1.5043810
  H        2.6396080    -1.1506800     0.2905800
  H        1.6294670    -0.3677470     1.5171870
  H       -2.4737670     0.3533780    -0.0616490
units angstrom
no_reorient  #important for SAPT in psi4, default
symmetry c1  #important for SAPT in psi4, default
}

set PROPERTIES_ORIGIN ["COM"]
properties('MP2/aug-cc-pvtz', properties = ['dipole'])
--------------------------------------------------------------------------

    Molecular point group: c1
  Charge       = 0
  Multiplicity = 1
  Basis Set: AUG-CC-PVTZ
    Blend: AUG-CC-PVTZ
  Basis Set: (AUG-CC-PVTZ AUX)
    Blend: AUG-CC-PVTZ-JKFIT

    Orbital Energies [Eh]
    ---------------------

    Doubly Occupied:

       1A    -20.622431     2A    -20.563340     3A    -20.554272
       4A    -11.386670     5A    -11.322661     6A    -11.291435
       7A    -11.251543     8A    -11.236189     9A     -1.506785
      10A     -1.434422    11A     -1.355878    12A     -1.097911
      13A     -1.012351    14A     -0.904359    15A     -0.851623
      16A     -0.753281    17A     -0.748108    18A     -0.719672
      19A     -0.699773    20A     -0.652596    21A     -0.642686
      22A     -0.617283    23A     -0.594283    24A     -0.579525
      25A     -0.554936    26A     -0.534055    27A     -0.514445
      28A     -0.504767    29A     -0.482804    30A     -0.438273
      31A     -0.391489

  @DF-RHF Final Energy:  -418.71470414199837

   => Energetics <=

    Nuclear Repulsion Energy =            401.1681363984960171
    One-Electron Energy =               -1368.1259824304424910
    Two-Electron Energy =                 548.2431418899481059
    Total Energy =                       -418.7147041419983680
  Basis Set: (AUG-CC-PVTZ AUX)
    Blend: AUG-CC-PVTZ-RI
    Molecular point group: c1

    Geometry (in Angstrom), charge = 0, multiplicity = 1:

       Center              X                  Y                   Z               Mass
    ------------   -----------------  -----------------  -----------------  -----------------
         O            0.711898457681    -1.338363699416     0.003185520357    15.994914619570
         O           -1.886007542319     1.187883300584     0.238280520357    15.994914619570
         O           -1.494186542319    -1.383068699416    -0.393674479643    15.994914619570
         C            0.447524457681     1.503449300584    -0.337163479643    12.000000000000
         C            1.825032457681     0.807793300584    -0.346193479643    12.000000000000
         C           -0.586053542319     0.681902300584     0.441411520357    12.000000000000
         C            1.795043457681    -0.486207699416     0.454712520357    12.000000000000
         C           -0.503445842319    -0.956906699416    -0.071757979643    12.000000000000
         H            0.492417457681     2.505970300584     0.096956520357     1.007825032230
         H            0.056284457681     1.615056300584    -1.352287479643     1.007825032230
         H            2.119721457681     0.565035300584    -1.371116479643     1.007825032230
         H            2.606377457681     1.455120300584     0.065973520357     1.007825032230
         H           -0.344282542319     0.710090300584     1.516046520357     1.007825032230
         H            2.693682457681    -1.085224699416     0.302245520357     1.007825032230
         H            1.683541457681    -0.302291699416     1.528852520357     1.007825032230
         H           -2.419692542319     0.418833300584    -0.049983479643     1.007825032230

  Basis Set: AUG-CC-PVTZ
    Blend: AUG-CC-PVTZ
  Basis Set: (AUG-CC-PVTZ AUX)
    Blend: AUG-CC-PVTZ-JKFIT
	 Reference Energy          =    -418.7147041419983680 [Eh]
	 Singles Energy            =      -0.0000000000000000 [Eh]
	 Same-Spin Energy          =      -0.4100160194882842 [Eh]
	 Opposite-Spin Energy      =      -1.2871031647898077 [Eh]
	 Correlation Energy        =      -1.6971191842780919 [Eh]
	 Total Energy              =    -420.4118233262764761 [Eh]

	 ================> DF-SCS-MP2 Energies <==================
	-----------------------------------------------------------
	 SCS Same-Spin Scale       =       0.3333333333333333 [-]
	 SCS Opposite-Spin Scale   =       1.2000000000000000 [-]
	 SCS Same-Spin Energy      =      -0.1366720064960947 [Eh]
	 SCS Opposite-Spin Energy  =      -1.5445237977477693 [Eh]
	 SCS Correlation Energy    =      -1.6811958042438639 [Eh]
	 SCS Total Energy          =    -420.3958999462422526 [Eh]
	-----------------------------------------------------------

  Dipole Moment: [D]
     X:     3.9440      Y:     0.6070      Z:     0.7300     Total:     4.0567

*** Psi4 exiting successfully. Buy a developer a beer!
