                               Psi4 1.3.2 release

  ==> Input File <==

--------------------------------------------------------------------------
#psi4
#
memory 32 gb

molecule  {
0 1
  O        0.7270915    -1.4744029    -0.0300842
  O       -1.9400820     1.1224280     0.2266150
  O       -1.5482610    -1.4485240    -0.4053400
  C        0.3934500     1.4379940    -0.3488290
  C        1.7709580     0.7423380    -0.3578590
  C       -0.6401280     0.6164470     0.4297460
  C        1.7409690    -0.5516630     0.4430470
  C       -0.5671300    -0.8317210    -0.0237270
  H        0.4383430     2.4405150     0.0852910
  H        0.0022100     1.5496010    -1.3639530
  H        2.0656470     0.4995800    -1.3827820
  H        2.5523030     1.3896650     0.0543080
  H       -0.3983570     0.6446350     1.5043810
  H        2.6396080    -1.1506800     0.2905800
  H        1.6294670    -0.3677470     1.5171870
  H       -2.4737670     0.3533780    -0.0616490
units angstrom
no_reorient  #important for SAPT in psi4, default
symmetry c1  #important for SAPT in psi4, default
}

set PROPERTIES_ORIGIN ["COM"]
properties('MP2/aug-cc-pvtz', properties = ['dipole'])
--------------------------------------------------------------------------

    Molecular point group: c1
  Charge       = 0
  Multiplicity = 1
  Basis Set: AUG-CC-PVTZ
    Blend: AUG-CC-PVTZ
  Basis Set: (AUG-CC-PVTZ AUX)
    Blend: AUG-CC-PVTZ-JKFIT

    Orbital Energies [Eh]
    ---------------------

    Doubly Occupied:

       1A    -20.615167     2A    -20.572174     3A    -20.570598
       4A    -11.403101     5A    -11.320145     6A    -11.305924
       7A    -11.252714     8A    -11.250945     9A     -1.446680
      10A     -1.383230    11A     -1.362200    12A     -1.102627
      13A     -1.017792    14A     -0.915567    15A     -0.859982
      16A     -0.764142    17A     -0.735621    18A     -0.708829
      19A     -0.687216    20A     -0.637905    21A     -0.627479
      22A     -0.616479    23A     -0.588210    24A     -0.573221
      25A     -0.553016    26A     -0.535030    27A     -0.518958
      28A     -0.504186    29A     -0.473779    30A     -0.452052
      31A     -0.446535

  @DF-RHF Final Energy:  -418.73252049958182

   => Energetics <=

    Nuclear Repulsion Energy =            398.8713250477201768
    One-Electron Energy =               -1363.6046824593324800
    Two-Electron Energy =                 546.0008369120305360
    Total Energy =                       -418.7325204995818240
  Basis Set: (AUG-CC-PVTZ AUX)
    Blend: AUG-CC-PVTZ-RI
    Molecular point group: c1

    Geometry (in Angstrom), charge = 0, multiplicity = 1:

       Center              X                  Y                   Z               Mass
    ------------   -----------------  -----------------  -----------------  -----------------
         O            0.772612454316    -1.418932391010    -0.021613932998    15.994914619570
         O           -1.894561045684     1.177898508990     0.235085267002    15.994914619570
         O           -1.502740045684    -1.393053491010    -0.396869732998    15.994914619570
         C            0.438970954316     1.493464508990    -0.340358732998    12.000000000000
         C            1.816478954316     0.797808508990    -0.349388732998    12.000000000000
         C           -0.594607045684     0.671917508990     0.438216267002    12.000000000000
         C            1.786489954316    -0.496192491010     0.451517267002    12.000000000000
         C           -0.521609045684    -0.776250491010    -0.015256732998    12.000000000000
         H            0.483863954316     2.495985508990     0.093761267002     1.007825032230
         H            0.047730954316     1.605071508990    -1.355482732998     1.007825032230
         H            2.111167954316     0.555050508990    -1.374311732998     1.007825032230
         H            2.597823954316     1.445135508990     0.062778267002     1.007825032230
         H           -0.352836045684     0.700105508990     1.512851267002     1.007825032230
         H            2.685128954316    -1.095209491010     0.299050267002     1.007825032230
         H            1.674987954316    -0.312276491010     1.525657267002     1.007825032230
         H           -2.428246045684     0.408848508990    -0.053178732998     1.007825032230

  Basis Set: AUG-CC-PVTZ
    Blend: AUG-CC-PVTZ
  Basis Set: (AUG-CC-PVTZ AUX)
    Blend: AUG-CC-PVTZ-JKFIT
	 Reference Energy          =    -418.7325204995818240 [Eh]
	 Singles Energy            =      -0.0000000000000000 [Eh]
	 Same-Spin Energy          =      -0.4138752322899532 [Eh]
	 Opposite-Spin Energy      =      -1.2969436355053139 [Eh]
	 Correlation Energy        =      -1.7108188677952669 [Eh]
	 Total Energy              =    -420.4433393673770638 [Eh]

	 ================> DF-SCS-MP2 Energies <==================
	-----------------------------------------------------------
	 SCS Same-Spin Scale       =       0.3333333333333333 [-]
	 SCS Opposite-Spin Scale   =       1.2000000000000000 [-]
	 SCS Same-Spin Energy      =      -0.1379584107633177 [Eh]
	 SCS Opposite-Spin Energy  =      -1.5563323626063765 [Eh]
	 SCS Correlation Energy    =      -1.6942907733696941 [Eh]
	 SCS Total Energy          =    -420.4268112729515110 [Eh]
	-----------------------------------------------------------

  Dipole Moment: [D]
     X:     3.2758      Y:     1.7960      Z:     0.9435     Total:     3.8531

*** Psi4 exiting successfully. Buy a developer a beer!
