                               Psi4 1.3.2 release

  ==> Input File <==

--------------------------------------------------------------------------
#psi4
#
memory 32 gb

molecule  {
0 1
  O        0.6917457    -1.3225025     0.0253281
  O       -1.9400820     1.1224280     0.2266150
  O       -1.5482610    -1.4485240    -0.4053400
  C        0.3934500     1.4379940    -0.3488290
  C        1.7709580     0.7423380    -0.3578590
  C       -0.6401280     0.6164470     0.4297460
  C        1.7409690    -0.5516630     0.4430470
  C       -0.5671300    -0.8317210    -0.0237270
  H        0.4383430     2.4405150     0.0852910
  H        0.0022100     1.5496010    -1.3639530
  H        2.0656470     0.4995800    -1.3827820
  H        2.5523030     1.3896650     0.0543080
  H       -0.3983570     0.6446350     1.5043810
  H        2.6396080    -1.1506800     0.2905800
  H        1.6294670    -0.3677470     1.5171870
  H       -2.4737670     0.3533780    -0.0616490
units angstrom
no_reorient  #important for SAPT in psi4, default
symmetry c1  #important for SAPT in psi4, default
}

set PROPERTIES_ORIGIN ["COM"]
properties('MP2/aug-cc-pvtz', properties = ['dipole'])
--------------------------------------------------------------------------

    Molecular point group: c1
  Charge       = 0
  Multiplicity = 1
  Basis Set: AUG-CC-PVTZ
    Blend: AUG-CC-PVTZ
  Basis Set: (AUG-CC-PVTZ AUX)
    Blend: AUG-CC-PVTZ-JKFIT

    Orbital Energies [Eh]
    ---------------------

    Doubly Occupied:

       1A    -20.618184     2A    -20.565469     3A    -20.563912
       4A    -11.399941     5A    -11.310531     6A    -11.307768
       7A    -11.249906     8A    -11.248223     9A     -1.484208
      10A     -1.394940    11A     -1.362985    12A     -1.099030
      13A     -1.034766    14A     -0.917897    15A     -0.876709
      16A     -0.759955    17A     -0.751031    18A     -0.716902
      19A     -0.698817    20A     -0.647721    21A     -0.644081
      22A     -0.616703    23A     -0.590335    24A     -0.570033
      25A     -0.552788    26A     -0.533809    27A     -0.513519
      28A     -0.503865    29A     -0.468674    30A     -0.448117
      31A     -0.442118

  @DF-RHF Final Energy:  -418.74271944252985

   => Energetics <=

    Nuclear Repulsion Energy =            403.5750815086113334
    One-Electron Energy =               -1372.8497253272789749
    Two-Electron Energy =                 550.5319243761377948
    Total Energy =                       -418.7427194425298467
  Basis Set: (AUG-CC-PVTZ AUX)
    Blend: AUG-CC-PVTZ-RI
    Molecular point group: c1

    Geometry (in Angstrom), charge = 0, multiplicity = 1:

       Center              X                  Y                   Z               Mass
    ------------   -----------------  -----------------  -----------------  -----------------
         O            0.742138399184    -1.287968566053     0.026160837560    15.994914619570
         O           -1.889689300816     1.156961933947     0.227447737560    15.994914619570
         O           -1.497868300816    -1.413990066053    -0.404507262440    15.994914619570
         C            0.443842699184     1.472527933947    -0.347996262440    12.000000000000
         C            1.821350699184     0.776871933947    -0.357026262440    12.000000000000
         C           -0.589735300816     0.650980933947     0.430578737560    12.000000000000
         C            1.791361699184    -0.517129066053     0.443879737560    12.000000000000
         C           -0.516737300816    -0.797187066053    -0.022894262440    12.000000000000
         H            0.488735699184     2.475048933947     0.086123737560     1.007825032230
         H            0.052602699184     1.584134933947    -1.363120262440     1.007825032230
         H            2.116039699184     0.534113933947    -1.381949262440     1.007825032230
         H            2.602695699184     1.424198933947     0.055140737560     1.007825032230
         H           -0.347964300816     0.679168933947     1.505213737560     1.007825032230
         H            2.690000699184    -1.116146066053     0.291412737560     1.007825032230
         H            1.679859699184    -0.333213066053     1.518019737560     1.007825032230
         H           -2.423374300816     0.387911933947    -0.060816262440     1.007825032230

  Basis Set: AUG-CC-PVTZ
    Blend: AUG-CC-PVTZ
  Basis Set: (AUG-CC-PVTZ AUX)
    Blend: AUG-CC-PVTZ-JKFIT
	 Reference Energy          =    -418.7427194425298467 [Eh]
	 Singles Energy            =      -0.0000000000000000 [Eh]
	 Same-Spin Energy          =      -0.4125571086971454 [Eh]
	 Opposite-Spin Energy      =      -1.2910950029614483 [Eh]
	 Correlation Energy        =      -1.7036521116585936 [Eh]
	 Total Energy              =    -420.4463715541884312 [Eh]

	 ================> DF-SCS-MP2 Energies <==================
	-----------------------------------------------------------
	 SCS Same-Spin Scale       =       0.3333333333333333 [-]
	 SCS Opposite-Spin Scale   =       1.2000000000000000 [-]
	 SCS Same-Spin Energy      =      -0.1375190362323818 [Eh]
	 SCS Opposite-Spin Energy  =      -1.5493140035537378 [Eh]
	 SCS Correlation Energy    =      -1.6868330397861195 [Eh]
	 SCS Total Energy          =    -420.4295524823159553 [Eh]
	-----------------------------------------------------------

  Dipole Moment: [D]
     X:     3.6712      Y:     1.4024      Z:     0.8986     Total:     4.0313

*** Psi4 exiting successfully. Buy a developer a beer!
