                               Psi4 1.3.2 release

  ==> Input File <==

--------------------------------------------------------------------------
#psi4
#
memory 32 gb

molecule  {
0 1
  O        0.6918187    -1.4396519    -0.0195639
  O       -1.9400820     1.1224280     0.2266150
  O       -1.5482610    -1.4485240    -0.4053400
  C        0.3934500     1.4379940    -0.3488290
  C        1.7709580     0.7423380    -0.3578590
  C       -0.6401280     0.6164470     0.4297460
  C        1.7409690    -0.5516630     0.4430470
  C       -0.5671300    -0.8317210    -0.0237270
  H        0.4383430     2.4405150     0.0852910
  H        0.0022100     1.5496010    -1.3639530
  H        2.0656470     0.4995800    -1.3827820
  H        2.5523030     1.3896650     0.0543080
  H       -0.3983570     0.6446350     1.5043810
  H        2.6396080    -1.1506800     0.2905800
  H        1.6294670    -0.3677470     1.5171870
  H       -2.4737670     0.3533780    -0.0616490
units angstrom
no_reorient  #important for SAPT in psi4, default
symmetry c1  #important for SAPT in psi4, default
}

set PROPERTIES_ORIGIN ["COM"]
properties('MP2/aug-cc-pvtz', properties = ['dipole'])
--------------------------------------------------------------------------

    Molecular point group: c1
  Charge       = 0
  Multiplicity = 1
  Basis Set: AUG-CC-PVTZ
    Blend: AUG-CC-PVTZ
  Basis Set: (AUG-CC-PVTZ AUX)
    Blend: AUG-CC-PVTZ-JKFIT

    Orbital Energies [Eh]
    ---------------------

    Doubly Occupied:

       1A    -20.617120     2A    -20.569466     3A    -20.563723
       4A    -11.398284     5A    -11.316768     6A    -11.309902
       7A    -11.253632     8A    -11.250405     9A     -1.455489
      10A     -1.384807    11A     -1.360805    12A     -1.102842
      13A     -1.021290    14A     -0.916803    15A     -0.863933
      16A     -0.762560    17A     -0.740198    18A     -0.709059
      19A     -0.689142    20A     -0.639309    21A     -0.629507
      22A     -0.618995    23A     -0.590477    24A     -0.572821
      25A     -0.553475    26A     -0.533195    27A     -0.517698
      28A     -0.503087    29A     -0.472164    30A     -0.451393
      31A     -0.446431

  @DF-RHF Final Energy:  -418.74086466392498

   => Energetics <=

    Nuclear Repulsion Energy =            400.2155011238810971
    One-Electron Energy =               -1366.2831706989475151
    Two-Electron Energy =                 547.3268049111414939
    Total Energy =                       -418.7408646639249810
  Basis Set: (AUG-CC-PVTZ AUX)
    Blend: AUG-CC-PVTZ-RI
    Molecular point group: c1

    Geometry (in Angstrom), charge = 0, multiplicity = 1:

       Center              X                  Y                   Z               Mass
    ------------   -----------------  -----------------  -----------------  -----------------
         O            0.742201337526    -1.388971154034    -0.012543655844    15.994914619570
         O           -1.889699362474     1.173108745966     0.233635244156    15.994914619570
         O           -1.497878362474    -1.397843254034    -0.398319755844    15.994914619570
         C            0.443832637526     1.488674745966    -0.341808755844    12.000000000000
         C            1.821340637526     0.793018745966    -0.350838755844    12.000000000000
         C           -0.589745362474     0.667127745966     0.436766244156    12.000000000000
         C            1.791351637526    -0.500982254034     0.450067244156    12.000000000000
         C           -0.516747362474    -0.781040254034    -0.016706755844    12.000000000000
         H            0.488725637526     2.491195745966     0.092311244156     1.007825032230
         H            0.052592637526     1.600281745966    -1.356932755844     1.007825032230
         H            2.116029637526     0.550260745966    -1.375761755844     1.007825032230
         H            2.602685637526     1.440345745966     0.061328244156     1.007825032230
         H           -0.347974362474     0.695315745966     1.511401244156     1.007825032230
         H            2.689990637526    -1.099999254034     0.297600244156     1.007825032230
         H            1.679849637526    -0.317066254034     1.524207244156     1.007825032230
         H           -2.423384362474     0.404058745966    -0.054628755844     1.007825032230

  Basis Set: AUG-CC-PVTZ
    Blend: AUG-CC-PVTZ
  Basis Set: (AUG-CC-PVTZ AUX)
    Blend: AUG-CC-PVTZ-JKFIT
	 Reference Energy          =    -418.7408646639249810 [Eh]
	 Singles Energy            =      -0.0000000000000000 [Eh]
	 Same-Spin Energy          =      -0.4131800922579703 [Eh]
	 Opposite-Spin Energy      =      -1.2946991028002071 [Eh]
	 Correlation Energy        =      -1.7078791950581773 [Eh]
	 Total Energy              =    -420.4487438589831640 [Eh]

	 ================> DF-SCS-MP2 Energies <==================
	-----------------------------------------------------------
	 SCS Same-Spin Scale       =       0.3333333333333333 [-]
	 SCS Opposite-Spin Scale   =       1.2000000000000000 [-]
	 SCS Same-Spin Energy      =      -0.1377266974193234 [Eh]
	 SCS Opposite-Spin Energy  =      -1.5536389233602483 [Eh]
	 SCS Correlation Energy    =      -1.6913656207795718 [Eh]
	 SCS Total Energy          =    -420.4322302847045307 [Eh]
	-----------------------------------------------------------

  Dipole Moment: [D]
     X:     3.5633      Y:     1.7207      Z:     0.9626     Total:     4.0724

*** Psi4 exiting successfully. Buy a developer a beer!
