                               Psi4 1.3.2 release

  ==> Input File <==

--------------------------------------------------------------------------
#psi4
#
memory 32 gb

molecule  {
0 1
  O        0.6413190    -1.3855104    -0.0027309
  O       -1.9400820     1.1224280     0.2266150
  O       -1.5482610    -1.4485240    -0.4053400
  C        0.3934500     1.4379940    -0.3488290
  C        1.7709580     0.7423380    -0.3578590
  C       -0.6401280     0.6164470     0.4297460
  C        1.7409690    -0.5516630     0.4430470
  C       -0.5671300    -0.8317210    -0.0237270
  H        0.4383430     2.4405150     0.0852910
  H        0.0022100     1.5496010    -1.3639530
  H        2.0656470     0.4995800    -1.3827820
  H        2.5523030     1.3896650     0.0543080
  H       -0.3983570     0.6446350     1.5043810
  H        2.6396080    -1.1506800     0.2905800
  H        1.6294670    -0.3677470     1.5171870
  H       -2.4737670     0.3533780    -0.0616490
units angstrom
no_reorient  #important for SAPT in psi4, default
symmetry c1  #important for SAPT in psi4, default
}

set PROPERTIES_ORIGIN ["COM"]
properties('MP2/aug-cc-pvtz', properties = ['dipole'])
--------------------------------------------------------------------------

    Molecular point group: c1
  Charge       = 0
  Multiplicity = 1
  Basis Set: AUG-CC-PVTZ
    Blend: AUG-CC-PVTZ
  Basis Set: (AUG-CC-PVTZ AUX)
    Blend: AUG-CC-PVTZ-JKFIT

    Orbital Energies [Eh]
    ---------------------

    Doubly Occupied:

       1A    -20.619984     2A    -20.565119     3A    -20.552773
       4A    -11.390379     5A    -11.316652     6A    -11.311302
       7A    -11.255268     8A    -11.249541     9A     -1.475312
      10A     -1.384719    11A     -1.356969    12A     -1.103992
      13A     -1.027460    14A     -0.919619    15A     -0.869462
      16A     -0.760402    17A     -0.748086    18A     -0.711317
      19A     -0.692915    20A     -0.642868    21A     -0.632259
      22A     -0.620058    23A     -0.593602    24A     -0.572691
      25A     -0.554524    26A     -0.531334    27A     -0.516142
      28A     -0.499603    29A     -0.468906    30A     -0.449666
      31A     -0.444333

  @DF-RHF Final Energy:  -418.74737537785535

   => Energetics <=

    Nuclear Repulsion Energy =            402.3132010027196088
    One-Electron Energy =               -1370.4466421088545758
    Two-Electron Energy =                 549.3860657282796183
    Total Energy =                       -418.7473753778554055
  Basis Set: (AUG-CC-PVTZ AUX)
    Blend: AUG-CC-PVTZ-RI
    Molecular point group: c1

    Geometry (in Angstrom), charge = 0, multiplicity = 1:

       Center              X                  Y                   Z               Mass
    ------------   -----------------  -----------------  -----------------  -----------------
         O            0.698662058688    -1.342292027917     0.001969235929    15.994914619570
         O           -1.882738941312     1.165646372083     0.231315135929    15.994914619570
         O           -1.490917941312    -1.405305627917    -0.400639864071    15.994914619570
         C            0.450793058688     1.481212372083    -0.344128864071    12.000000000000
         C            1.828301058688     0.785556372083    -0.353158864071    12.000000000000
         C           -0.582784941312     0.659665372083     0.434446135929    12.000000000000
         C            1.798312058688    -0.508444627917     0.447747135929    12.000000000000
         C           -0.509786941312    -0.788502627917    -0.019026864071    12.000000000000
         H            0.495686058688     2.483733372083     0.089991135929     1.007825032230
         H            0.059553058688     1.592819372083    -1.359252864071     1.007825032230
         H            2.122990058688     0.542798372083    -1.378081864071     1.007825032230
         H            2.609646058688     1.432883372083     0.059008135929     1.007825032230
         H           -0.341013941312     0.687853372083     1.509081135929     1.007825032230
         H            2.696951058688    -1.107461627917     0.295280135929     1.007825032230
         H            1.686810058688    -0.324528627917     1.521887135929     1.007825032230
         H           -2.416423941312     0.396596372083    -0.056948864071     1.007825032230

  Basis Set: AUG-CC-PVTZ
    Blend: AUG-CC-PVTZ
  Basis Set: (AUG-CC-PVTZ AUX)
    Blend: AUG-CC-PVTZ-JKFIT
	 Reference Energy          =    -418.7473753778553487 [Eh]
	 Singles Energy            =      -0.0000000000000000 [Eh]
	 Same-Spin Energy          =      -0.4123112496286219 [Eh]
	 Opposite-Spin Energy      =      -1.2917358015861318 [Eh]
	 Correlation Energy        =      -1.7040470512147536 [Eh]
	 Total Energy              =    -420.4514224290700781 [Eh]

	 ================> DF-SCS-MP2 Energies <==================
	-----------------------------------------------------------
	 SCS Same-Spin Scale       =       0.3333333333333333 [-]
	 SCS Opposite-Spin Scale   =       1.2000000000000000 [-]
	 SCS Same-Spin Energy      =      -0.1374370832095406 [Eh]
	 SCS Opposite-Spin Energy  =      -1.5500829619033580 [Eh]
	 SCS Correlation Energy    =      -1.6875200451128987 [Eh]
	 SCS Total Energy          =    -420.4348954229682249 [Eh]
	-----------------------------------------------------------

  Dipole Moment: [D]
     X:     4.0062      Y:     1.6076      Z:     0.9936     Total:     4.4296

*** Psi4 exiting successfully. Buy a developer a beer!
