                               Psi4 1.3.2 release

  ==> Input File <==

--------------------------------------------------------------------------
#psi4
#
memory 32 gb

molecule  {
0 1
  O        0.7068957    -1.2799711     0.0392908
  O       -1.9400820     1.1224280     0.2266150
  O       -1.5482610    -1.4485240    -0.4053400
  C        0.3934500     1.4379940    -0.3488290
  C        1.7709580     0.7423380    -0.3578590
  C       -0.6401280     0.6164470     0.4297460
  C        1.7409690    -0.5516630     0.4430470
  C       -0.5671300    -0.8317210    -0.0237270
  H        0.4383430     2.4405150     0.0852910
  H        0.0022100     1.5496010    -1.3639530
  H        2.0656470     0.4995800    -1.3827820
  H        2.5523030     1.3896650     0.0543080
  H       -0.3983570     0.6446350     1.5043810
  H        2.6396080    -1.1506800     0.2905800
  H        1.6294670    -0.3677470     1.5171870
  H       -2.4737670     0.3533780    -0.0616490
units angstrom
no_reorient  #important for SAPT in psi4, default
symmetry c1  #important for SAPT in psi4, default
}

set PROPERTIES_ORIGIN ["COM"]
properties('MP2/aug-cc-pvtz', properties = ['dipole'])
--------------------------------------------------------------------------

    Molecular point group: c1
  Charge       = 0
  Multiplicity = 1
  Basis Set: AUG-CC-PVTZ
    Blend: AUG-CC-PVTZ
  Basis Set: (AUG-CC-PVTZ AUX)
    Blend: AUG-CC-PVTZ-JKFIT

    Orbital Energies [Eh]
    ---------------------

    Doubly Occupied:

       1A    -20.617329     2A    -20.567676     3A    -20.564885
       4A    -11.403816     5A    -11.309267     6A    -11.304816
       7A    -11.247691     8A    -11.247091     9A     -1.494575
      10A     -1.400345    11A     -1.363997    12A     -1.096775
      13A     -1.041174    14A     -0.918395    15A     -0.880044
      16A     -0.759989    17A     -0.754221    18A     -0.721343
      19A     -0.702385    20A     -0.652876    21A     -0.647971
      22A     -0.615164    23A     -0.588908    24A     -0.568556
      25A     -0.552522    26A     -0.534697    27A     -0.511802
      28A     -0.504852    29A     -0.467144    30A     -0.446582
      31A     -0.439665

  @DF-RHF Final Energy:  -418.73525330930761

   => Energetics <=

    Nuclear Repulsion Energy =            404.6357820035518102
    One-Electron Energy =               -1374.8889589443415389
    Two-Electron Energy =                 551.5179236314820628
    Total Energy =                       -418.7352533093076090
  Basis Set: (AUG-CC-PVTZ AUX)
    Blend: AUG-CC-PVTZ-RI
    Molecular point group: c1

    Geometry (in Angstrom), charge = 0, multiplicity = 1:

       Center              X                  Y                   Z               Mass
    ------------   -----------------  -----------------  -----------------  -----------------
         O            0.755200260431    -1.251299308929     0.038199045483    15.994914619570
         O           -1.891777439569     1.151099791071     0.225523245483    15.994914619570
         O           -1.499956439569    -1.419852208929    -0.406431754517    15.994914619570
         C            0.441754560431     1.466665791071    -0.349920754517    12.000000000000
         C            1.819262560431     0.771009791071    -0.358950754517    12.000000000000
         C           -0.591823439569     0.645118791071     0.428654245483    12.000000000000
         C            1.789273560431    -0.522991208929     0.441955245483    12.000000000000
         C           -0.518825439569    -0.803049208929    -0.024818754517    12.000000000000
         H            0.486647560431     2.469186791071     0.084199245483     1.007825032230
         H            0.050514560431     1.578272791071    -1.365044754517     1.007825032230
         H            2.113951560431     0.528251791071    -1.383873754517     1.007825032230
         H            2.600607560431     1.418336791071     0.053216245483     1.007825032230
         H           -0.350052439569     0.673306791071     1.503289245483     1.007825032230
         H            2.687912560431    -1.122008208929     0.289488245483     1.007825032230
         H            1.677771560431    -0.339075208929     1.516095245483     1.007825032230
         H           -2.425462439569     0.382049791071    -0.062740754517     1.007825032230

  Basis Set: AUG-CC-PVTZ
    Blend: AUG-CC-PVTZ
  Basis Set: (AUG-CC-PVTZ AUX)
    Blend: AUG-CC-PVTZ-JKFIT
	 Reference Energy          =    -418.7352533093076090 [Eh]
	 Singles Energy            =      -0.0000000000000000 [Eh]
	 Same-Spin Energy          =      -0.4127747391618565 [Eh]
	 Opposite-Spin Energy      =      -1.2907316884612712 [Eh]
	 Correlation Energy        =      -1.7035064276231275 [Eh]
	 Total Energy              =    -420.4387597369307628 [Eh]

	 ================> DF-SCS-MP2 Energies <==================
	-----------------------------------------------------------
	 SCS Same-Spin Scale       =       0.3333333333333333 [-]
	 SCS Opposite-Spin Scale   =       1.2000000000000000 [-]
	 SCS Same-Spin Energy      =      -0.1375915797206188 [Eh]
	 SCS Opposite-Spin Energy  =      -1.5488780261535253 [Eh]
	 SCS Correlation Energy    =      -1.6864696058741442 [Eh]
	 SCS Total Energy          =    -420.4217229151817605 [Eh]
	-----------------------------------------------------------

  Dipole Moment: [D]
     X:     3.5685      Y:     1.2707      Z:     0.8550     Total:     3.8833

*** Psi4 exiting successfully. Buy a developer a beer!
