                               Psi4 1.4a3.dev225

  ==> Input File <==

--------------------------------------------------------------------------
#psi4
#
memory 32 gb

molecule  {
0 1
  O        0.6578240    -1.4038190    -0.0084800
  O       -1.9400820     1.1224280     0.2266150
  O       -1.5482610    -1.4485240    -0.4053400
  C        0.3934500     1.4379940    -0.3488290
  C        1.7709580     0.7423380    -0.3578590
  C       -0.6401280     0.6164470     0.4297460
  C        1.7409690    -0.5516630     0.4430470
  C       -0.5490101    -0.8401837    -0.0235015
  H        0.4383430     2.4405150     0.0852910
  H        0.0022100     1.5496010    -1.3639530
  H        2.0656470     0.4995800    -1.3827820
  H        2.5523030     1.3896650     0.0543080
  H       -0.3983570     0.6446350     1.5043810
  H        2.6396080    -1.1506800     0.2905800
  H        1.6294670    -0.3677470     1.5171870
  H       -2.4737670     0.3533780    -0.0616490
units angstrom
no_reorient  #important for SAPT in psi4, default
symmetry c1  #important for SAPT in psi4, default
}

set PROPERTIES_ORIGIN ["COM"]
properties('MP2/aug-cc-pvtz', properties = ['dipole'])
--------------------------------------------------------------------------

    Molecular point group: c1
  Charge       = 0
  Multiplicity = 1
  Basis Set: AUG-CC-PVTZ
    Blend: AUG-CC-PVTZ
  Basis Set: (AUG-CC-PVTZ AUX)
    Blend: AUG-CC-PVTZ-JKFIT

    Orbital Energies [Eh]
    ---------------------

    Doubly Occupied:

       1A    -20.623654     2A    -20.565814     3A    -20.552574
       4A    -11.393012     5A    -11.316893     6A    -11.312824
       7A    -11.255846     8A    -11.249537     9A     -1.474114
      10A     -1.383496    11A     -1.353811    12A     -1.104665
      13A     -1.026154    14A     -0.919462    15A     -0.869325
      16A     -0.760871    17A     -0.747859    18A     -0.710150
      19A     -0.692655    20A     -0.643391    21A     -0.629484
      22A     -0.619806    23A     -0.595246    24A     -0.573381
      25A     -0.553679    26A     -0.530762    27A     -0.516518
      28A     -0.499916    29A     -0.469013    30A     -0.449113
      31A     -0.443783

  @DF-RHF Final Energy:  -418.74551644806672

   => Energetics <=

    Nuclear Repulsion Energy =            401.6366740040112973
    One-Electron Energy =               -1369.0907638097403378
    Two-Electron Energy =                 548.7085733576623170
    Total Energy =                       -418.7455164480667236
  Basis Set: (AUG-CC-PVTZ AUX)
    Blend: AUG-CC-PVTZ-RI
    Molecular point group: c1

    Geometry (in Angstrom), charge = 0, multiplicity = 1:

       Center              X                  Y                   Z               Mass
    ------------   -----------------  -----------------  -----------------  -----------------
         O            0.711018451329    -1.357202041790    -0.003010778279    15.994914619570
         O           -1.886887548671     1.169044958210     0.232084221721    15.994914619570
         O           -1.495066548671    -1.401907041790    -0.399870778279    15.994914619570
         C            0.446644451329     1.484610958210    -0.343359778279    12.000000000000
         C            1.824152451329     0.788954958210    -0.352389778279    12.000000000000
         C           -0.586933548671     0.663063958210     0.435215221721    12.000000000000
         C            1.794163451329    -0.505046041790     0.448516221721    12.000000000000
         C           -0.495815648671    -0.793566741790    -0.018032278279    12.000000000000
         H            0.491537451329     2.487131958210     0.090760221721     1.007825032230
         H            0.055404451329     1.596217958210    -1.358483778279     1.007825032230
         H            2.118841451329     0.546196958210    -1.377312778279     1.007825032230
         H            2.605497451329     1.436281958210     0.059777221721     1.007825032230
         H           -0.345162548671     0.691251958210     1.509850221721     1.007825032230
         H            2.692802451329    -1.104063041790     0.296049221721     1.007825032230
         H            1.682661451329    -0.321130041790     1.522656221721     1.007825032230
         H           -2.420572548671     0.399994958210    -0.056179778279     1.007825032230

  Basis Set: AUG-CC-PVTZ
    Blend: AUG-CC-PVTZ
  Basis Set: (AUG-CC-PVTZ AUX)
    Blend: AUG-CC-PVTZ-JKFIT
	 Reference Energy          =    -418.7455164480667236 [Eh]
	 Singles Energy            =      -0.0000000000000000 [Eh]
	 Same-Spin Energy          =      -0.4126282926348707 [Eh]
	 Opposite-Spin Energy      =      -1.2926446903797677 [Eh]
	 Correlation Energy        =      -1.7052729830146385 [Eh]
	 Total Energy              =    -420.4507894310813754 [Eh]

	 ================> DF-SCS-MP2 Energies <==================
	-----------------------------------------------------------
	 SCS Same-Spin Scale       =       0.3333333333333333 [-]
	 SCS Opposite-Spin Scale   =       1.2000000000000000 [-]
	 SCS Same-Spin Energy      =      -0.1375427642116235 [Eh]
	 SCS Opposite-Spin Energy  =      -1.5511736284557212 [Eh]
	 SCS Correlation Energy    =      -1.6887163926673447 [Eh]
	 SCS Total Energy          =    -420.4342328407340688 [Eh]
	-----------------------------------------------------------

  Dipole Moment: [D]
     X:     4.0261      Y:     1.6223      Z:     1.0013     Total:     4.4546

*** Psi4 exiting successfully. Buy a developer a beer!
