                               Psi4 1.3.2 release

  ==> Input File <==

--------------------------------------------------------------------------
#psi4
#
memory 32 gb

molecule  {
0 1
  O        0.6578240    -1.4038190    -0.0084800
  O       -1.9400820     1.1224280     0.2266150
  O       -1.5482610    -1.4485240    -0.4053400
  C        0.3934500     1.4379940    -0.3488290
  C        1.8080496     0.8248829    -0.4162818
  C       -0.6401280     0.6164470     0.4297460
  C        1.7409690    -0.5516630     0.4430470
  C       -0.5671300    -0.8317210    -0.0237270
  H        0.4383430     2.4405150     0.0852910
  H        0.0022100     1.5496010    -1.3639530
  H        2.0656470     0.4995800    -1.3827820
  H        2.5523030     1.3896650     0.0543080
  H       -0.3983570     0.6446350     1.5043810
  H        2.6396080    -1.1506800     0.2905800
  H        1.6294670    -0.3677470     1.5171870
  H       -2.4737670     0.3533780    -0.0616490
units angstrom
no_reorient  #important for SAPT in psi4, default
symmetry c1  #important for SAPT in psi4, default
}

set PROPERTIES_ORIGIN ["COM"]
properties('MP2/aug-cc-pvtz', properties = ['dipole'])
--------------------------------------------------------------------------

    Molecular point group: c1
  Charge       = 0
  Multiplicity = 1
  Basis Set: AUG-CC-PVTZ
    Blend: AUG-CC-PVTZ
  Basis Set: (AUG-CC-PVTZ AUX)
    Blend: AUG-CC-PVTZ-JKFIT

    Orbital Energies [Eh]
    ---------------------

    Doubly Occupied:

       1A    -20.619982     2A    -20.567542     3A    -20.556295
       4A    -11.392898     5A    -11.316490     6A    -11.314304
       7A    -11.253476     8A    -11.249680     9A     -1.467048
      10A     -1.385100    11A     -1.358312    12A     -1.097028
      13A     -1.017601    14A     -0.921003    15A     -0.869570
      16A     -0.763688    17A     -0.743663    18A     -0.708358
      19A     -0.687394    20A     -0.642074    21A     -0.632535
      22A     -0.627309    23A     -0.590491    24A     -0.574890
      25A     -0.545630    26A     -0.539693    27A     -0.513771
      28A     -0.503694    29A     -0.468950    30A     -0.448445
      31A     -0.440629

  @DF-RHF Final Energy:  -418.73650465239422

   => Energetics <=

    Nuclear Repulsion Energy =            400.0052605708741567
    One-Electron Energy =               -1365.8484498082157188
    Two-Electron Energy =                 547.1066845849472884
    Total Energy =                       -418.7365046523942738
  Basis Set: (AUG-CC-PVTZ AUX)
    Blend: AUG-CC-PVTZ-RI
    Molecular point group: c1

    Geometry (in Angstrom), charge = 0, multiplicity = 1:

       Center              X                  Y                   Z               Mass
    ------------   -----------------  -----------------  -----------------  -----------------
         O            0.709056662356    -1.366612780211     0.003053812043    15.994914619570
         O           -1.888849337644     1.159634219789     0.238148812043    15.994914619570
         O           -1.497028337644    -1.411317780211    -0.393806187957    15.994914619570
         C            0.444682662356     1.475200219789    -0.337295187957    12.000000000000
         C            1.859282262356     0.862089119789    -0.404747987957    12.000000000000
         C           -0.588895337644     0.653653219789     0.441279812043    12.000000000000
         C            1.792201662356    -0.514456780211     0.454580812043    12.000000000000
         C           -0.515897337644    -0.794514780211    -0.012193187957    12.000000000000
         H            0.489575662356     2.477721219789     0.096824812043     1.007825032230
         H            0.053442662356     1.586807219789    -1.352419187957     1.007825032230
         H            2.116879662356     0.536786219789    -1.371248187957     1.007825032230
         H            2.603535662356     1.426871219789     0.065841812043     1.007825032230
         H           -0.347124337644     0.681841219789     1.515914812043     1.007825032230
         H            2.690840662356    -1.113473780211     0.302113812043     1.007825032230
         H            1.680699662356    -0.330540780211     1.528720812043     1.007825032230
         H           -2.422534337644     0.390584219789    -0.050115187957     1.007825032230

  Basis Set: AUG-CC-PVTZ
    Blend: AUG-CC-PVTZ
  Basis Set: (AUG-CC-PVTZ AUX)
    Blend: AUG-CC-PVTZ-JKFIT
	 Reference Energy          =    -418.7365046523942169 [Eh]
	 Singles Energy            =      -0.0000000000000000 [Eh]
	 Same-Spin Energy          =      -0.4123966975889568 [Eh]
	 Opposite-Spin Energy      =      -1.2929671533771465 [Eh]
	 Correlation Energy        =      -1.7053638509661033 [Eh]
	 Total Energy              =    -420.4418685033602969 [Eh]

	 ================> DF-SCS-MP2 Energies <==================
	-----------------------------------------------------------
	 SCS Same-Spin Scale       =       0.3333333333333333 [-]
	 SCS Opposite-Spin Scale   =       1.2000000000000000 [-]
	 SCS Same-Spin Energy      =      -0.1374655658629856 [Eh]
	 SCS Opposite-Spin Energy  =      -1.5515605840525757 [Eh]
	 SCS Correlation Energy    =      -1.6890261499155612 [Eh]
	 SCS Total Energy          =    -420.4255308023097655 [Eh]
	-----------------------------------------------------------

  Dipole Moment: [D]
     X:     3.8513      Y:     1.6212      Z:     0.9862     Total:     4.2934

*** Psi4 exiting successfully. Buy a developer a beer!
