                               Psi4 1.3.2 release

  ==> Input File <==

--------------------------------------------------------------------------
#psi4
#
memory 32 gb

molecule  {
0 1
  O        0.6578240    -1.4038190    -0.0084800
  O       -1.9277038     1.1060326     0.1303902
  O       -1.5482610    -1.4485240    -0.4053400
  C        0.3934500     1.4379940    -0.3488290
  C        1.7709580     0.7423380    -0.3578590
  C       -0.6401280     0.6164470     0.4297460
  C        1.7409690    -0.5516630     0.4430470
  C       -0.5671300    -0.8317210    -0.0237270
  H        0.4383430     2.4405150     0.0852910
  H        0.0022100     1.5496010    -1.3639530
  H        2.0656470     0.4995800    -1.3827820
  H        2.5523030     1.3896650     0.0543080
  H       -0.3983570     0.6446350     1.5043810
  H        2.6396080    -1.1506800     0.2905800
  H        1.6294670    -0.3677470     1.5171870
  H       -2.4737670     0.3533780    -0.0616490
units angstrom
no_reorient  #important for SAPT in psi4, default
symmetry c1  #important for SAPT in psi4, default
}

set PROPERTIES_ORIGIN ["COM"]
properties('MP2/aug-cc-pvtz', properties = ['dipole'])
--------------------------------------------------------------------------

    Molecular point group: c1
  Charge       = 0
  Multiplicity = 1
  Basis Set: AUG-CC-PVTZ
    Blend: AUG-CC-PVTZ
  Basis Set: (AUG-CC-PVTZ AUX)
    Blend: AUG-CC-PVTZ-JKFIT

    Orbital Energies [Eh]
    ---------------------

    Doubly Occupied:

       1A    -20.617940     2A    -20.563707     3A    -20.554998
       4A    -11.391599     5A    -11.314152     6A    -11.313964
       7A    -11.253903     8A    -11.249004     9A     -1.467149
      10A     -1.388769    11A     -1.359177    12A     -1.103377
      13A     -1.025953    14A     -0.918913    15A     -0.867701
      16A     -0.761245    17A     -0.744625    18A     -0.715175
      19A     -0.691697    20A     -0.647022    21A     -0.629916
      22A     -0.619923    23A     -0.591671    24A     -0.571959
      25A     -0.552256    26A     -0.530066    27A     -0.516331
      28A     -0.500112    29A     -0.470408    30A     -0.452219
      31A     -0.443881

  @DF-RHF Final Energy:  -418.74618553630523

   => Energetics <=

    Nuclear Repulsion Energy =            402.3341235795750777
    One-Electron Energy =               -1370.5029908582030203
    Two-Electron Energy =                 549.4226817423226521
    Total Energy =                       -418.7461855363052337
  Basis Set: (AUG-CC-PVTZ AUX)
    Blend: AUG-CC-PVTZ-RI
    Molecular point group: c1

    Geometry (in Angstrom), charge = 0, multiplicity = 1:

       Center              X                  Y                   Z               Mass
    ------------   -----------------  -----------------  -----------------  -----------------
         O            0.711186060058    -1.355817342946     0.010275294505    15.994914619570
         O           -1.874341739942     1.154034257054     0.149145494505    15.994914619570
         O           -1.494898939942    -1.400522342946    -0.386584705495    15.994914619570
         C            0.446812060058     1.485995657054    -0.330073705495    12.000000000000
         C            1.824320060058     0.790339657054    -0.339103705495    12.000000000000
         C           -0.586765939942     0.664448657054     0.448501294505    12.000000000000
         C            1.794331060058    -0.503661342946     0.461802294505    12.000000000000
         C           -0.513767939942    -0.783719342946    -0.004971705495    12.000000000000
         H            0.491705060058     2.488516657054     0.104046294505     1.007825032230
         H            0.055572060058     1.597602657054    -1.345197705495     1.007825032230
         H            2.119009060058     0.547581657054    -1.364026705495     1.007825032230
         H            2.605665060058     1.437666657054     0.073063294505     1.007825032230
         H           -0.344994939942     0.692636657054     1.523136294505     1.007825032230
         H            2.692970060058    -1.102678342946     0.309335294505     1.007825032230
         H            1.682829060058    -0.319745342946     1.535942294505     1.007825032230
         H           -2.420404939942     0.401379657054    -0.042893705495     1.007825032230

  Basis Set: AUG-CC-PVTZ
    Blend: AUG-CC-PVTZ
  Basis Set: (AUG-CC-PVTZ AUX)
    Blend: AUG-CC-PVTZ-JKFIT
	 Reference Energy          =    -418.7461855363052337 [Eh]
	 Singles Energy            =      -0.0000000000000000 [Eh]
	 Same-Spin Energy          =      -0.4121996453001880 [Eh]
	 Opposite-Spin Energy      =      -1.2917298557712034 [Eh]
	 Correlation Energy        =      -1.7039295010713913 [Eh]
	 Total Energy              =    -420.4501150373766336 [Eh]

	 ================> DF-SCS-MP2 Energies <==================
	-----------------------------------------------------------
	 SCS Same-Spin Scale       =       0.3333333333333333 [-]
	 SCS Opposite-Spin Scale   =       1.2000000000000000 [-]
	 SCS Same-Spin Energy      =      -0.1373998817667293 [Eh]
	 SCS Opposite-Spin Energy  =      -1.5500758269254440 [Eh]
	 SCS Correlation Energy    =      -1.6874757086921732 [Eh]
	 SCS Total Energy          =    -420.4336612449973813 [Eh]
	-----------------------------------------------------------

  Dipole Moment: [D]
     X:     3.7973      Y:     1.6790      Z:     1.1784     Total:     4.3159

*** Psi4 exiting successfully. Buy a developer a beer!
