                               Psi4 1.4a3.dev225

  ==> Input File <==

--------------------------------------------------------------------------
#psi4
#
memory 32 gb

molecule  {
0 1
  O        0.6578240    -1.4038190    -0.0084800
  O       -1.9400820     1.1224280     0.2266150
  O       -1.5482610    -1.4485240    -0.4053400
  C        0.3934500     1.4379940    -0.3488290
  C        1.7709580     0.7423380    -0.3578590
  C       -0.6401280     0.6164470     0.4297460
  C        1.7409690    -0.5516630     0.4430470
  C       -0.5832125    -0.8418315    -0.0299823
  H        0.4383430     2.4405150     0.0852910
  H        0.0022100     1.5496010    -1.3639530
  H        2.0656470     0.4995800    -1.3827820
  H        2.5523030     1.3896650     0.0543080
  H       -0.3983570     0.6446350     1.5043810
  H        2.6396080    -1.1506800     0.2905800
  H        1.6294670    -0.3677470     1.5171870
  H       -2.4737670     0.3533780    -0.0616490
units angstrom
no_reorient  #important for SAPT in psi4, default
symmetry c1  #important for SAPT in psi4, default
}

set PROPERTIES_ORIGIN ["COM"]
properties('MP2/aug-cc-pvtz', properties = ['dipole'])
--------------------------------------------------------------------------

    Molecular point group: c1
  Charge       = 0
  Multiplicity = 1
  Basis Set: AUG-CC-PVTZ
    Blend: AUG-CC-PVTZ
  Basis Set: (AUG-CC-PVTZ AUX)
    Blend: AUG-CC-PVTZ-JKFIT

    Orbital Energies [Eh]
    ---------------------

    Doubly Occupied:

       1A    -20.614721     2A    -20.566316     3A    -20.560330
       4A    -11.391729     5A    -11.312548     6A    -11.312466
       7A    -11.253325     8A    -11.248852     9A     -1.467684
      10A     -1.387897    11A     -1.364398    12A     -1.101348
      13A     -1.022491    14A     -0.915491    15A     -0.865454
      16A     -0.760175    17A     -0.743642    18A     -0.710911
      19A     -0.690924    20A     -0.641437    21A     -0.634284
      22A     -0.619688    23A     -0.590645    24A     -0.571905
      25A     -0.556350    26A     -0.532327    27A     -0.516662
      28A     -0.502735    29A     -0.471196    30A     -0.450716
      31A     -0.443345

  @DF-RHF Final Energy:  -418.74726577536740

   => Energetics <=

    Nuclear Repulsion Energy =            401.5378042934506198
    One-Electron Energy =               -1368.9261559441956706
    Two-Electron Energy =                 548.6410858753777120
    Total Energy =                       -418.7472657753673957
  Basis Set: (AUG-CC-PVTZ AUX)
    Blend: AUG-CC-PVTZ-RI
    Molecular point group: c1

    Geometry (in Angstrom), charge = 0, multiplicity = 1:

       Center              X                  Y                   Z               Mass
    ------------   -----------------  -----------------  -----------------  -----------------
         O            0.714555187160    -1.357031649264    -0.002340624208    15.994914619570
         O           -1.883350812840     1.169215350736     0.232754375792    15.994914619570
         O           -1.491529812840    -1.401736649264    -0.399200624208    15.994914619570
         C            0.450181187160     1.484781350736    -0.342689624208    12.000000000000
         C            1.827689187160     0.789125350736    -0.351719624208    12.000000000000
         C           -0.583396812840     0.663234350736     0.435885375792    12.000000000000
         C            1.797700187160    -0.504875649264     0.449186375792    12.000000000000
         C           -0.526481312840    -0.795044149264    -0.023842924208    12.000000000000
         H            0.495074187160     2.487302350736     0.091430375792     1.007825032230
         H            0.058941187160     1.596388350736    -1.357813624208     1.007825032230
         H            2.122378187160     0.546367350736    -1.376642624208     1.007825032230
         H            2.609034187160     1.436452350736     0.060447375792     1.007825032230
         H           -0.341625812840     0.691422350736     1.510520375792     1.007825032230
         H            2.696339187160    -1.103892649264     0.296719375792     1.007825032230
         H            1.686198187160    -0.320959649264     1.523326375792     1.007825032230
         H           -2.417035812840     0.400165350736    -0.055509624208     1.007825032230

  Basis Set: AUG-CC-PVTZ
    Blend: AUG-CC-PVTZ
  Basis Set: (AUG-CC-PVTZ AUX)
    Blend: AUG-CC-PVTZ-JKFIT
	 Reference Energy          =    -418.7472657753673957 [Eh]
	 Singles Energy            =      -0.0000000000000000 [Eh]
	 Same-Spin Energy          =      -0.4120701148229863 [Eh]
	 Opposite-Spin Energy      =      -1.2917497121879808 [Eh]
	 Correlation Energy        =      -1.7038198270109670 [Eh]
	 Total Energy              =    -420.4510856023783845 [Eh]

	 ================> DF-SCS-MP2 Energies <==================
	-----------------------------------------------------------
	 SCS Same-Spin Scale       =       0.3333333333333333 [-]
	 SCS Opposite-Spin Scale   =       1.2000000000000000 [-]
	 SCS Same-Spin Energy      =      -0.1373567049409954 [Eh]
	 SCS Opposite-Spin Energy  =      -1.5500996546255770 [Eh]
	 SCS Correlation Energy    =      -1.6874563595665724 [Eh]
	 SCS Total Energy          =    -420.4347221349339634 [Eh]
	-----------------------------------------------------------

  Dipole Moment: [D]
     X:     3.7053      Y:     1.5849      Z:     0.9460     Total:     4.1396

*** Psi4 exiting successfully. Buy a developer a beer!
