                               Psi4 1.3.2 release

  ==> Input File <==

--------------------------------------------------------------------------
#psi4
#
memory 32 gb

molecule  {
0 1
  O        0.6578240    -1.4038190    -0.0084800
  O       -1.9005252     1.1910589     0.1682514
  O       -1.5482610    -1.4485240    -0.4053400
  C        0.3934500     1.4379940    -0.3488290
  C        1.7709580     0.7423380    -0.3578590
  C       -0.6401280     0.6164470     0.4297460
  C        1.7409690    -0.5516630     0.4430470
  C       -0.5671300    -0.8317210    -0.0237270
  H        0.4383430     2.4405150     0.0852910
  H        0.0022100     1.5496010    -1.3639530
  H        2.0656470     0.4995800    -1.3827820
  H        2.5523030     1.3896650     0.0543080
  H       -0.3983570     0.6446350     1.5043810
  H        2.6396080    -1.1506800     0.2905800
  H        1.6294670    -0.3677470     1.5171870
  H       -2.4737670     0.3533780    -0.0616490
units angstrom
no_reorient  #important for SAPT in psi4, default
symmetry c1  #important for SAPT in psi4, default
}

set PROPERTIES_ORIGIN ["COM"]
properties('MP2/aug-cc-pvtz', properties = ['dipole'])
--------------------------------------------------------------------------

    Molecular point group: c1
  Charge       = 0
  Multiplicity = 1
  Basis Set: AUG-CC-PVTZ
    Blend: AUG-CC-PVTZ
  Basis Set: (AUG-CC-PVTZ AUX)
    Blend: AUG-CC-PVTZ-JKFIT

    Orbital Energies [Eh]
    ---------------------

    Doubly Occupied:

       1A    -20.620004     2A    -20.572678     3A    -20.558266
       4A    -11.394559     5A    -11.314046     6A    -11.312127
       7A    -11.252667     8A    -11.247321     9A     -1.468578
      10A     -1.381059    11A     -1.355449    12A     -1.100907
      13A     -1.023143    14A     -0.917584    15A     -0.867251
      16A     -0.752079    17A     -0.745742    18A     -0.708791
      19A     -0.691963    20A     -0.639034    21A     -0.629346
      22A     -0.619114    23A     -0.590525    24A     -0.572960
      25A     -0.554045    26A     -0.526654    27A     -0.516521
      28A     -0.500296    29A     -0.470866    30A     -0.451068
      31A     -0.444444

  @DF-RHF Final Energy:  -418.73759268171278

   => Energetics <=

    Nuclear Repulsion Energy =            401.3854585177523973
    One-Electron Energy =               -1368.6479298583387845
    Two-Electron Energy =                 548.5248786588737175
    Total Energy =                       -418.7375926817127265
  Basis Set: (AUG-CC-PVTZ AUX)
    Blend: AUG-CC-PVTZ-RI
    Molecular point group: c1

    Geometry (in Angstrom), charge = 0, multiplicity = 1:

       Center              X                  Y                   Z               Mass
    ------------   -----------------  -----------------  -----------------  -----------------
         O            0.707440008050    -1.367536597870     0.005056849688    15.994914619570
         O           -1.850909191950     1.227341302130     0.181788249688    15.994914619570
         O           -1.498644991950    -1.412241597870    -0.391803150312    15.994914619570
         C            0.443066008050     1.474276402130    -0.335292150312    12.000000000000
         C            1.820574008050     0.778620402130    -0.344322150312    12.000000000000
         C           -0.590511991950     0.652729402130     0.443282849688    12.000000000000
         C            1.790585008050    -0.515380597870     0.456583849688    12.000000000000
         C           -0.517513991950    -0.795438597870    -0.010190150312    12.000000000000
         H            0.487959008050     2.476797402130     0.098827849688     1.007825032230
         H            0.051826008050     1.585883402130    -1.350416150312     1.007825032230
         H            2.115263008050     0.535862402130    -1.369245150312     1.007825032230
         H            2.601919008050     1.425947402130     0.067844849688     1.007825032230
         H           -0.348740991950     0.680917402130     1.517917849688     1.007825032230
         H            2.689224008050    -1.114397597870     0.304116849688     1.007825032230
         H            1.679083008050    -0.331464597870     1.530723849688     1.007825032230
         H           -2.424150991950     0.389660402130    -0.048112150312     1.007825032230

  Basis Set: AUG-CC-PVTZ
    Blend: AUG-CC-PVTZ
  Basis Set: (AUG-CC-PVTZ AUX)
    Blend: AUG-CC-PVTZ-JKFIT
	 Reference Energy          =    -418.7375926817127834 [Eh]
	 Singles Energy            =      -0.0000000000000000 [Eh]
	 Same-Spin Energy          =      -0.4136831738615013 [Eh]
	 Opposite-Spin Energy      =      -1.2951267022447677 [Eh]
	 Correlation Energy        =      -1.7088098761062689 [Eh]
	 Total Energy              =    -420.4464025578190558 [Eh]

	 ================> DF-SCS-MP2 Energies <==================
	-----------------------------------------------------------
	 SCS Same-Spin Scale       =       0.3333333333333333 [-]
	 SCS Opposite-Spin Scale   =       1.2000000000000000 [-]
	 SCS Same-Spin Energy      =      -0.1378943912871671 [Eh]
	 SCS Opposite-Spin Energy  =      -1.5541520426937212 [Eh]
	 SCS Correlation Energy    =      -1.6920464339808883 [Eh]
	 SCS Total Energy          =    -420.4296391156936465 [Eh]
	-----------------------------------------------------------

  Dipole Moment: [D]
     X:     3.7504      Y:     1.5239      Z:     1.1062     Total:     4.1966

*** Psi4 exiting successfully. Buy a developer a beer!
