                               Psi4 1.3.2 release

  ==> Input File <==

--------------------------------------------------------------------------
#psi4
#
memory 32 gb

molecule  {
0 1
  O        0.6578240    -1.4038190    -0.0084800
  O       -1.9874905     1.0149675     0.3159257
  O       -1.5482610    -1.4485240    -0.4053400
  C        0.3934500     1.4379940    -0.3488290
  C        1.7709580     0.7423380    -0.3578590
  C       -0.6401280     0.6164470     0.4297460
  C        1.7409690    -0.5516630     0.4430470
  C       -0.5671300    -0.8317210    -0.0237270
  H        0.4383430     2.4405150     0.0852910
  H        0.0022100     1.5496010    -1.3639530
  H        2.0656470     0.4995800    -1.3827820
  H        2.5523030     1.3896650     0.0543080
  H       -0.3983570     0.6446350     1.5043810
  H        2.6396080    -1.1506800     0.2905800
  H        1.6294670    -0.3677470     1.5171870
  H       -2.4737670     0.3533780    -0.0616490
units angstrom
no_reorient  #important for SAPT in psi4, default
symmetry c1  #important for SAPT in psi4, default
}

set PROPERTIES_ORIGIN ["COM"]
properties('MP2/aug-cc-pvtz', properties = ['dipole'])
--------------------------------------------------------------------------

    Molecular point group: c1
  Charge       = 0
  Multiplicity = 1
  Basis Set: AUG-CC-PVTZ
    Blend: AUG-CC-PVTZ
  Basis Set: (AUG-CC-PVTZ AUX)
    Blend: AUG-CC-PVTZ-JKFIT

    Orbital Energies [Eh]
    ---------------------

    Doubly Occupied:

       1A    -20.617397     2A    -20.557701     3A    -20.553783
       4A    -11.390666     5A    -11.314952     6A    -11.314500
       7A    -11.257390     8A    -11.253517     9A     -1.466878
      10A     -1.394590    11A     -1.360004    12A     -1.106968
      13A     -1.028359    14A     -0.921076    15A     -0.867889
      16A     -0.776685    17A     -0.744544    18A     -0.710418
      19A     -0.690315    20A     -0.645936    21A     -0.632010
      22A     -0.621023    23A     -0.595867    24A     -0.571958
      25A     -0.553765    26A     -0.536652    27A     -0.517668
      28A     -0.500477    29A     -0.468438    30A     -0.449576
      31A     -0.445455

  @DF-RHF Final Energy:  -418.74327816086458

   => Energetics <=

    Nuclear Repulsion Energy =            402.0700161563434563
    One-Electron Energy =               -1369.8936759467862885
    Two-Electron Energy =                 549.0803816295782553
    Total Energy =                       -418.7432781608646337
  Basis Set: (AUG-CC-PVTZ AUX)
    Blend: AUG-CC-PVTZ-RI
    Molecular point group: c1

    Geometry (in Angstrom), charge = 0, multiplicity = 1:

       Center              X                  Y                   Z               Mass
    ------------   -----------------  -----------------  -----------------  -----------------
         O            0.719426517168    -1.343265754537    -0.015297238016    15.994914619570
         O           -1.925887982832     1.075520745463     0.309108461984    15.994914619570
         O           -1.486658482832    -1.387970754537    -0.412157238016    15.994914619570
         C            0.455052517168     1.498547245463    -0.355646238016    12.000000000000
         C            1.832560517168     0.802891245463    -0.364676238016    12.000000000000
         C           -0.578525482832     0.677000245463     0.422928761984    12.000000000000
         C            1.802571517168    -0.491109754537     0.436229761984    12.000000000000
         C           -0.505527482832    -0.771167754537    -0.030544238016    12.000000000000
         H            0.499945517168     2.501068245463     0.078473761984     1.007825032230
         H            0.063812517168     1.610154245463    -1.370770238016     1.007825032230
         H            2.127249517168     0.560133245463    -1.389599238016     1.007825032230
         H            2.613905517168     1.450218245463     0.047490761984     1.007825032230
         H           -0.336754482832     0.705188245463     1.497563761984     1.007825032230
         H            2.701210517168    -1.090126754537     0.283762761984     1.007825032230
         H            1.691069517168    -0.307193754537     1.510369761984     1.007825032230
         H           -2.412164482832     0.413931245463    -0.068466238016     1.007825032230

  Basis Set: AUG-CC-PVTZ
    Blend: AUG-CC-PVTZ
  Basis Set: (AUG-CC-PVTZ AUX)
    Blend: AUG-CC-PVTZ-JKFIT
	 Reference Energy          =    -418.7432781608645769 [Eh]
	 Singles Energy            =      -0.0000000000000000 [Eh]
	 Same-Spin Energy          =      -0.4114286959579313 [Eh]
	 Opposite-Spin Energy      =      -1.2901428594505253 [Eh]
	 Correlation Energy        =      -1.7015715554084565 [Eh]
	 Total Energy              =    -420.4448497162730405 [Eh]

	 ================> DF-SCS-MP2 Energies <==================
	-----------------------------------------------------------
	 SCS Same-Spin Scale       =       0.3333333333333333 [-]
	 SCS Opposite-Spin Scale   =       1.2000000000000000 [-]
	 SCS Same-Spin Energy      =      -0.1371428986526438 [Eh]
	 SCS Opposite-Spin Energy  =      -1.5481714313406303 [Eh]
	 SCS Correlation Energy    =      -1.6853143299932740 [Eh]
	 SCS Total Energy          =    -420.4285924908578522 [Eh]
	-----------------------------------------------------------

  Dipole Moment: [D]
     X:     3.9997      Y:     1.8539      Z:     0.7786     Total:     4.4766

*** Psi4 exiting successfully. Buy a developer a beer!
