                               Psi4 1.3.2 release

  ==> Input File <==

--------------------------------------------------------------------------
#psi4
#
memory 32 gb

molecule  {
0 1
  O        0.6578240    -1.4038190    -0.0084800
  O       -1.9400820     1.1224280     0.2266150
  O       -1.5482610    -1.4485240    -0.4053400
  C        0.3934500     1.4379940    -0.3488290
  C        1.7271553     0.6631823    -0.2993923
  C       -0.6401280     0.6164470     0.4297460
  C        1.7409690    -0.5516630     0.4430470
  C       -0.5671300    -0.8317210    -0.0237270
  H        0.4383430     2.4405150     0.0852910
  H        0.0022100     1.5496010    -1.3639530
  H        2.0656470     0.4995800    -1.3827820
  H        2.5523030     1.3896650     0.0543080
  H       -0.3983570     0.6446350     1.5043810
  H        2.6396080    -1.1506800     0.2905800
  H        1.6294670    -0.3677470     1.5171870
  H       -2.4737670     0.3533780    -0.0616490
units angstrom
no_reorient  #important for SAPT in psi4, default
symmetry c1  #important for SAPT in psi4, default
}

set PROPERTIES_ORIGIN ["COM"]
properties('MP2/aug-cc-pvtz', properties = ['dipole'])
--------------------------------------------------------------------------

    Molecular point group: c1
  Charge       = 0
  Multiplicity = 1
  Basis Set: AUG-CC-PVTZ
    Blend: AUG-CC-PVTZ
  Basis Set: (AUG-CC-PVTZ AUX)
    Blend: AUG-CC-PVTZ-JKFIT

    Orbital Energies [Eh]
    ---------------------

    Doubly Occupied:

       1A    -20.618028     2A    -20.565849     3A    -20.556802
       4A    -11.393428     5A    -11.312446     6A    -11.311018
       7A    -11.258760     8A    -11.251496     9A     -1.469176
      10A     -1.385427    11A     -1.358733    12A     -1.113625
      13A     -1.034982    14A     -0.916735    15A     -0.865946
      16A     -0.758808    17A     -0.747217    18A     -0.713360
      19A     -0.697276    20A     -0.641094    21A     -0.635379
      22A     -0.613895    23A     -0.593370    24A     -0.570718
      25A     -0.567540    26A     -0.524950    27A     -0.522030
      28A     -0.485475    29A     -0.471594    30A     -0.452096
      31A     -0.442249

  @DF-RHF Final Energy:  -418.73230558880050

   => Energetics <=

    Nuclear Repulsion Energy =            403.3370542242676038
    One-Electron Energy =               -1372.4397148935736368
    Two-Electron Energy =                 550.3703550805055329
    Total Energy =                       -418.7323055888005001
  Basis Set: (AUG-CC-PVTZ AUX)
    Blend: AUG-CC-PVTZ-RI
    Molecular point group: c1

    Geometry (in Angstrom), charge = 0, multiplicity = 1:

       Center              X                  Y                   Z               Mass
    ------------   -----------------  -----------------  -----------------  -----------------
         O            0.717421624152    -1.349891956354    -0.009033271989    15.994914619570
         O           -1.880484375848     1.176355043646     0.226061728011    15.994914619570
         O           -1.488663375848    -1.394596956354    -0.405893271989    15.994914619570
         C            0.453047624152     1.491921043646    -0.349382271989    12.000000000000
         C            1.786752924152     0.717109343646    -0.299945571989    12.000000000000
         C           -0.580530375848     0.670374043646     0.429192728011    12.000000000000
         C            1.800566624152    -0.497735956354     0.442493728011    12.000000000000
         C           -0.507532375848    -0.777793956354    -0.024280271989    12.000000000000
         H            0.497940624152     2.494442043646     0.084737728011     1.007825032230
         H            0.061807624152     1.603528043646    -1.364506271989     1.007825032230
         H            2.125244624152     0.553507043646    -1.383335271989     1.007825032230
         H            2.611900624152     1.443592043646     0.053754728011     1.007825032230
         H           -0.338759375848     0.698562043646     1.503827728011     1.007825032230
         H            2.699205624152    -1.096752956354     0.290026728011     1.007825032230
         H            1.689064624152    -0.313819956354     1.516633728011     1.007825032230
         H           -2.414169375848     0.407305043646    -0.062202271989     1.007825032230

  Basis Set: AUG-CC-PVTZ
    Blend: AUG-CC-PVTZ
  Basis Set: (AUG-CC-PVTZ AUX)
    Blend: AUG-CC-PVTZ-JKFIT
	 Reference Energy          =    -418.7323055888005001 [Eh]
	 Singles Energy            =      -0.0000000000000000 [Eh]
	 Same-Spin Energy          =      -0.4136669573448361 [Eh]
	 Opposite-Spin Energy      =      -1.2940819831930592 [Eh]
	 Correlation Energy        =      -1.7077489405378954 [Eh]
	 Total Energy              =    -420.4400545293383971 [Eh]

	 ================> DF-SCS-MP2 Energies <==================
	-----------------------------------------------------------
	 SCS Same-Spin Scale       =       0.3333333333333333 [-]
	 SCS Opposite-Spin Scale   =       1.2000000000000000 [-]
	 SCS Same-Spin Energy      =      -0.1378889857816120 [Eh]
	 SCS Opposite-Spin Energy  =      -1.5528983798316711 [Eh]
	 SCS Correlation Energy    =      -1.6907873656132830 [Eh]
	 SCS Total Energy          =    -420.4230929544137894 [Eh]
	-----------------------------------------------------------

  Dipole Moment: [D]
     X:     3.8434      Y:     1.6688      Z:     0.9859     Total:     4.3045

*** Psi4 exiting successfully. Buy a developer a beer!
