                               Psi4 1.3.2 release

  ==> Input File <==

--------------------------------------------------------------------------
#psi4
#
memory 32 gb

molecule  {
0 1
  O        0.6578240    -1.4038190    -0.0084800
  O       -1.9650446     1.0343000     0.1906766
  O       -1.5482610    -1.4485240    -0.4053400
  C        0.3934500     1.4379940    -0.3488290
  C        1.7709580     0.7423380    -0.3578590
  C       -0.6401280     0.6164470     0.4297460
  C        1.7409690    -0.5516630     0.4430470
  C       -0.5671300    -0.8317210    -0.0237270
  H        0.4383430     2.4405150     0.0852910
  H        0.0022100     1.5496010    -1.3639530
  H        2.0656470     0.4995800    -1.3827820
  H        2.5523030     1.3896650     0.0543080
  H       -0.3983570     0.6446350     1.5043810
  H        2.6396080    -1.1506800     0.2905800
  H        1.6294670    -0.3677470     1.5171870
  H       -2.4737670     0.3533780    -0.0616490
units angstrom
no_reorient  #important for SAPT in psi4, default
symmetry c1  #important for SAPT in psi4, default
}

set PROPERTIES_ORIGIN ["COM"]
properties('MP2/aug-cc-pvtz', properties = ['dipole'])
--------------------------------------------------------------------------

    Molecular point group: c1
  Charge       = 0
  Multiplicity = 1
  Basis Set: AUG-CC-PVTZ
    Blend: AUG-CC-PVTZ
  Basis Set: (AUG-CC-PVTZ AUX)
    Blend: AUG-CC-PVTZ-JKFIT

    Orbital Energies [Eh]
    ---------------------

    Doubly Occupied:

       1A    -20.616973     2A    -20.555701     3A    -20.553239
       4A    -11.390172     5A    -11.315939     6A    -11.314265
       7A    -11.255981     8A    -11.251764     9A     -1.466747
      10A     -1.397855    11A     -1.360281    12A     -1.106370
      13A     -1.028904    14A     -0.921189    15A     -0.868002
      16A     -0.774524    17A     -0.744162    18A     -0.716015
      19A     -0.691091    20A     -0.650787    21A     -0.630267
      22A     -0.621083    23A     -0.594000    24A     -0.571547
      25A     -0.551898    26A     -0.534050    27A     -0.516562
      28A     -0.500174    29A     -0.469434    30A     -0.451744
      31A     -0.444184

  @DF-RHF Final Energy:  -418.74156426995694

   => Energetics <=

    Nuclear Repulsion Energy =            402.6820076512040032
    One-Electron Energy =               -1371.1173330716223973
    Two-Electron Energy =                 549.6937611504614551
    Total Energy =                       -418.7415642699569389
  Basis Set: (AUG-CC-PVTZ AUX)
    Blend: AUG-CC-PVTZ-RI
    Molecular point group: c1

    Geometry (in Angstrom), charge = 0, multiplicity = 1:

       Center              X                  Y                   Z               Mass
    ------------   -----------------  -----------------  -----------------  -----------------
         O            0.716332777653    -1.345930371201     0.001965963274    15.994914619570
         O           -1.906535822347     1.092188628799     0.201122563274    15.994914619570
         O           -1.489752222347    -1.390635371201    -0.394894036726    15.994914619570
         C            0.451958777653     1.495882628799    -0.338383036726    12.000000000000
         C            1.829466777653     0.800226628799    -0.347413036726    12.000000000000
         C           -0.581619222347     0.674335628799     0.440191963274    12.000000000000
         C            1.799477777653    -0.493774371201     0.453492963274    12.000000000000
         C           -0.508621222347    -0.773832371201    -0.013281036726    12.000000000000
         H            0.496851777653     2.498403628799     0.095736963274     1.007825032230
         H            0.060718777653     1.607489628799    -1.353507036726     1.007825032230
         H            2.124155777653     0.557468628799    -1.372336036726     1.007825032230
         H            2.610811777653     1.447553628799     0.064753963274     1.007825032230
         H           -0.339848222347     0.702523628799     1.514826963274     1.007825032230
         H            2.698116777653    -1.092791371201     0.301025963274     1.007825032230
         H            1.687975777653    -0.309858371201     1.527632963274     1.007825032230
         H           -2.415258222347     0.411266628799    -0.051203036726     1.007825032230

  Basis Set: AUG-CC-PVTZ
    Blend: AUG-CC-PVTZ
  Basis Set: (AUG-CC-PVTZ AUX)
    Blend: AUG-CC-PVTZ-JKFIT
	 Reference Energy          =    -418.7415642699569389 [Eh]
	 Singles Energy            =      -0.0000000000000000 [Eh]
	 Same-Spin Energy          =      -0.4111983920562815 [Eh]
	 Opposite-Spin Energy      =      -1.2896070716964478 [Eh]
	 Correlation Energy        =      -1.7008054637527295 [Eh]
	 Total Energy              =    -420.4423697337096542 [Eh]

	 ================> DF-SCS-MP2 Energies <==================
	-----------------------------------------------------------
	 SCS Same-Spin Scale       =       0.3333333333333333 [-]
	 SCS Opposite-Spin Scale   =       1.2000000000000000 [-]
	 SCS Same-Spin Energy      =      -0.1370661306854272 [Eh]
	 SCS Opposite-Spin Energy  =      -1.5475284860357374 [Eh]
	 SCS Correlation Energy    =      -1.6845946167211645 [Eh]
	 SCS Total Energy          =    -420.4261588866780812 [Eh]
	-----------------------------------------------------------

  Dipole Moment: [D]
     X:     3.9200      Y:     1.8062      Z:     1.0459     Total:     4.4410

*** Psi4 exiting successfully. Buy a developer a beer!
