                               Psi4 1.3.2 release

  ==> Input File <==

--------------------------------------------------------------------------
#psi4
#
memory 32 gb

molecule  {
0 1
  O        0.6578240    -1.4038190    -0.0084800
  O       -1.9400820     1.1224280     0.2266150
  O       -1.5482610    -1.4485240    -0.4053400
  C        0.3934500     1.4379940    -0.3488290
  C        1.7709580     0.7423380    -0.3578590
  C       -0.6401280     0.6164470     0.4297460
  C        1.7409690    -0.5516630     0.4430470
  C       -0.7279553    -0.9328263    -0.0862804
  H        0.4383430     2.4405150     0.0852910
  H        0.0022100     1.5496010    -1.3639530
  H        2.0656470     0.4995800    -1.3827820
  H        2.5523030     1.3896650     0.0543080
  H       -0.3983570     0.6446350     1.5043810
  H        2.6396080    -1.1506800     0.2905800
  H        1.6294670    -0.3677470     1.5171870
  H       -2.4737670     0.3533780    -0.0616490
units angstrom
no_reorient  #important for SAPT in psi4, default
symmetry c1  #important for SAPT in psi4, default
}

set PROPERTIES_ORIGIN ["COM"]
properties('MP2/aug-cc-pvtz', properties = ['dipole'])
--------------------------------------------------------------------------

    Molecular point group: c1
  Charge       = 0
  Multiplicity = 1
  Basis Set: AUG-CC-PVTZ
    Blend: AUG-CC-PVTZ
  Basis Set: (AUG-CC-PVTZ AUX)
    Blend: AUG-CC-PVTZ-JKFIT

    Orbital Energies [Eh]
    ---------------------

    Doubly Occupied:

       1A    -20.595533     2A    -20.571620     3A    -20.564866
       4A    -11.377623     5A    -11.305670     6A    -11.295050
       7A    -11.240499     8A    -11.239839     9A     -1.582251
      10A     -1.373397    11A     -1.362925    12A     -1.083456
      13A     -0.996238    14A     -0.891358    15A     -0.842651
      16A     -0.766637    17A     -0.761078    18A     -0.722315
      19A     -0.705351    20A     -0.657871    21A     -0.642492
      22A     -0.623756    23A     -0.591496    24A     -0.575941
      25A     -0.561813    26A     -0.536939    27A     -0.511918
      28A     -0.499114    29A     -0.462186    30A     -0.444677
      31A     -0.405670

  @DF-RHF Final Energy:  -418.66648364166491

   => Energetics <=

    Nuclear Repulsion Energy =            401.5871630976976689
    One-Electron Energy =               -1368.9228343211339052
    Two-Electron Energy =                 548.6691875817714390
    Total Energy =                       -418.6664836416648541
  Basis Set: (AUG-CC-PVTZ AUX)
    Blend: AUG-CC-PVTZ-RI
    Molecular point group: c1

    Geometry (in Angstrom), charge = 0, multiplicity = 1:

       Center              X                  Y                   Z               Mass
    ------------   -----------------  -----------------  -----------------  -----------------
         O            0.729522471532    -1.347622234441     0.003480941163    15.994914619570
         O           -1.868383528468     1.178624765559     0.238575941163    15.994914619570
         O           -1.476562528468    -1.392327234441    -0.393379058837    15.994914619570
         C            0.465148471532     1.494190765559    -0.336868058837    12.000000000000
         C            1.842656471532     0.798534765559    -0.345898058837    12.000000000000
         C           -0.568429528468     0.672643765559     0.441706941163    12.000000000000
         C            1.812667471532    -0.495466234441     0.455007941163    12.000000000000
         C           -0.656256828468    -0.876629534441    -0.074319458837    12.000000000000
         H            0.510041471532     2.496711765559     0.097251941163     1.007825032230
         H            0.073908471532     1.605797765559    -1.351992058837     1.007825032230
         H            2.137345471532     0.555776765559    -1.370821058837     1.007825032230
         H            2.624001471532     1.445861765559     0.066268941163     1.007825032230
         H           -0.326658528468     0.700831765559     1.516341941163     1.007825032230
         H            2.711306471532    -1.094483234441     0.302540941163     1.007825032230
         H            1.701165471532    -0.311550234441     1.529147941163     1.007825032230
         H           -2.402068528468     0.409574765559    -0.049688058837     1.007825032230

  Basis Set: AUG-CC-PVTZ
    Blend: AUG-CC-PVTZ
  Basis Set: (AUG-CC-PVTZ AUX)
    Blend: AUG-CC-PVTZ-JKFIT
	 Reference Energy          =    -418.6664836416649109 [Eh]
	 Singles Energy            =      -0.0000000000000000 [Eh]
	 Same-Spin Energy          =      -0.4086584533309321 [Eh]
	 Opposite-Spin Energy      =      -1.2855127654323848 [Eh]
	 Correlation Energy        =      -1.6941712187633169 [Eh]
	 Total Energy              =    -420.3606548604282125 [Eh]

	 ================> DF-SCS-MP2 Energies <==================
	-----------------------------------------------------------
	 SCS Same-Spin Scale       =       0.3333333333333333 [-]
	 SCS Opposite-Spin Scale   =       1.2000000000000000 [-]
	 SCS Same-Spin Energy      =      -0.1362194844436440 [Eh]
	 SCS Opposite-Spin Energy  =      -1.5426153185188618 [Eh]
	 SCS Correlation Energy    =      -1.6788348029625058 [Eh]
	 SCS Total Energy          =    -420.3453184446274236 [Eh]
	-----------------------------------------------------------

  Dipole Moment: [D]
     X:     2.1304      Y:     0.9827      Z:     0.5582     Total:     2.4116

*** Psi4 exiting successfully. Buy a developer a beer!
