                               Psi4 1.3.2 release

  ==> Input File <==

--------------------------------------------------------------------------
#psi4
#
memory 32 gb

molecule  {
0 1
  O        0.6578240    -1.4038190    -0.0084800
  O       -1.9400820     1.1224280     0.2266150
  O       -1.5482610    -1.4485240    -0.4053400
  C        0.3934500     1.4379940    -0.3488290
  C        1.8240209     0.8673012    -0.4453876
  C       -0.6401280     0.6164470     0.4297460
  C        1.7409690    -0.5516630     0.4430470
  C       -0.5671300    -0.8317210    -0.0237270
  H        0.4383430     2.4405150     0.0852910
  H        0.0022100     1.5496010    -1.3639530
  H        2.0656470     0.4995800    -1.3827820
  H        2.5523030     1.3896650     0.0543080
  H       -0.3983570     0.6446350     1.5043810
  H        2.6396080    -1.1506800     0.2905800
  H        1.6294670    -0.3677470     1.5171870
  H       -2.4737670     0.3533780    -0.0616490
units angstrom
no_reorient  #important for SAPT in psi4, default
symmetry c1  #important for SAPT in psi4, default
}

set PROPERTIES_ORIGIN ["COM"]
properties('MP2/aug-cc-pvtz', properties = ['dipole'])
--------------------------------------------------------------------------

    Molecular point group: c1
  Charge       = 0
  Multiplicity = 1
  Basis Set: AUG-CC-PVTZ
    Blend: AUG-CC-PVTZ
  Basis Set: (AUG-CC-PVTZ AUX)
    Blend: AUG-CC-PVTZ-JKFIT

    Orbital Energies [Eh]
    ---------------------

    Doubly Occupied:

       1A    -20.620432     2A    -20.568061     3A    -20.556221
       4A    -11.392836     5A    -11.317213     6A    -11.314977
       7A    -11.254069     8A    -11.250124     9A     -1.466753
      10A     -1.385201    11A     -1.358334    12A     -1.094852
      13A     -1.014563    14A     -0.922341    15A     -0.870492
      16A     -0.764925    17A     -0.743005    18A     -0.707794
      19A     -0.686140    20A     -0.643545    21A     -0.637731
      22A     -0.626178    23A     -0.589379    24A     -0.575830
      25A     -0.543164    26A     -0.542739    27A     -0.516350
      28A     -0.499819    29A     -0.468887    30A     -0.448699
      31A     -0.433427

  @DF-RHF Final Energy:  -418.72508932806574

   => Energetics <=

    Nuclear Repulsion Energy =            399.2485206267833746
    One-Electron Energy =               -1364.3190561977771722
    Two-Electron Energy =                 546.3454462429281193
    Total Energy =                       -418.7250893280656783
  Basis Set: (AUG-CC-PVTZ AUX)
    Blend: AUG-CC-PVTZ-RI
    Molecular point group: c1

    Geometry (in Angstrom), charge = 0, multiplicity = 1:

       Center              X                  Y                   Z               Mass
    ------------   -----------------  -----------------  -----------------  -----------------
         O            0.707405132961    -1.370999089987     0.006063528488    15.994914619570
         O           -1.890500867039     1.155247910013     0.241158528488    15.994914619570
         O           -1.498679867039    -1.415704089987    -0.390796471512    15.994914619570
         C            0.443031132961     1.470813910013    -0.334285471512    12.000000000000
         C            1.873602032961     0.900121110013    -0.430844071512    12.000000000000
         C           -0.590546867039     0.649266910013     0.444289528488    12.000000000000
         C            1.790550132961    -0.518843089987     0.457590528488    12.000000000000
         C           -0.517548867039    -0.798901089987    -0.009183471512    12.000000000000
         H            0.487924132961     2.473334910013     0.099834528488     1.007825032230
         H            0.051791132961     1.582420910013    -1.349409471512     1.007825032230
         H            2.115228132961     0.532399910013    -1.368238471512     1.007825032230
         H            2.601884132961     1.422484910013     0.068851528488     1.007825032230
         H           -0.348775867039     0.677454910013     1.518924528488     1.007825032230
         H            2.689189132961    -1.117860089987     0.305123528488     1.007825032230
         H            1.679048132961    -0.334927089987     1.531730528488     1.007825032230
         H           -2.424185867039     0.386197910013    -0.047105471512     1.007825032230

  Basis Set: AUG-CC-PVTZ
    Blend: AUG-CC-PVTZ
  Basis Set: (AUG-CC-PVTZ AUX)
    Blend: AUG-CC-PVTZ-JKFIT
	 Reference Energy          =    -418.7250893280657351 [Eh]
	 Singles Energy            =      -0.0000000000000000 [Eh]
	 Same-Spin Energy          =      -0.4126135638200565 [Eh]
	 Opposite-Spin Energy      =      -1.2937184332101159 [Eh]
	 Correlation Energy        =      -1.7063319970301725 [Eh]
	 Total Energy              =    -420.4314213250959256 [Eh]

	 ================> DF-SCS-MP2 Energies <==================
	-----------------------------------------------------------
	 SCS Same-Spin Scale       =       0.3333333333333333 [-]
	 SCS Opposite-Spin Scale   =       1.2000000000000000 [-]
	 SCS Same-Spin Energy      =      -0.1375378546066855 [Eh]
	 SCS Opposite-Spin Energy  =      -1.5524621198521391 [Eh]
	 SCS Correlation Energy    =      -1.6899999744588245 [Eh]
	 SCS Total Energy          =    -420.4150893025245637 [Eh]
	-----------------------------------------------------------

  Dipole Moment: [D]
     X:     3.8418      Y:     1.6057      Z:     0.9914     Total:     4.2803

*** Psi4 exiting successfully. Buy a developer a beer!
