                               Psi4 1.3.2 release

  ==> Input File <==

--------------------------------------------------------------------------
#psi4
#
memory 32 gb

molecule  {
0 1
  O        0.6251490    -1.3669479     0.0031540
  O       -1.9400820     1.1224280     0.2266150
  O       -1.5482610    -1.4485240    -0.4053400
  C        0.3934500     1.4379940    -0.3488290
  C        1.7709580     0.7423380    -0.3578590
  C       -0.6401280     0.6164470     0.4297460
  C        1.7409690    -0.5516630     0.4430470
  C       -0.5671300    -0.8317210    -0.0237270
  H        0.4383430     2.4405150     0.0852910
  H        0.0022100     1.5496010    -1.3639530
  H        2.0656470     0.4995800    -1.3827820
  H        2.5523030     1.3896650     0.0543080
  H       -0.3983570     0.6446350     1.5043810
  H        2.6396080    -1.1506800     0.2905800
  H        1.6294670    -0.3677470     1.5171870
  H       -2.4737670     0.3533780    -0.0616490
units angstrom
no_reorient  #important for SAPT in psi4, default
symmetry c1  #important for SAPT in psi4, default
}

set PROPERTIES_ORIGIN ["COM"]
properties('MP2/aug-cc-pvtz', properties = ['dipole'])
--------------------------------------------------------------------------

    Molecular point group: c1
  Charge       = 0
  Multiplicity = 1
  Basis Set: AUG-CC-PVTZ
    Blend: AUG-CC-PVTZ
  Basis Set: (AUG-CC-PVTZ AUX)
    Blend: AUG-CC-PVTZ-JKFIT

    Orbital Energies [Eh]
    ---------------------

    Doubly Occupied:

       1A    -20.620902     2A    -20.563590     3A    -20.548977
       4A    -11.387580     5A    -11.319112     6A    -11.309365
       7A    -11.255878     8A    -11.249242     9A     -1.483456
      10A     -1.384044    11A     -1.355421    12A     -1.104663
      13A     -1.029735    14A     -0.920819    15A     -0.871132
      16A     -0.759789    17A     -0.750981    18A     -0.712705
      19A     -0.694351    20A     -0.644138    21A     -0.633158
      22A     -0.619829    23A     -0.594505    24A     -0.572822
      25A     -0.554894    26A     -0.530966    27A     -0.515698
      28A     -0.497954    29A     -0.467595    30A     -0.448940
      31A     -0.443107

  @DF-RHF Final Energy:  -418.74759878745277

   => Energetics <=

    Nuclear Repulsion Energy =            403.0330529945026683
    One-Electron Energy =               -1371.8706094585377286
    Two-Electron Energy =                 550.0899576765823440
    Total Energy =                       -418.7475987874527164
  Basis Set: (AUG-CC-PVTZ AUX)
    Blend: AUG-CC-PVTZ-RI
    Molecular point group: c1

    Geometry (in Angstrom), charge = 0, multiplicity = 1:

       Center              X                  Y                   Z               Mass
    ------------   -----------------  -----------------  -----------------  -----------------
         O            0.684720785001    -1.326288014756     0.007043014625    15.994914619570
         O           -1.880510214999     1.163087885244     0.230504014625    15.994914619570
         O           -1.488689214999    -1.407864114756    -0.401450985375    15.994914619570
         C            0.453021785001     1.478653885244    -0.344939985375    12.000000000000
         C            1.830529785001     0.782997885244    -0.353969985375    12.000000000000
         C           -0.580556214999     0.657106885244     0.433635014625    12.000000000000
         C            1.800540785001    -0.511003114756     0.446936014625    12.000000000000
         C           -0.507558214999    -0.791061114756    -0.019837985375    12.000000000000
         H            0.497914785001     2.481174885244     0.089180014625     1.007825032230
         H            0.061781785001     1.590260885244    -1.360063985375     1.007825032230
         H            2.125218785001     0.540239885244    -1.378892985375     1.007825032230
         H            2.611874785001     1.430324885244     0.058197014625     1.007825032230
         H           -0.338785214999     0.685294885244     1.508270014625     1.007825032230
         H            2.699179785001    -1.110020114756     0.294469014625     1.007825032230
         H            1.689038785001    -0.327087114756     1.521076014625     1.007825032230
         H           -2.414195214999     0.394037885244    -0.057759985375     1.007825032230

  Basis Set: AUG-CC-PVTZ
    Blend: AUG-CC-PVTZ
  Basis Set: (AUG-CC-PVTZ AUX)
    Blend: AUG-CC-PVTZ-JKFIT
	 Reference Energy          =    -418.7475987874527732 [Eh]
	 Singles Energy            =      -0.0000000000000000 [Eh]
	 Same-Spin Energy          =      -0.4120674192109043 [Eh]
	 Opposite-Spin Energy      =      -1.2908577388875857 [Eh]
	 Correlation Energy        =      -1.7029251580984899 [Eh]
	 Total Energy              =    -420.4505239455512537 [Eh]

	 ================> DF-SCS-MP2 Energies <==================
	-----------------------------------------------------------
	 SCS Same-Spin Scale       =       0.3333333333333333 [-]
	 SCS Opposite-Spin Scale   =       1.2000000000000000 [-]
	 SCS Same-Spin Energy      =      -0.1373558064036348 [Eh]
	 SCS Opposite-Spin Energy  =      -1.5490292866651028 [Eh]
	 SCS Correlation Energy    =      -1.6863850930687376 [Eh]
	 SCS Total Energy          =    -420.4339838805215095 [Eh]
	-----------------------------------------------------------

  Dipole Moment: [D]
     X:     4.1569      Y:     1.5700      Z:     1.0045     Total:     4.5556

*** Psi4 exiting successfully. Buy a developer a beer!
