                               Psi4 1.4a3.dev225

  ==> Input File <==

--------------------------------------------------------------------------
#psi4
#
memory 32 gb

molecule  {
0 1
  O        0.6578240    -1.4038190    -0.0084800
  O       -1.9400820     1.1224280     0.2266150
  O       -1.5482610    -1.4485240    -0.4053400
  C        0.3934500     1.4379940    -0.3488290
  C        1.7709580     0.7423380    -0.3578590
  C       -0.6862366     0.6343938     0.4225411
  C        1.7409690    -0.5516630     0.4430470
  C       -0.5671300    -0.8317210    -0.0237270
  H        0.4383430     2.4405150     0.0852910
  H        0.0022100     1.5496010    -1.3639530
  H        2.0656470     0.4995800    -1.3827820
  H        2.5523030     1.3896650     0.0543080
  H       -0.3983570     0.6446350     1.5043810
  H        2.6396080    -1.1506800     0.2905800
  H        1.6294670    -0.3677470     1.5171870
  H       -2.4737670     0.3533780    -0.0616490
units angstrom
no_reorient  #important for SAPT in psi4, default
symmetry c1  #important for SAPT in psi4, default
}

set PROPERTIES_ORIGIN ["COM"]
properties('MP2/aug-cc-pvtz', properties = ['dipole'])
--------------------------------------------------------------------------

    Molecular point group: c1
  Charge       = 0
  Multiplicity = 1
  Basis Set: AUG-CC-PVTZ
    Blend: AUG-CC-PVTZ
  Basis Set: (AUG-CC-PVTZ AUX)
    Blend: AUG-CC-PVTZ-JKFIT

    Orbital Energies [Eh]
    ---------------------

    Doubly Occupied:

       1A    -20.619206     2A    -20.571724     3A    -20.554846
       4A    -11.391502     5A    -11.314632     6A    -11.313446
       7A    -11.254236     8A    -11.248468     9A     -1.467071
      10A     -1.400808    11A     -1.363702    12A     -1.099243
      13A     -1.020840    14A     -0.915288    15A     -0.865218
      16A     -0.768431    17A     -0.745239    18A     -0.710774
      19A     -0.690837    20A     -0.644742    21A     -0.632380
      22A     -0.621293    23A     -0.591110    24A     -0.581589
      25A     -0.555701    26A     -0.530106    27A     -0.516919
      28A     -0.500373    29A     -0.469816    30A     -0.444230
      31A     -0.440151

  @DF-RHF Final Energy:  -418.74466319062543

   => Energetics <=

    Nuclear Repulsion Energy =            401.5127690662182545
    One-Electron Energy =               -1368.8270229205052146
    Two-Electron Energy =                 548.5695906636615291
    Total Energy =                       -418.7446631906254879
  Basis Set: (AUG-CC-PVTZ AUX)
    Blend: AUG-CC-PVTZ-RI
    Molecular point group: c1

    Geometry (in Angstrom), charge = 0, multiplicity = 1:

       Center              X                  Y                   Z               Mass
    ------------   -----------------  -----------------  -----------------  -----------------
         O            0.717660068213    -1.359932944443    -0.002242429803    15.994914619570
         O           -1.880245931787     1.166314055557     0.232852570197    15.994914619570
         O           -1.488424931787    -1.404637944443    -0.399102429803    15.994914619570
         C            0.453286068213     1.481880055557    -0.342591429803    12.000000000000
         C            1.830794068213     0.786224055557    -0.351621429803    12.000000000000
         C           -0.626400531787     0.678279855557     0.428778670197    12.000000000000
         C            1.800805068213    -0.507776944443     0.449284570197    12.000000000000
         C           -0.507293931787    -0.787834944443    -0.017489429803    12.000000000000
         H            0.498179068213     2.484401055557     0.091528570197     1.007825032230
         H            0.062046068213     1.593487055557    -1.357715429803     1.007825032230
         H            2.125483068213     0.543466055557    -1.376544429803     1.007825032230
         H            2.612139068213     1.433551055557     0.060545570197     1.007825032230
         H           -0.338520931787     0.688521055557     1.510618570197     1.007825032230
         H            2.699444068213    -1.106793944443     0.296817570197     1.007825032230
         H            1.689303068213    -0.323860944443     1.523424570197     1.007825032230
         H           -2.413930931787     0.397264055557    -0.055411429803     1.007825032230

  Basis Set: AUG-CC-PVTZ
    Blend: AUG-CC-PVTZ
  Basis Set: (AUG-CC-PVTZ AUX)
    Blend: AUG-CC-PVTZ-JKFIT
	 Reference Energy          =    -418.7446631906254311 [Eh]
	 Singles Energy            =      -0.0000000000000000 [Eh]
	 Same-Spin Energy          =      -0.4124646668901156 [Eh]
	 Opposite-Spin Energy      =      -1.2918014291989013 [Eh]
	 Correlation Energy        =      -1.7042660960890168 [Eh]
	 Total Energy              =    -420.4489292867144741 [Eh]

	 ================> DF-SCS-MP2 Energies <==================
	-----------------------------------------------------------
	 SCS Same-Spin Scale       =       0.3333333333333333 [-]
	 SCS Opposite-Spin Scale   =       1.2000000000000000 [-]
	 SCS Same-Spin Energy      =      -0.1374882222967052 [Eh]
	 SCS Opposite-Spin Energy  =      -1.5501617150386815 [Eh]
	 SCS Correlation Energy    =      -1.6876499373353866 [Eh]
	 SCS Total Energy          =    -420.4323131279608106 [Eh]
	-----------------------------------------------------------

  Dipole Moment: [D]
     X:     3.6876      Y:     1.6908      Z:     0.9645     Total:     4.1698

*** Psi4 exiting successfully. Buy a developer a beer!
