                               Psi4 1.3.2 release

  ==> Input File <==

--------------------------------------------------------------------------
#psi4
#
memory 32 gb

molecule  {
0 1
  O        0.6578240    -1.4038190    -0.0084800
  O       -1.9461270     1.1363583     0.3238294
  O       -1.5482610    -1.4485240    -0.4053400
  C        0.3934500     1.4379940    -0.3488290
  C        1.7709580     0.7423380    -0.3578590
  C       -0.6401280     0.6164470     0.4297460
  C        1.7409690    -0.5516630     0.4430470
  C       -0.5671300    -0.8317210    -0.0237270
  H        0.4383430     2.4405150     0.0852910
  H        0.0022100     1.5496010    -1.3639530
  H        2.0656470     0.4995800    -1.3827820
  H        2.5523030     1.3896650     0.0543080
  H       -0.3983570     0.6446350     1.5043810
  H        2.6396080    -1.1506800     0.2905800
  H        1.6294670    -0.3677470     1.5171870
  H       -2.4737670     0.3533780    -0.0616490
units angstrom
no_reorient  #important for SAPT in psi4, default
symmetry c1  #important for SAPT in psi4, default
}

set PROPERTIES_ORIGIN ["COM"]
properties('MP2/aug-cc-pvtz', properties = ['dipole'])
--------------------------------------------------------------------------

    Molecular point group: c1
  Charge       = 0
  Multiplicity = 1
  Basis Set: AUG-CC-PVTZ
    Blend: AUG-CC-PVTZ
  Basis Set: (AUG-CC-PVTZ AUX)
    Blend: AUG-CC-PVTZ-JKFIT

    Orbital Energies [Eh]
    ---------------------

    Doubly Occupied:

       1A    -20.619991     2A    -20.570396     3A    -20.557882
       4A    -11.394388     5A    -11.314498     6A    -11.312041
       7A    -11.255372     8A    -11.250552     9A     -1.468526
      10A     -1.381859    11A     -1.356234    12A     -1.103399
      13A     -1.024391    14A     -0.917932    15A     -0.867643
      16A     -0.759618    17A     -0.745870    18A     -0.706478
      19A     -0.690951    20A     -0.636727    21A     -0.631333
      22A     -0.618733    23A     -0.593140    24A     -0.573283
      25A     -0.556190    26A     -0.532101    27A     -0.516772
      28A     -0.501582    29A     -0.470105    30A     -0.448524
      31A     -0.446048

  @DF-RHF Final Energy:  -418.74129035362841

   => Energetics <=

    Nuclear Repulsion Energy =            400.9029527285671293
    One-Electron Energy =               -1367.6433678770374627
    Two-Electron Energy =                 547.9991247948419186
    Total Energy =                       -418.7412903536284148
  Basis Set: (AUG-CC-PVTZ AUX)
    Blend: AUG-CC-PVTZ-RI
    Molecular point group: c1

    Geometry (in Angstrom), charge = 0, multiplicity = 1:

       Center              X                  Y                   Z               Mass
    ------------   -----------------  -----------------  -----------------  -----------------
         O            0.713725347047    -1.359997162708    -0.016386612423    15.994914619570
         O           -1.890225652953     1.180180137292     0.315922787577    15.994914619570
         O           -1.492359652953    -1.404702162708    -0.413246612423    15.994914619570
         C            0.449351347047     1.481815837292    -0.356735612423    12.000000000000
         C            1.826859347047     0.786159837292    -0.365765612423    12.000000000000
         C           -0.584226652953     0.660268837292     0.421839387577    12.000000000000
         C            1.796870347047    -0.507841162708     0.435140387577    12.000000000000
         C           -0.511228652953    -0.787899162708    -0.031633612423    12.000000000000
         H            0.494244347047     2.484336837292     0.077384387577     1.007825032230
         H            0.058111347047     1.593422837292    -1.371859612423     1.007825032230
         H            2.121548347047     0.543401837292    -1.390688612423     1.007825032230
         H            2.608204347047     1.433486837292     0.046401387577     1.007825032230
         H           -0.342455652953     0.688456837292     1.496474387577     1.007825032230
         H            2.695509347047    -1.106858162708     0.282673387577     1.007825032230
         H            1.685368347047    -0.323925162708     1.509280387577     1.007825032230
         H           -2.417865652953     0.397199837292    -0.069555612423     1.007825032230

  Basis Set: AUG-CC-PVTZ
    Blend: AUG-CC-PVTZ
  Basis Set: (AUG-CC-PVTZ AUX)
    Blend: AUG-CC-PVTZ-JKFIT
	 Reference Energy          =    -418.7412903536284148 [Eh]
	 Singles Energy            =      -0.0000000000000000 [Eh]
	 Same-Spin Energy          =      -0.4132223920716963 [Eh]
	 Opposite-Spin Energy      =      -1.2941788789071218 [Eh]
	 Correlation Energy        =      -1.7074012709788180 [Eh]
	 Total Energy              =    -420.4486916246072497 [Eh]

	 ================> DF-SCS-MP2 Energies <==================
	-----------------------------------------------------------
	 SCS Same-Spin Scale       =       0.3333333333333333 [-]
	 SCS Opposite-Spin Scale   =       1.2000000000000000 [-]
	 SCS Same-Spin Energy      =      -0.1377407973572321 [Eh]
	 SCS Opposite-Spin Energy  =      -1.5530146546885462 [Eh]
	 SCS Correlation Energy    =      -1.6907554520457784 [Eh]
	 SCS Total Energy          =    -420.4320458056741927 [Eh]
	-----------------------------------------------------------

  Dipole Moment: [D]
     X:     3.8968      Y:     1.6234      Z:     0.7934     Total:     4.2953

*** Psi4 exiting successfully. Buy a developer a beer!
