                               Psi4 1.3.2 release

  ==> Input File <==

--------------------------------------------------------------------------
#psi4
#
memory 32 gb

molecule  {
0 1
  O        0.6578240    -1.4038190    -0.0084800
  O       -1.9400820     1.1224280     0.2266150
  O       -1.5234654    -1.4825602    -0.4117006
  C        0.3934500     1.4379940    -0.3488290
  C        1.7709580     0.7423380    -0.3578590
  C       -0.6401280     0.6164470     0.4297460
  C        1.7409690    -0.5516630     0.4430470
  C       -0.5671300    -0.8317210    -0.0237270
  H        0.4383430     2.4405150     0.0852910
  H        0.0022100     1.5496010    -1.3639530
  H        2.0656470     0.4995800    -1.3827820
  H        2.5523030     1.3896650     0.0543080
  H       -0.3983570     0.6446350     1.5043810
  H        2.6396080    -1.1506800     0.2905800
  H        1.6294670    -0.3677470     1.5171870
  H       -2.4737670     0.3533780    -0.0616490
units angstrom
no_reorient  #important for SAPT in psi4, default
symmetry c1  #important for SAPT in psi4, default
}

set PROPERTIES_ORIGIN ["COM"]
properties('MP2/aug-cc-pvtz', properties = ['dipole'])
--------------------------------------------------------------------------

    Molecular point group: c1
  Charge       = 0
  Multiplicity = 1
  Basis Set: AUG-CC-PVTZ
    Blend: AUG-CC-PVTZ
  Basis Set: (AUG-CC-PVTZ AUX)
    Blend: AUG-CC-PVTZ-JKFIT

    Orbital Energies [Eh]
    ---------------------

    Doubly Occupied:

       1A    -20.616783     2A    -20.568885     3A    -20.555437
       4A    -11.392346     5A    -11.315343     6A    -11.313157
       7A    -11.254602     8A    -11.250670     9A     -1.467662
      10A     -1.384176    11A     -1.358544    12A     -1.103787
      13A     -1.025385    14A     -0.918921    15A     -0.867672
      16A     -0.762168    17A     -0.744590    18A     -0.709807
      19A     -0.690919    20A     -0.642011    21A     -0.630127
      22A     -0.620109    23A     -0.592599    24A     -0.573628
      25A     -0.554366    26A     -0.532397    27A     -0.516611
      28A     -0.500120    29A     -0.469892    30A     -0.450367
      31A     -0.446098

  @DF-RHF Final Energy:  -418.74577626188506

   => Energetics <=

    Nuclear Repulsion Energy =            401.4286637731073029
    One-Electron Energy =               -1368.6905201579265849
    Two-Electron Energy =                 548.5160801229342269
    Total Energy =                       -418.7457762618851120
  Basis Set: (AUG-CC-PVTZ AUX)
    Blend: AUG-CC-PVTZ-RI
    Molecular point group: c1

    Geometry (in Angstrom), charge = 0, multiplicity = 1:

       Center              X                  Y                   Z               Mass
    ------------   -----------------  -----------------  -----------------  -----------------
         O            0.709474558133    -1.353385894885    -0.002110772727    15.994914619570
         O           -1.888431441867     1.172861105115     0.232984227273    15.994914619570
         O           -1.471814841867    -1.432127094885    -0.405331372727    15.994914619570
         C            0.445100558133     1.488427105115    -0.342459772727    12.000000000000
         C            1.822608558133     0.792771105115    -0.351489772727    12.000000000000
         C           -0.588477441867     0.666880105115     0.436115227273    12.000000000000
         C            1.792619558133    -0.501229894885     0.449416227273    12.000000000000
         C           -0.515479441867    -0.781287894885    -0.017357772727    12.000000000000
         H            0.489993558133     2.490948105115     0.091660227273     1.007825032230
         H            0.053860558133     1.600034105115    -1.357583772727     1.007825032230
         H            2.117297558133     0.550013105115    -1.376412772727     1.007825032230
         H            2.603953558133     1.440098105115     0.060677227273     1.007825032230
         H           -0.346706441867     0.695068105115     1.510750227273     1.007825032230
         H            2.691258558133    -1.100246894885     0.296949227273     1.007825032230
         H            1.681117558133    -0.317313894885     1.523556227273     1.007825032230
         H           -2.422116441867     0.403811105115    -0.055279772727     1.007825032230

  Basis Set: AUG-CC-PVTZ
    Blend: AUG-CC-PVTZ
  Basis Set: (AUG-CC-PVTZ AUX)
    Blend: AUG-CC-PVTZ-JKFIT
	 Reference Energy          =    -418.7457762618850552 [Eh]
	 Singles Energy            =      -0.0000000000000000 [Eh]
	 Same-Spin Energy          =      -0.4125253118164707 [Eh]
	 Opposite-Spin Energy      =      -1.2927111216592180 [Eh]
	 Correlation Energy        =      -1.7052364334756887 [Eh]
	 Total Energy              =    -420.4510126953607596 [Eh]

	 ================> DF-SCS-MP2 Energies <==================
	-----------------------------------------------------------
	 SCS Same-Spin Scale       =       0.3333333333333333 [-]
	 SCS Opposite-Spin Scale   =       1.2000000000000000 [-]
	 SCS Same-Spin Energy      =      -0.1375084372721569 [Eh]
	 SCS Opposite-Spin Energy  =      -1.5512533459910616 [Eh]
	 SCS Correlation Energy    =      -1.6887617832632185 [Eh]
	 SCS Total Energy          =    -420.4345380451482583 [Eh]
	-----------------------------------------------------------

  Dipole Moment: [D]
     X:     3.7917      Y:     1.7455      Z:     0.9993     Total:     4.2922

*** Psi4 exiting successfully. Buy a developer a beer!
