                               Psi4 1.3.2 release

  ==> Input File <==

--------------------------------------------------------------------------
#psi4
#
memory 32 gb

molecule  {
0 1
  O        0.6578240    -1.4038190    -0.0084800
  O       -1.9400820     1.1224280     0.2266150
  O       -1.5482610    -1.4485240    -0.4053400
  C        0.3934500     1.4379940    -0.3488290
  C        1.7709580     0.7423380    -0.3578590
  C       -0.6010797     0.7535578     0.4677933
  C        1.7409690    -0.5516630     0.4430470
  C       -0.5671300    -0.8317210    -0.0237270
  H        0.4383430     2.4405150     0.0852910
  H        0.0022100     1.5496010    -1.3639530
  H        2.0656470     0.4995800    -1.3827820
  H        2.5523030     1.3896650     0.0543080
  H       -0.3983570     0.6446350     1.5043810
  H        2.6396080    -1.1506800     0.2905800
  H        1.6294670    -0.3677470     1.5171870
  H       -2.4737670     0.3533780    -0.0616490
units angstrom
no_reorient  #important for SAPT in psi4, default
symmetry c1  #important for SAPT in psi4, default
}

set PROPERTIES_ORIGIN ["COM"]
properties('MP2/aug-cc-pvtz', properties = ['dipole'])
--------------------------------------------------------------------------

    Molecular point group: c1
  Charge       = 0
  Multiplicity = 1
  Basis Set: AUG-CC-PVTZ
    Blend: AUG-CC-PVTZ
  Basis Set: (AUG-CC-PVTZ AUX)
    Blend: AUG-CC-PVTZ-JKFIT

    Orbital Energies [Eh]
    ---------------------

    Doubly Occupied:

       1A    -20.615423     2A    -20.562773     3A    -20.555814
       4A    -11.389671     5A    -11.318120     6A    -11.314026
       7A    -11.257372     8A    -11.246977     9A     -1.461874
      10A     -1.379347    11A     -1.356040    12A     -1.111602
      13A     -1.023623    14A     -0.909818    15A     -0.863524
      16A     -0.763150    17A     -0.737219    18A     -0.714238
      19A     -0.685474    20A     -0.652016    21A     -0.629315
      22A     -0.621054    23A     -0.594960    24A     -0.577219
      25A     -0.549334    26A     -0.530433    27A     -0.516067
      28A     -0.499314    29A     -0.472330    30A     -0.458719
      31A     -0.419420

  @DF-RHF Final Energy:  -418.72733058343943

   => Energetics <=

    Nuclear Repulsion Energy =            400.3452965977053850
    One-Electron Energy =               -1366.5727252495403263
    Two-Electron Energy =                 547.5000980683955731
    Total Energy =                       -418.7273305834394250
  Basis Set: (AUG-CC-PVTZ AUX)
    Blend: AUG-CC-PVTZ-RI
    Molecular point group: c1

    Geometry (in Angstrom), charge = 0, multiplicity = 1:

       Center              X                  Y                   Z               Mass
    ------------   -----------------  -----------------  -----------------  -----------------
         O            0.708854327696    -1.372255225585    -0.006921782046    15.994914619570
         O           -1.889051672304     1.153991774415     0.228173217954    15.994914619570
         O           -1.497230672304    -1.416960225585    -0.403781782046    15.994914619570
         C            0.444480327696     1.469557774415    -0.347270782046    12.000000000000
         C            1.821988327696     0.773901774415    -0.356300782046    12.000000000000
         C           -0.550049372304     0.785121574415     0.469351517954    12.000000000000
         C            1.791999327696    -0.520099225585     0.444605217954    12.000000000000
         C           -0.516099672304    -0.800157225585    -0.022168782046    12.000000000000
         H            0.489373327696     2.472078774415     0.086849217954     1.007825032230
         H            0.053240327696     1.581164774415    -1.362394782046     1.007825032230
         H            2.116677327696     0.531143774415    -1.381223782046     1.007825032230
         H            2.603333327696     1.421228774415     0.055866217954     1.007825032230
         H           -0.347326672304     0.676198774415     1.505939217954     1.007825032230
         H            2.690638327696    -1.119116225585     0.292138217954     1.007825032230
         H            1.680497327696    -0.336183225585     1.518745217954     1.007825032230
         H           -2.422736672304     0.384941774415    -0.060090782046     1.007825032230

  Basis Set: AUG-CC-PVTZ
    Blend: AUG-CC-PVTZ
  Basis Set: (AUG-CC-PVTZ AUX)
    Blend: AUG-CC-PVTZ-JKFIT
	 Reference Energy          =    -418.7273305834394250 [Eh]
	 Singles Energy            =      -0.0000000000000000 [Eh]
	 Same-Spin Energy          =      -0.4130101685561193 [Eh]
	 Opposite-Spin Energy      =      -1.2934353257863935 [Eh]
	 Correlation Energy        =      -1.7064454943425129 [Eh]
	 Total Energy              =    -420.4337760777819426 [Eh]

	 ================> DF-SCS-MP2 Energies <==================
	-----------------------------------------------------------
	 SCS Same-Spin Scale       =       0.3333333333333333 [-]
	 SCS Opposite-Spin Scale   =       1.2000000000000000 [-]
	 SCS Same-Spin Energy      =      -0.1376700561853731 [Eh]
	 SCS Opposite-Spin Energy  =      -1.5521223909436721 [Eh]
	 SCS Correlation Energy    =      -1.6897924471290451 [Eh]
	 SCS Total Energy          =    -420.4171230305684617 [Eh]
	-----------------------------------------------------------

  Dipole Moment: [D]
     X:     3.9324      Y:     1.6326      Z:     0.9611     Total:     4.3649

*** Psi4 exiting successfully. Buy a developer a beer!
