                               Psi4 1.3.2 release

  ==> Input File <==

--------------------------------------------------------------------------
#psi4
#
memory 32 gb

molecule  {
0 1
  O        0.5938334    -1.3290835     0.0153239
  O       -1.9400820     1.1224280     0.2266150
  O       -1.5482610    -1.4485240    -0.4053400
  C        0.3934500     1.4379940    -0.3488290
  C        1.7709580     0.7423380    -0.3578590
  C       -0.6401280     0.6164470     0.4297460
  C        1.7409690    -0.5516630     0.4430470
  C       -0.5671300    -0.8317210    -0.0237270
  H        0.4383430     2.4405150     0.0852910
  H        0.0022100     1.5496010    -1.3639530
  H        2.0656470     0.4995800    -1.3827820
  H        2.5523030     1.3896650     0.0543080
  H       -0.3983570     0.6446350     1.5043810
  H        2.6396080    -1.1506800     0.2905800
  H        1.6294670    -0.3677470     1.5171870
  H       -2.4737670     0.3533780    -0.0616490
units angstrom
no_reorient  #important for SAPT in psi4, default
symmetry c1  #important for SAPT in psi4, default
}

set PROPERTIES_ORIGIN ["COM"]
properties('MP2/aug-cc-pvtz', properties = ['dipole'])
--------------------------------------------------------------------------

    Molecular point group: c1
  Charge       = 0
  Multiplicity = 1
  Basis Set: AUG-CC-PVTZ
    Blend: AUG-CC-PVTZ
  Basis Set: (AUG-CC-PVTZ AUX)
    Blend: AUG-CC-PVTZ-JKFIT

    Orbital Energies [Eh]
    ---------------------

    Doubly Occupied:

       1A    -20.622651     2A    -20.560411     3A    -20.541228
       4A    -11.381788     5A    -11.324334     6A    -11.305307
       7A    -11.257189     8A    -11.248628     9A     -1.501598
      10A     -1.381957    11A     -1.352061    12A     -1.106560
      13A     -1.034515    14A     -0.923573    15A     -0.874162
      16A     -0.759000    17A     -0.756970    18A     -0.716620
      19A     -0.697275    20A     -0.646412    21A     -0.634985
      22A     -0.618839    23A     -0.595967    24A     -0.573427
      25A     -0.555520    26A     -0.530577    27A     -0.514888
      28A     -0.494003    29A     -0.464660    30A     -0.447366
      31A     -0.439825

  @DF-RHF Final Energy:  -418.74456030363018

   => Energetics <=

    Nuclear Repulsion Energy =            404.5013423701764168
    One-Electron Energy =               -1374.7672130048085819
    Two-Electron Energy =                 551.5213103310019278
    Total Energy =                       -418.7445603036302373
  Basis Set: (AUG-CC-PVTZ AUX)
    Blend: AUG-CC-PVTZ-RI
    Molecular point group: c1

    Geometry (in Angstrom), charge = 0, multiplicity = 1:

       Center              X                  Y                   Z               Mass
    ------------   -----------------  -----------------  -----------------  -----------------
         O            0.657721443611    -1.293642500631     0.017535525858    15.994914619570
         O           -1.876193956389     1.157868999369     0.228826625858    15.994914619570
         O           -1.484372956389    -1.413083000631    -0.403128374142    15.994914619570
         C            0.457338043611     1.473434999369    -0.346617374142    12.000000000000
         C            1.834846043611     0.777778999369    -0.355647374142    12.000000000000
         C           -0.576239956389     0.651887999369     0.431957625858    12.000000000000
         C            1.804857043611    -0.516222000631     0.445258625858    12.000000000000
         C           -0.503241956389    -0.796280000631    -0.021515374142    12.000000000000
         H            0.502231043611     2.475955999369     0.087502625858     1.007825032230
         H            0.066098043611     1.585041999369    -1.361741374142     1.007825032230
         H            2.129535043611     0.535020999369    -1.380570374142     1.007825032230
         H            2.616191043611     1.425105999369     0.056519625858     1.007825032230
         H           -0.334468956389     0.680075999369     1.506592625858     1.007825032230
         H            2.703496043611    -1.115239000631     0.292791625858     1.007825032230
         H            1.693355043611    -0.332306000631     1.519398625858     1.007825032230
         H           -2.409878956389     0.388818999369    -0.059437374142     1.007825032230

  Basis Set: AUG-CC-PVTZ
    Blend: AUG-CC-PVTZ
  Basis Set: (AUG-CC-PVTZ AUX)
    Blend: AUG-CC-PVTZ-JKFIT
	 Reference Energy          =    -418.7445603036301804 [Eh]
	 Singles Energy            =      -0.0000000000000000 [Eh]
	 Same-Spin Energy          =      -0.4116474881955419 [Eh]
	 Opposite-Spin Energy      =      -1.2892683475761024 [Eh]
	 Correlation Energy        =      -1.7009158357716443 [Eh]
	 Total Energy              =    -420.4454761394018192 [Eh]

	 ================> DF-SCS-MP2 Energies <==================
	-----------------------------------------------------------
	 SCS Same-Spin Scale       =       0.3333333333333333 [-]
	 SCS Opposite-Spin Scale   =       1.2000000000000000 [-]
	 SCS Same-Spin Energy      =      -0.1372158293985140 [Eh]
	 SCS Opposite-Spin Energy  =      -1.5471220170913229 [Eh]
	 SCS Correlation Energy    =      -1.6843378464898369 [Eh]
	 SCS Total Energy          =    -420.4288981501200055 [Eh]
	-----------------------------------------------------------

  Dipole Moment: [D]
     X:     4.4630      Y:     1.4948      Z:     1.0273     Total:     4.8175

*** Psi4 exiting successfully. Buy a developer a beer!
