                               Psi4 1.3.2 release

  ==> Input File <==

--------------------------------------------------------------------------
#psi4
#
memory 32 gb

molecule  {
0 1
  O        0.6715624    -1.4381143     0.0261259
  O       -1.9400820     1.1224280     0.2266150
  O       -1.5482610    -1.4485240    -0.4053400
  C        0.3934500     1.4379940    -0.3488290
  C        1.7709580     0.7423380    -0.3578590
  C       -0.6401280     0.6164470     0.4297460
  C        1.7409690    -0.5516630     0.4430470
  C       -0.5671300    -0.8317210    -0.0237270
  H        0.4383430     2.4405150     0.0852910
  H        0.0022100     1.5496010    -1.3639530
  H        2.0656470     0.4995800    -1.3827820
  H        2.5523030     1.3896650     0.0543080
  H       -0.3983570     0.6446350     1.5043810
  H        2.6396080    -1.1506800     0.2905800
  H        1.6294670    -0.3677470     1.5171870
  H       -2.4737670     0.3533780    -0.0616490
units angstrom
no_reorient  #important for SAPT in psi4, default
symmetry c1  #important for SAPT in psi4, default
}

set PROPERTIES_ORIGIN ["COM"]
properties('MP2/aug-cc-pvtz', properties = ['dipole'])
--------------------------------------------------------------------------

    Molecular point group: c1
  Charge       = 0
  Multiplicity = 1
  Basis Set: AUG-CC-PVTZ
    Blend: AUG-CC-PVTZ
  Basis Set: (AUG-CC-PVTZ AUX)
    Blend: AUG-CC-PVTZ-JKFIT

    Orbital Energies [Eh]
    ---------------------

    Doubly Occupied:

       1A    -20.617740     2A    -20.568341     3A    -20.560967
       4A    -11.396291     5A    -11.315404     6A    -11.311391
       7A    -11.254914     8A    -11.250410     9A     -1.459724
      10A     -1.385046    11A     -1.359927    12A     -1.103538
      13A     -1.022719    14A     -0.917263    15A     -0.866444
      16A     -0.762006    17A     -0.739877    18A     -0.710074
      19A     -0.690195    20A     -0.640826    21A     -0.629940
      22A     -0.620102    23A     -0.592279    24A     -0.571923
      25A     -0.554330    26A     -0.533177    27A     -0.516683
      28A     -0.502557    29A     -0.471142    30A     -0.451005
      31A     -0.446189

  @DF-RHF Final Energy:  -418.74320473050221

   => Energetics <=

    Nuclear Repulsion Energy =            400.6010907002612385
    One-Electron Energy =               -1367.0437434346449663
    Two-Electron Energy =                 547.6994480038815709
    Total Energy =                       -418.7432047305021570
  Basis Set: (AUG-CC-PVTZ AUX)
    Blend: AUG-CC-PVTZ-RI
    Molecular point group: c1

    Geometry (in Angstrom), charge = 0, multiplicity = 1:

       Center              X                  Y                   Z               Mass
    ------------   -----------------  -----------------  -----------------  -----------------
         O            0.724736982412    -1.387645482889     0.026848676036    15.994914619570
         O           -1.886907417588     1.172896817111     0.227337776036    15.994914619570
         O           -1.495086417588    -1.398055182889    -0.404617223964    15.994914619570
         C            0.446624582412     1.488462817111    -0.348106223964    12.000000000000
         C            1.824132582412     0.792806817111    -0.357136223964    12.000000000000
         C           -0.586953417588     0.666915817111     0.430468776036    12.000000000000
         C            1.794143582412    -0.501194182889     0.443769776036    12.000000000000
         C           -0.513955417588    -0.781252182889    -0.023004223964    12.000000000000
         H            0.491517582412     2.490983817111     0.086013776036     1.007825032230
         H            0.055384582412     1.600069817111    -1.363230223964     1.007825032230
         H            2.118821582412     0.550048817111    -1.382059223964     1.007825032230
         H            2.605477582412     1.440133817111     0.055030776036     1.007825032230
         H           -0.345182417588     0.695103817111     1.505103776036     1.007825032230
         H            2.692782582412    -1.100211182889     0.291302776036     1.007825032230
         H            1.682641582412    -0.317278182889     1.517909776036     1.007825032230
         H           -2.420592417588     0.403846817111    -0.060926223964     1.007825032230

  Basis Set: AUG-CC-PVTZ
    Blend: AUG-CC-PVTZ
  Basis Set: (AUG-CC-PVTZ AUX)
    Blend: AUG-CC-PVTZ-JKFIT
	 Reference Energy          =    -418.7432047305022138 [Eh]
	 Singles Energy            =      -0.0000000000000000 [Eh]
	 Same-Spin Energy          =      -0.4129026422325005 [Eh]
	 Opposite-Spin Energy      =      -1.2938626460887477 [Eh]
	 Correlation Energy        =      -1.7067652883212481 [Eh]
	 Total Energy              =    -420.4499700188234783 [Eh]

	 ================> DF-SCS-MP2 Energies <==================
	-----------------------------------------------------------
	 SCS Same-Spin Scale       =       0.3333333333333333 [-]
	 SCS Opposite-Spin Scale   =       1.2000000000000000 [-]
	 SCS Same-Spin Energy      =      -0.1376342140775001 [Eh]
	 SCS Opposite-Spin Energy  =      -1.5526351753064971 [Eh]
	 SCS Correlation Energy    =      -1.6902693893839973 [Eh]
	 SCS Total Energy          =    -420.4334741198862275 [Eh]
	-----------------------------------------------------------

  Dipole Moment: [D]
     X:     3.6872      Y:     1.7158      Z:     0.9151     Total:     4.1686

*** Psi4 exiting successfully. Buy a developer a beer!
