                               Psi4 1.3.2 release

  ==> Input File <==

--------------------------------------------------------------------------
#psi4
#
memory 32 gb

molecule  {
0 1
  O        0.6578240    -1.4038190    -0.0084800
  O       -1.9400820     1.1224280     0.2266150
  O       -1.5482610    -1.4485240    -0.4053400
  C        0.3934500     1.4379940    -0.3488290
  C        1.7709580     0.7423380    -0.3578590
  C       -0.6401280     0.6164470     0.4297460
  C        1.7409690    -0.5516630     0.4430470
  C       -0.5606243    -0.8388810     0.0009610
  H        0.4383430     2.4405150     0.0852910
  H        0.0022100     1.5496010    -1.3639530
  H        2.0656470     0.4995800    -1.3827820
  H        2.5523030     1.3896650     0.0543080
  H       -0.3983570     0.6446350     1.5043810
  H        2.6396080    -1.1506800     0.2905800
  H        1.6294670    -0.3677470     1.5171870
  H       -2.4737670     0.3533780    -0.0616490
units angstrom
no_reorient  #important for SAPT in psi4, default
symmetry c1  #important for SAPT in psi4, default
}

set PROPERTIES_ORIGIN ["COM"]
properties('MP2/aug-cc-pvtz', properties = ['dipole'])
--------------------------------------------------------------------------

    Molecular point group: c1
  Charge       = 0
  Multiplicity = 1
  Basis Set: AUG-CC-PVTZ
    Blend: AUG-CC-PVTZ
  Basis Set: (AUG-CC-PVTZ AUX)
    Blend: AUG-CC-PVTZ-JKFIT

    Orbital Energies [Eh]
    ---------------------

    Doubly Occupied:

       1A    -20.621726     2A    -20.566496     3A    -20.554180
       4A    -11.393610     5A    -11.315607     6A    -11.313323
       7A    -11.255293     8A    -11.250276     9A     -1.470140
      10A     -1.383831    11A     -1.354526    12A     -1.104203
      13A     -1.026194    14A     -0.920047    15A     -0.868985
      16A     -0.760700    17A     -0.746923    18A     -0.709744
      19A     -0.691994    20A     -0.642281    21A     -0.629586
      22A     -0.620058    23A     -0.594021    24A     -0.572958
      25A     -0.553359    26A     -0.531024    27A     -0.516846
      28A     -0.500063    29A     -0.469421    30A     -0.450150
      31A     -0.444717

  @DF-RHF Final Energy:  -418.74505564358481

   => Energetics <=

    Nuclear Repulsion Energy =            401.5473111112080460
    One-Electron Energy =               -1368.9201770112574650
    Two-Electron Energy =                 548.6278102564646133
    Total Energy =                       -418.7450556435848057
  Basis Set: (AUG-CC-PVTZ AUX)
    Blend: AUG-CC-PVTZ-RI
    Molecular point group: c1

    Geometry (in Angstrom), charge = 0, multiplicity = 1:

       Center              X                  Y                   Z               Mass
    ------------   -----------------  -----------------  -----------------  -----------------
         O            0.712219430128    -1.357336748879    -0.005540349311    15.994914619570
         O           -1.885686569872     1.168910251121     0.229554650689    15.994914619570
         O           -1.493865569872    -1.402041748879    -0.402400349311    15.994914619570
         C            0.447845430128     1.484476251121    -0.345889349311    12.000000000000
         C            1.825353430128     0.788820251121    -0.354919349311    12.000000000000
         C           -0.585732569872     0.662929251121     0.432685650689    12.000000000000
         C            1.795364430128    -0.505180748879     0.445986650689    12.000000000000
         C           -0.506228869872    -0.792398748879     0.003900650689    12.000000000000
         H            0.492738430128     2.486997251121     0.088230650689     1.007825032230
         H            0.056605430128     1.596083251121    -1.361013349311     1.007825032230
         H            2.120042430128     0.546062251121    -1.379842349311     1.007825032230
         H            2.606698430128     1.436147251121     0.057247650689     1.007825032230
         H           -0.343961569872     0.691117251121     1.507320650689     1.007825032230
         H            2.694003430128    -1.104197748879     0.293519650689     1.007825032230
         H            1.683862430128    -0.321264748879     1.520126650689     1.007825032230
         H           -2.419371569872     0.399860251121    -0.058709349311     1.007825032230

  Basis Set: AUG-CC-PVTZ
    Blend: AUG-CC-PVTZ
  Basis Set: (AUG-CC-PVTZ AUX)
    Blend: AUG-CC-PVTZ-JKFIT
	 Reference Energy          =    -418.7450556435848057 [Eh]
	 Singles Energy            =      -0.0000000000000000 [Eh]
	 Same-Spin Energy          =      -0.4127566536398471 [Eh]
	 Opposite-Spin Energy      =      -1.2929689544677352 [Eh]
	 Correlation Energy        =      -1.7057256081075822 [Eh]
	 Total Energy              =    -420.4507812516923764 [Eh]

	 ================> DF-SCS-MP2 Energies <==================
	-----------------------------------------------------------
	 SCS Same-Spin Scale       =       0.3333333333333333 [-]
	 SCS Opposite-Spin Scale   =       1.2000000000000000 [-]
	 SCS Same-Spin Energy      =      -0.1375855512132824 [Eh]
	 SCS Opposite-Spin Energy  =      -1.5515627453612821 [Eh]
	 SCS Correlation Energy    =      -1.6891482965745646 [Eh]
	 SCS Total Energy          =    -420.4342039401593638 [Eh]
	-----------------------------------------------------------

  Dipole Moment: [D]
     X:     3.9488      Y:     1.6499      Z:     1.0190     Total:     4.3992

*** Psi4 exiting successfully. Buy a developer a beer!
