                               Psi4 1.3.2 release

  ==> Input File <==

--------------------------------------------------------------------------
#psi4
#
memory 32 gb

molecule  {
0 1
  O        0.6578240    -1.4038190    -0.0084800
  O       -1.9400820     1.1224280     0.2266150
  O       -1.5482610    -1.4485240    -0.4053400
  C        0.3934500     1.4379940    -0.3488290
  C        1.7709580     0.7423380    -0.3578590
  C       -0.6401280     0.6164470     0.4297460
  C        1.7409690    -0.5516630     0.4430470
  C       -0.5719348    -0.7364005     0.0061212
  H        0.4383430     2.4405150     0.0852910
  H        0.0022100     1.5496010    -1.3639530
  H        2.0656470     0.4995800    -1.3827820
  H        2.5523030     1.3896650     0.0543080
  H       -0.3983570     0.6446350     1.5043810
  H        2.6396080    -1.1506800     0.2905800
  H        1.6294670    -0.3677470     1.5171870
  H       -2.4737670     0.3533780    -0.0616490
units angstrom
no_reorient  #important for SAPT in psi4, default
symmetry c1  #important for SAPT in psi4, default
}

set PROPERTIES_ORIGIN ["COM"]
properties('MP2/aug-cc-pvtz', properties = ['dipole'])
--------------------------------------------------------------------------

    Molecular point group: c1
  Charge       = 0
  Multiplicity = 1
  Basis Set: AUG-CC-PVTZ
    Blend: AUG-CC-PVTZ
  Basis Set: (AUG-CC-PVTZ AUX)
    Blend: AUG-CC-PVTZ-JKFIT

    Orbital Energies [Eh]
    ---------------------

    Doubly Occupied:

       1A    -20.618762     2A    -20.572136     3A    -20.555558
       4A    -11.400898     5A    -11.316751     6A    -11.310858
       7A    -11.256946     8A    -11.256082     9A     -1.449901
      10A     -1.386141    11A     -1.332748    12A     -1.111979
      13A     -1.038186    14A     -0.931752    15A     -0.868743
      16A     -0.768485    17A     -0.742340    18A     -0.710554
      19A     -0.691520    20A     -0.638663    21A     -0.624305
      22A     -0.618298    23A     -0.588618    24A     -0.575269
      25A     -0.548689    26A     -0.532392    27A     -0.517799
      28A     -0.497282    29A     -0.471134    30A     -0.456319
      31A     -0.445449

  @DF-RHF Final Energy:  -418.72271538275936

   => Energetics <=

    Nuclear Repulsion Energy =            401.8820998040063159
    One-Electron Energy =               -1369.5405180980969817
    Two-Electron Energy =                 548.9357029113313047
    Total Energy =                       -418.7227153827593611
  Basis Set: (AUG-CC-PVTZ AUX)
    Blend: AUG-CC-PVTZ-RI
    Molecular point group: c1

    Geometry (in Angstrom), charge = 0, multiplicity = 1:

       Center              X                  Y                   Z               Mass
    ------------   -----------------  -----------------  -----------------  -----------------
         O            0.713389004504    -1.367933854822    -0.006073945322    15.994914619570
         O           -1.884516995496     1.158313145178     0.229021054678    15.994914619570
         O           -1.492695995496    -1.412638854822    -0.402933945322    15.994914619570
         C            0.449015004504     1.473879145178    -0.346422945322    12.000000000000
         C            1.826523004504     0.778223145178    -0.355452945322    12.000000000000
         C           -0.584562995496     0.652332145178     0.432152054678    12.000000000000
         C            1.796534004504    -0.515777854822     0.445453054678    12.000000000000
         C           -0.516369795496    -0.700515354822     0.008527254678    12.000000000000
         H            0.493908004504     2.476400145178     0.087697054678     1.007825032230
         H            0.057775004504     1.585486145178    -1.361546945322     1.007825032230
         H            2.121212004504     0.535465145178    -1.380375945322     1.007825032230
         H            2.607868004504     1.425550145178     0.056714054678     1.007825032230
         H           -0.342791995496     0.680520145178     1.506787054678     1.007825032230
         H            2.695173004504    -1.114794854822     0.292986054678     1.007825032230
         H            1.685032004504    -0.331861854822     1.519593054678     1.007825032230
         H           -2.418201995496     0.389263145178    -0.059242945322     1.007825032230

  Basis Set: AUG-CC-PVTZ
    Blend: AUG-CC-PVTZ
  Basis Set: (AUG-CC-PVTZ AUX)
    Blend: AUG-CC-PVTZ-JKFIT
	 Reference Energy          =    -418.7227153827593611 [Eh]
	 Singles Energy            =      -0.0000000000000000 [Eh]
	 Same-Spin Energy          =      -0.4157425341435153 [Eh]
	 Opposite-Spin Energy      =      -1.2990015049891435 [Eh]
	 Correlation Energy        =      -1.7147440391326587 [Eh]
	 Total Energy              =    -420.4374594218920151 [Eh]

	 ================> DF-SCS-MP2 Energies <==================
	-----------------------------------------------------------
	 SCS Same-Spin Scale       =       0.3333333333333333 [-]
	 SCS Opposite-Spin Scale   =       1.2000000000000000 [-]
	 SCS Same-Spin Energy      =      -0.1385808447145051 [Eh]
	 SCS Opposite-Spin Energy  =      -1.5588018059869722 [Eh]
	 SCS Correlation Energy    =      -1.6973826507014773 [Eh]
	 SCS Total Energy          =    -420.4200980334608175 [Eh]
	-----------------------------------------------------------

  Dipole Moment: [D]
     X:     3.8006      Y:     2.0541      Z:     1.0734     Total:     4.4515

*** Psi4 exiting successfully. Buy a developer a beer!
