                               Psi4 1.4a3.dev225

  ==> Input File <==

--------------------------------------------------------------------------
#psi4
#
memory 32 gb

molecule  {
0 1
  O        0.6578240    -1.4038190    -0.0084800
  O       -1.9400820     1.1224280     0.2266150
  O       -1.5482610    -1.4485240    -0.4053400
  C        0.3934500     1.4379940    -0.3488290
  C        1.7709580     0.7423380    -0.3578590
  C       -0.6401280     0.6164470     0.4297460
  C        1.7409690    -0.5516630     0.4430470
  C       -0.6073363    -0.8569973    -0.0393653
  H        0.4383430     2.4405150     0.0852910
  H        0.0022100     1.5496010    -1.3639530
  H        2.0656470     0.4995800    -1.3827820
  H        2.5523030     1.3896650     0.0543080
  H       -0.3983570     0.6446350     1.5043810
  H        2.6396080    -1.1506800     0.2905800
  H        1.6294670    -0.3677470     1.5171870
  H       -2.4737670     0.3533780    -0.0616490
units angstrom
no_reorient  #important for SAPT in psi4, default
symmetry c1  #important for SAPT in psi4, default
}

set PROPERTIES_ORIGIN ["COM"]
properties('MP2/aug-cc-pvtz', properties = ['dipole'])
--------------------------------------------------------------------------

    Molecular point group: c1
  Charge       = 0
  Multiplicity = 1
  Basis Set: AUG-CC-PVTZ
    Blend: AUG-CC-PVTZ
  Basis Set: (AUG-CC-PVTZ AUX)
    Blend: AUG-CC-PVTZ-JKFIT

    Orbital Energies [Eh]
    ---------------------

    Doubly Occupied:

       1A    -20.608093     2A    -20.566057     3A    -20.565914
       4A    -11.389566     5A    -11.311366     6A    -11.309866
       7A    -11.251255     8A    -11.247376     9A     -1.473145
      10A     -1.391515    11A     -1.369172    12A     -1.098223
      13A     -1.018228    14A     -0.910995    15A     -0.861970
      16A     -0.759127    17A     -0.741729    18A     -0.712834
      19A     -0.690507    20A     -0.644285    21A     -0.634636
      22A     -0.619724    23A     -0.587684    24A     -0.572221
      25A     -0.559977    26A     -0.533292    27A     -0.517077
      28A     -0.504388    29A     -0.472010    30A     -0.450566
      31A     -0.439298

  @DF-RHF Final Energy:  -418.74609283023466

   => Energetics <=

    Nuclear Repulsion Energy =            401.4619273867885454
    One-Electron Energy =               -1368.7918505812981493
    Two-Electron Energy =                 548.5838303642748315
    Total Energy =                       -418.7460928302347156
  Basis Set: (AUG-CC-PVTZ AUX)
    Blend: AUG-CC-PVTZ-RI
    Molecular point group: c1

    Geometry (in Angstrom), charge = 0, multiplicity = 1:

       Center              X                  Y                   Z               Mass
    ------------   -----------------  -----------------  -----------------  -----------------
         O            0.717049734555    -1.355463413460    -0.001370365037    15.994914619570
         O           -1.880856265445     1.170783586540     0.233724634963    15.994914619570
         O           -1.489035265445    -1.400168413460    -0.398230365037    15.994914619570
         C            0.452675734555     1.486349586540    -0.341719365037    12.000000000000
         C            1.830183734555     0.790693586540    -0.350749365037    12.000000000000
         C           -0.580902265445     0.664802586540     0.436855634963    12.000000000000
         C            1.800194734555    -0.503307413460     0.450156634963    12.000000000000
         C           -0.548110565445    -0.808641713460    -0.032255665037    12.000000000000
         H            0.497568734555     2.488870586540     0.092400634963     1.007825032230
         H            0.061435734555     1.597956586540    -1.356843365037     1.007825032230
         H            2.124872734555     0.547935586540    -1.375672365037     1.007825032230
         H            2.611528734555     1.438020586540     0.061417634963     1.007825032230
         H           -0.339131265445     0.692990586540     1.511490634963     1.007825032230
         H            2.698833734555    -1.102324413460     0.297689634963     1.007825032230
         H            1.688692734555    -0.319391413460     1.524296634963     1.007825032230
         H           -2.414541265445     0.401733586540    -0.054539365037     1.007825032230

  Basis Set: AUG-CC-PVTZ
    Blend: AUG-CC-PVTZ
  Basis Set: (AUG-CC-PVTZ AUX)
    Blend: AUG-CC-PVTZ-JKFIT
	 Reference Energy          =    -418.7460928302346588 [Eh]
	 Singles Energy            =      -0.0000000000000000 [Eh]
	 Same-Spin Energy          =      -0.4113590148890753 [Eh]
	 Opposite-Spin Energy      =      -1.2904591183183054 [Eh]
	 Correlation Energy        =      -1.7018181332073807 [Eh]
	 Total Energy              =    -420.4479109634420411 [Eh]

	 ================> DF-SCS-MP2 Energies <==================
	-----------------------------------------------------------
	 SCS Same-Spin Scale       =       0.3333333333333333 [-]
	 SCS Opposite-Spin Scale   =       1.2000000000000000 [-]
	 SCS Same-Spin Energy      =      -0.1371196716296918 [Eh]
	 SCS Opposite-Spin Energy  =      -1.5485509419819665 [Eh]
	 SCS Correlation Energy    =      -1.6856706136116584 [Eh]
	 SCS Total Energy          =    -420.4317634438463074 [Eh]
	-----------------------------------------------------------

  Dipole Moment: [D]
     X:     3.4688      Y:     1.4912      Z:     0.8881     Total:     3.8788

*** Psi4 exiting successfully. Buy a developer a beer!
