                               Psi4 1.3.2 release

  ==> Input File <==

--------------------------------------------------------------------------
#psi4
#
memory 32 gb

molecule  {
0 1
  O        0.6578240    -1.4038190    -0.0084800
  O       -1.9400820     1.1224280     0.2266150
  O       -1.5482610    -1.4485240    -0.4053400
  C        0.3934500     1.4379940    -0.3488290
  C        1.7498830     0.7023120    -0.3286133
  C       -0.6401280     0.6164470     0.4297460
  C        1.7409690    -0.5516630     0.4430470
  C       -0.5671300    -0.8317210    -0.0237270
  H        0.4383430     2.4405150     0.0852910
  H        0.0022100     1.5496010    -1.3639530
  H        2.0656470     0.4995800    -1.3827820
  H        2.5523030     1.3896650     0.0543080
  H       -0.3983570     0.6446350     1.5043810
  H        2.6396080    -1.1506800     0.2905800
  H        1.6294670    -0.3677470     1.5171870
  H       -2.4737670     0.3533780    -0.0616490
units angstrom
no_reorient  #important for SAPT in psi4, default
symmetry c1  #important for SAPT in psi4, default
}

set PROPERTIES_ORIGIN ["COM"]
properties('MP2/aug-cc-pvtz', properties = ['dipole'])
--------------------------------------------------------------------------

    Molecular point group: c1
  Charge       = 0
  Multiplicity = 1
  Basis Set: AUG-CC-PVTZ
    Blend: AUG-CC-PVTZ
  Basis Set: (AUG-CC-PVTZ AUX)
    Blend: AUG-CC-PVTZ-JKFIT

    Orbital Energies [Eh]
    ---------------------

    Doubly Occupied:

       1A    -20.618542     2A    -20.566203     3A    -20.556635
       4A    -11.393244     5A    -11.312784     6A    -11.312757
       7A    -11.256406     8A    -11.250473     9A     -1.468461
      10A     -1.385209    11A     -1.358532    12A     -1.108021
      13A     -1.029916    14A     -0.917533    15A     -0.866798
      16A     -0.759836    17A     -0.746265    18A     -0.711649
      19A     -0.694293    20A     -0.641378    21A     -0.633283
      22A     -0.616088    23A     -0.593139    24A     -0.571577
      25A     -0.560452    26A     -0.527604    27A     -0.520558
      28A     -0.494025    29A     -0.470901    30A     -0.451606
      31A     -0.444166

  @DF-RHF Final Energy:  -418.74253408238405

   => Energetics <=

    Nuclear Repulsion Energy =            402.4519019647847813
    One-Electron Energy =               -1370.7122045606245138
    Two-Electron Energy =                 549.5177685134556214
    Total Energy =                       -418.7425340823840543
  Basis Set: (AUG-CC-PVTZ AUX)
    Blend: AUG-CC-PVTZ-RI
    Molecular point group: c1

    Geometry (in Angstrom), charge = 0, multiplicity = 1:

       Center              X                  Y                   Z               Mass
    ------------   -----------------  -----------------  -----------------  -----------------
         O            0.715071441973    -1.353938204923    -0.006011643164    15.994914619570
         O           -1.882834558027     1.172308795077     0.229083356836    15.994914619570
         O           -1.491013558027    -1.398643204923    -0.402871643164    15.994914619570
         C            0.450697441973     1.487874795077    -0.346360643164    12.000000000000
         C            1.807130441973     0.752192795077    -0.326144943164    12.000000000000
         C           -0.582880558027     0.666327795077     0.432214356836    12.000000000000
         C            1.798216441973    -0.501782204923     0.445515356836    12.000000000000
         C           -0.509882558027    -0.781840204923    -0.021258643164    12.000000000000
         H            0.495590441973     2.490395795077     0.087759356836     1.007825032230
         H            0.059457441973     1.599481795077    -1.361484643164     1.007825032230
         H            2.122894441973     0.549460795077    -1.380313643164     1.007825032230
         H            2.609550441973     1.439545795077     0.056776356836     1.007825032230
         H           -0.341109558027     0.694515795077     1.506849356836     1.007825032230
         H            2.696855441973    -1.100799204923     0.293048356836     1.007825032230
         H            1.686714441973    -0.317866204923     1.519655356836     1.007825032230
         H           -2.416519558027     0.403258795077    -0.059180643164     1.007825032230

  Basis Set: AUG-CC-PVTZ
    Blend: AUG-CC-PVTZ
  Basis Set: (AUG-CC-PVTZ AUX)
    Blend: AUG-CC-PVTZ-JKFIT
	 Reference Energy          =    -418.7425340823840543 [Eh]
	 Singles Energy            =      -0.0000000000000000 [Eh]
	 Same-Spin Energy          =      -0.4130023861302213 [Eh]
	 Opposite-Spin Energy      =      -1.2931557729976104 [Eh]
	 Correlation Energy        =      -1.7061581591278316 [Eh]
	 Total Energy              =    -420.4486922415118784 [Eh]

	 ================> DF-SCS-MP2 Energies <==================
	-----------------------------------------------------------
	 SCS Same-Spin Scale       =       0.3333333333333333 [-]
	 SCS Opposite-Spin Scale   =       1.2000000000000000 [-]
	 SCS Same-Spin Energy      =      -0.1376674620434071 [Eh]
	 SCS Opposite-Spin Energy  =      -1.5517869275971325 [Eh]
	 SCS Correlation Energy    =      -1.6894543896405396 [Eh]
	 SCS Total Energy          =    -420.4319884720246137 [Eh]
	-----------------------------------------------------------

  Dipole Moment: [D]
     X:     3.8529      Y:     1.6569      Z:     0.9836     Total:     4.3078

*** Psi4 exiting successfully. Buy a developer a beer!
