                               Psi4 1.3.2 release

  ==> Input File <==

--------------------------------------------------------------------------
#psi4
#
memory 32 gb

molecule  {
0 1
  O        0.6578240    -1.4038190    -0.0084800
  O       -1.9191574     1.0969350     0.0827957
  O       -1.5482610    -1.4485240    -0.4053400
  C        0.3934500     1.4379940    -0.3488290
  C        1.7709580     0.7423380    -0.3578590
  C       -0.6401280     0.6164470     0.4297460
  C        1.7409690    -0.5516630     0.4430470
  C       -0.5671300    -0.8317210    -0.0237270
  H        0.4383430     2.4405150     0.0852910
  H        0.0022100     1.5496010    -1.3639530
  H        2.0656470     0.4995800    -1.3827820
  H        2.5523030     1.3896650     0.0543080
  H       -0.3983570     0.6446350     1.5043810
  H        2.6396080    -1.1506800     0.2905800
  H        1.6294670    -0.3677470     1.5171870
  H       -2.4737670     0.3533780    -0.0616490
units angstrom
no_reorient  #important for SAPT in psi4, default
symmetry c1  #important for SAPT in psi4, default
}

set PROPERTIES_ORIGIN ["COM"]
properties('MP2/aug-cc-pvtz', properties = ['dipole'])
--------------------------------------------------------------------------

    Molecular point group: c1
  Charge       = 0
  Multiplicity = 1
  Basis Set: AUG-CC-PVTZ
    Blend: AUG-CC-PVTZ
  Basis Set: (AUG-CC-PVTZ AUX)
    Blend: AUG-CC-PVTZ-JKFIT

    Orbital Energies [Eh]
    ---------------------

    Doubly Occupied:

       1A    -20.617323     2A    -20.562704     3A    -20.554185
       4A    -11.390762     5A    -11.314529     6A    -11.313741
       7A    -11.253457     8A    -11.248526     9A     -1.466732
      10A     -1.390475    11A     -1.359113    12A     -1.103221
      13A     -1.026142    14A     -0.918968    15A     -0.867659
      16A     -0.760708    17A     -0.744208    18A     -0.717875
      19A     -0.691607    20A     -0.649202    21A     -0.629022
      22A     -0.619634    23A     -0.591058    24A     -0.571593
      25A     -0.551417    26A     -0.528688    27A     -0.516160
      28A     -0.499537    29A     -0.470712    30A     -0.452973
      31A     -0.443070

  @DF-RHF Final Energy:  -418.74489108156843

   => Energetics <=

    Nuclear Repulsion Energy =            402.7065944608486348
    One-Electron Energy =               -1371.2529723815612215
    Two-Electron Energy =                 549.8014868391441041
    Total Energy =                       -418.7448910815684258
  Basis Set: (AUG-CC-PVTZ AUX)
    Blend: AUG-CC-PVTZ-RI
    Molecular point group: c1

    Geometry (in Angstrom), charge = 0, multiplicity = 1:

       Center              X                  Y                   Z               Mass
    ------------   -----------------  -----------------  -----------------  -----------------
         O            0.710008101705    -1.354563412179     0.016835289218    15.994914619570
         O           -1.866973298295     1.146190587821     0.108110989218    15.994914619570
         O           -1.496076898295    -1.399268412179    -0.380024710782    15.994914619570
         C            0.445634101705     1.487249587821    -0.323513710782    12.000000000000
         C            1.823142101705     0.791593587821    -0.332543710782    12.000000000000
         C           -0.587943898295     0.665702587821     0.455061289218    12.000000000000
         C            1.793153101705    -0.502407412179     0.468362289218    12.000000000000
         C           -0.514945898295    -0.782465412179     0.001588289218    12.000000000000
         H            0.490527101705     2.489770587821     0.110606289218     1.007825032230
         H            0.054394101705     1.598856587821    -1.338637710782     1.007825032230
         H            2.117831101705     0.548835587821    -1.357466710782     1.007825032230
         H            2.604487101705     1.438920587821     0.079623289218     1.007825032230
         H           -0.346172898295     0.693890587821     1.529696289218     1.007825032230
         H            2.691792101705    -1.101424412179     0.315895289218     1.007825032230
         H            1.681651101705    -0.318491412179     1.542502289218     1.007825032230
         H           -2.421582898295     0.402633587821    -0.036333710782     1.007825032230

  Basis Set: AUG-CC-PVTZ
    Blend: AUG-CC-PVTZ
  Basis Set: (AUG-CC-PVTZ AUX)
    Blend: AUG-CC-PVTZ-JKFIT
	 Reference Energy          =    -418.7448910815684258 [Eh]
	 Singles Energy            =      -0.0000000000000000 [Eh]
	 Same-Spin Energy          =      -0.4121138636678808 [Eh]
	 Opposite-Spin Energy      =      -1.2914770763915477 [Eh]
	 Correlation Energy        =      -1.7035909400594287 [Eh]
	 Total Energy              =    -420.4484820216278536 [Eh]

	 ================> DF-SCS-MP2 Energies <==================
	-----------------------------------------------------------
	 SCS Same-Spin Scale       =       0.3333333333333333 [-]
	 SCS Opposite-Spin Scale   =       1.2000000000000000 [-]
	 SCS Same-Spin Energy      =      -0.1373712878892936 [Eh]
	 SCS Opposite-Spin Energy  =      -1.5497724916698572 [Eh]
	 SCS Correlation Energy    =      -1.6871437795591508 [Eh]
	 SCS Total Energy          =    -420.4320348611275904 [Eh]
	-----------------------------------------------------------

  Dipole Moment: [D]
     X:     3.7588      Y:     1.7010      Z:     1.2768     Total:     4.3189

*** Psi4 exiting successfully. Buy a developer a beer!
