                               Psi4 1.3.2 release

  ==> Input File <==

--------------------------------------------------------------------------
#psi4
#
memory 32 gb

molecule  {
0 1
  O        0.7635997    -1.5080297    -0.0400280
  O       -1.9400820     1.1224280     0.2266150
  O       -1.5482610    -1.4485240    -0.4053400
  C        0.3934500     1.4379940    -0.3488290
  C        1.7709580     0.7423380    -0.3578590
  C       -0.6401280     0.6164470     0.4297460
  C        1.7409690    -0.5516630     0.4430470
  C       -0.5671300    -0.8317210    -0.0237270
  H        0.4383430     2.4405150     0.0852910
  H        0.0022100     1.5496010    -1.3639530
  H        2.0656470     0.4995800    -1.3827820
  H        2.5523030     1.3896650     0.0543080
  H       -0.3983570     0.6446350     1.5043810
  H        2.6396080    -1.1506800     0.2905800
  H        1.6294670    -0.3677470     1.5171870
  H       -2.4737670     0.3533780    -0.0616490
units angstrom
no_reorient  #important for SAPT in psi4, default
symmetry c1  #important for SAPT in psi4, default
}

set PROPERTIES_ORIGIN ["COM"]
properties('MP2/aug-cc-pvtz', properties = ['dipole'])
--------------------------------------------------------------------------

    Molecular point group: c1
  Charge       = 0
  Multiplicity = 1
  Basis Set: AUG-CC-PVTZ
    Blend: AUG-CC-PVTZ
  Basis Set: (AUG-CC-PVTZ AUX)
    Blend: AUG-CC-PVTZ-JKFIT

    Orbital Energies [Eh]
    ---------------------

    Doubly Occupied:

       1A    -20.613215     2A    -20.577107     3A    -20.574743
       4A    -11.407550     5A    -11.323328     6A    -11.302347
       7A    -11.252018     8A    -11.251371     9A     -1.441367
      10A     -1.381276    11A     -1.361763    12A     -1.102727
      13A     -1.014794    14A     -0.914779    15A     -0.856004
      16A     -0.765761    17A     -0.731595    18A     -0.709334
      19A     -0.685763    20A     -0.637370    21A     -0.625527
      22A     -0.612586    23A     -0.585916    24A     -0.573784
      25A     -0.552861    26A     -0.537222    27A     -0.520350
      28A     -0.504460    29A     -0.475001    30A     -0.452388
      31A     -0.445459

  @DF-RHF Final Energy:  -418.72168577021262

   => Energetics <=

    Nuclear Repulsion Energy =            397.5722473928003069
    One-Electron Energy =               -1361.0083307062077438
    Two-Electron Energy =                 544.7143975431947638
    Total Energy =                       -418.7216857702126163
  Basis Set: (AUG-CC-PVTZ AUX)
    Blend: AUG-CC-PVTZ-RI
    Molecular point group: c1

    Geometry (in Angstrom), charge = 0, multiplicity = 1:

       Center              X                  Y                   Z               Mass
    ------------   -----------------  -----------------  -----------------  -----------------
         O            0.804088694762    -1.447924377529    -0.030187169688    15.994914619570
         O           -1.899593005238     1.182533322471     0.236455830312    15.994914619570
         O           -1.507772005238    -1.388418677529    -0.395499169688    15.994914619570
         C            0.433938994762     1.498099322471    -0.338988169688    12.000000000000
         C            1.811446994762     0.802443322471    -0.348018169688    12.000000000000
         C           -0.599639005238     0.676552322471     0.439586830312    12.000000000000
         C            1.781457994762    -0.491557677529     0.452887830312    12.000000000000
         C           -0.526641005238    -0.771615677529    -0.013886169688    12.000000000000
         H            0.478831994762     2.500620322471     0.095131830312     1.007825032230
         H            0.042698994762     1.609706322471    -1.354112169688     1.007825032230
         H            2.106135994762     0.559685322471    -1.372941169688     1.007825032230
         H            2.592791994762     1.449770322471     0.064148830312     1.007825032230
         H           -0.357868005238     0.704740322471     1.514221830312     1.007825032230
         H            2.680096994762    -1.090574677529     0.300420830312     1.007825032230
         H            1.669955994762    -0.307641677529     1.527027830312     1.007825032230
         H           -2.433278005238     0.413483322471    -0.051808169688     1.007825032230

  Basis Set: AUG-CC-PVTZ
    Blend: AUG-CC-PVTZ
  Basis Set: (AUG-CC-PVTZ AUX)
    Blend: AUG-CC-PVTZ-JKFIT
	 Reference Energy          =    -418.7216857702126163 [Eh]
	 Singles Energy            =      -0.0000000000000000 [Eh]
	 Same-Spin Energy          =      -0.4146637410442147 [Eh]
	 Opposite-Spin Energy      =      -1.2993980871553474 [Eh]
	 Correlation Energy        =      -1.7140618281995621 [Eh]
	 Total Energy              =    -420.4357475984122061 [Eh]

	 ================> DF-SCS-MP2 Energies <==================
	-----------------------------------------------------------
	 SCS Same-Spin Scale       =       0.3333333333333333 [-]
	 SCS Opposite-Spin Scale   =       1.2000000000000000 [-]
	 SCS Same-Spin Energy      =      -0.1382212470147382 [Eh]
	 SCS Opposite-Spin Energy  =      -1.5592777045864168 [Eh]
	 SCS Correlation Energy    =      -1.6974989516011549 [Eh]
	 SCS Total Energy          =    -420.4191847218137923 [Eh]
	-----------------------------------------------------------

  Dipole Moment: [D]
     X:     2.9941      Y:     1.8710      Z:     0.9254     Total:     3.6499

*** Psi4 exiting successfully. Buy a developer a beer!
