                               Psi4 1.3.2 release

  ==> Input File <==

--------------------------------------------------------------------------
#psi4
#
memory 32 gb

molecule  {
0 1
  O        0.6578240    -1.4038190    -0.0084800
  O       -1.9400820     1.1224280     0.2266150
  O       -1.5482610    -1.4485240    -0.4053400
  C        0.3934500     1.4379940    -0.3488290
  C        1.7709580     0.7423380    -0.3578590
  C       -0.6401280     0.6164470     0.4297460
  C        1.7075600    -0.5142149     0.4496775
  C       -0.5671300    -0.8317210    -0.0237270
  H        0.4383430     2.4405150     0.0852910
  H        0.0022100     1.5496010    -1.3639530
  H        2.0656470     0.4995800    -1.3827820
  H        2.5523030     1.3896650     0.0543080
  H       -0.3983570     0.6446350     1.5043810
  H        2.6396080    -1.1506800     0.2905800
  H        1.6294670    -0.3677470     1.5171870
  H       -2.4737670     0.3533780    -0.0616490
units angstrom
no_reorient  #important for SAPT in psi4, default
symmetry c1  #important for SAPT in psi4, default
}

set PROPERTIES_ORIGIN ["COM"]
properties('MP2/aug-cc-pvtz', properties = ['dipole'])
--------------------------------------------------------------------------

    Molecular point group: c1
  Charge       = 0
  Multiplicity = 1
  Basis Set: AUG-CC-PVTZ
    Blend: AUG-CC-PVTZ
  Basis Set: (AUG-CC-PVTZ AUX)
    Blend: AUG-CC-PVTZ-JKFIT

    Orbital Energies [Eh]
    ---------------------

    Doubly Occupied:

       1A    -20.620879     2A    -20.567057     3A    -20.556674
       4A    -11.392762     5A    -11.314831     6A    -11.313692
       7A    -11.254079     8A    -11.249590     9A     -1.469535
      10A     -1.385754    11A     -1.358927    12A     -1.108030
      13A     -1.024889    14A     -0.918275    15A     -0.867814
      16A     -0.762271    17A     -0.748104    18A     -0.707394
      19A     -0.693889    20A     -0.642595    21A     -0.628545
      22A     -0.617176    23A     -0.593593    24A     -0.573166
      25A     -0.559341    26A     -0.531237    27A     -0.512177
      28A     -0.501720    29A     -0.471955    30A     -0.452729
      31A     -0.443720

  @DF-RHF Final Energy:  -418.74230766768051

   => Energetics <=

    Nuclear Repulsion Energy =            402.2839499063230164
    One-Electron Energy =               -1370.3677171076005834
    Two-Electron Energy =                 549.3414595335971171
    Total Energy =                       -418.7423076676805067
  Basis Set: (AUG-CC-PVTZ AUX)
    Blend: AUG-CC-PVTZ-RI
    Molecular point group: c1

    Geometry (in Angstrom), charge = 0, multiplicity = 1:

       Center              X                  Y                   Z               Mass
    ------------   -----------------  -----------------  -----------------  -----------------
         O            0.716346852463    -1.361949497272    -0.003673094169    15.994914619570
         O           -1.881559147537     1.164297502728     0.231421905831    15.994914619570
         O           -1.489738147537    -1.406654497272    -0.400533094169    15.994914619570
         C            0.451972852463     1.479863502728    -0.344022094169    12.000000000000
         C            1.829480852463     0.784207502728    -0.353052094169    12.000000000000
         C           -0.581605147537     0.658316502728     0.434552905831    12.000000000000
         C            1.766082852463    -0.472345397272     0.454484405831    12.000000000000
         C           -0.508607147537    -0.789851497272    -0.018920094169    12.000000000000
         H            0.496865852463     2.482384502728     0.090097905831     1.007825032230
         H            0.060732852463     1.591470502728    -1.359146094169     1.007825032230
         H            2.124169852463     0.541449502728    -1.377975094169     1.007825032230
         H            2.610825852463     1.431534502728     0.059114905831     1.007825032230
         H           -0.339834147537     0.686504502728     1.509187905831     1.007825032230
         H            2.698130852463    -1.108810497272     0.295386905831     1.007825032230
         H            1.687989852463    -0.325877497272     1.521993905831     1.007825032230
         H           -2.415244147537     0.395247502728    -0.056842094169     1.007825032230

  Basis Set: AUG-CC-PVTZ
    Blend: AUG-CC-PVTZ
  Basis Set: (AUG-CC-PVTZ AUX)
    Blend: AUG-CC-PVTZ-JKFIT
	 Reference Energy          =    -418.7423076676805067 [Eh]
	 Singles Energy            =      -0.0000000000000000 [Eh]
	 Same-Spin Energy          =      -0.4130576100331373 [Eh]
	 Opposite-Spin Energy      =      -1.2934217249966538 [Eh]
	 Correlation Energy        =      -1.7064793350297911 [Eh]
	 Total Energy              =    -420.4487870027102758 [Eh]

	 ================> DF-SCS-MP2 Energies <==================
	-----------------------------------------------------------
	 SCS Same-Spin Scale       =       0.3333333333333333 [-]
	 SCS Opposite-Spin Scale   =       1.2000000000000000 [-]
	 SCS Same-Spin Energy      =      -0.1376858700110458 [Eh]
	 SCS Opposite-Spin Energy  =      -1.5521060699959845 [Eh]
	 SCS Correlation Energy    =      -1.6897919400070303 [Eh]
	 SCS Total Energy          =    -420.4320996076875190 [Eh]
	-----------------------------------------------------------

  Dipole Moment: [D]
     X:     3.8063      Y:     1.6940      Z:     0.9855     Total:     4.2812

*** Psi4 exiting successfully. Buy a developer a beer!
