                               Psi4 1.3.2 release

  ==> Input File <==

--------------------------------------------------------------------------
#psi4
#
memory 32 gb

molecule  {
0 1
  O        0.6386137    -1.4434563    -0.0254222
  O       -1.9400820     1.1224280     0.2266150
  O       -1.5482610    -1.4485240    -0.4053400
  C        0.3934500     1.4379940    -0.3488290
  C        1.7709580     0.7423380    -0.3578590
  C       -0.6401280     0.6164470     0.4297460
  C        1.7409690    -0.5516630     0.4430470
  C       -0.5671300    -0.8317210    -0.0237270
  H        0.4383430     2.4405150     0.0852910
  H        0.0022100     1.5496010    -1.3639530
  H        2.0656470     0.4995800    -1.3827820
  H        2.5523030     1.3896650     0.0543080
  H       -0.3983570     0.6446350     1.5043810
  H        2.6396080    -1.1506800     0.2905800
  H        1.6294670    -0.3677470     1.5171870
  H       -2.4737670     0.3533780    -0.0616490
units angstrom
no_reorient  #important for SAPT in psi4, default
symmetry c1  #important for SAPT in psi4, default
}

set PROPERTIES_ORIGIN ["COM"]
properties('MP2/aug-cc-pvtz', properties = ['dipole'])
--------------------------------------------------------------------------

    Molecular point group: c1
  Charge       = 0
  Multiplicity = 1
  Basis Set: AUG-CC-PVTZ
    Blend: AUG-CC-PVTZ
  Basis Set: (AUG-CC-PVTZ AUX)
    Blend: AUG-CC-PVTZ-JKFIT

    Orbital Energies [Eh]
    ---------------------

    Doubly Occupied:

       1A    -20.618948     2A    -20.567145     3A    -20.552846
       4A    -11.390089     5A    -11.317756     6A    -11.314529
       7A    -11.257015     8A    -11.250643     9A     -1.461715
      10A     -1.381546    11A     -1.354100    12A     -1.105684
      13A     -1.022001    14A     -0.919491    15A     -0.862758
      16A     -0.761869    17A     -0.742562    18A     -0.708044
      19A     -0.688060    20A     -0.638699    21A     -0.625089
      22A     -0.621793    23A     -0.593208    24A     -0.573722
      25A     -0.555206    26A     -0.530917    27A     -0.517969
      28A     -0.499023    29A     -0.469917    30A     -0.450972
      31A     -0.446128

  @DF-RHF Final Energy:  -418.74289362328886

   => Energetics <=

    Nuclear Repulsion Energy =            400.6833829918952006
    One-Electron Energy =               -1367.2536690667161565
    Two-Electron Energy =                 547.8273924515320914
    Total Energy =                       -418.7428936232888645
  Basis Set: (AUG-CC-PVTZ AUX)
    Blend: AUG-CC-PVTZ-RI
    Molecular point group: c1

    Geometry (in Angstrom), charge = 0, multiplicity = 1:

       Center              X                  Y                   Z               Mass
    ------------   -----------------  -----------------  -----------------  -----------------
         O            0.696329632732    -1.392251190003    -0.017594500844    15.994914619570
         O           -1.882366067268     1.173633109997     0.234442699156    15.994914619570
         O           -1.490545067268    -1.397318890003    -0.397512300844    15.994914619570
         C            0.451165932732     1.489199109997    -0.341001300844    12.000000000000
         C            1.828673932732     0.793543109997    -0.350031300844    12.000000000000
         C           -0.582412067268     0.667652109997     0.437573699156    12.000000000000
         C            1.798684932732    -0.500457890003     0.450874699156    12.000000000000
         C           -0.509414067268    -0.780515890003    -0.015899300844    12.000000000000
         H            0.496058932732     2.491720109997     0.093118699156     1.007825032230
         H            0.059925932732     1.600806109997    -1.356125300844     1.007825032230
         H            2.123362932732     0.550785109997    -1.374954300844     1.007825032230
         H            2.610018932732     1.440870109997     0.062135699156     1.007825032230
         H           -0.340641067268     0.695840109997     1.512208699156     1.007825032230
         H            2.697323932732    -1.099474890003     0.298407699156     1.007825032230
         H            1.687182932732    -0.316541890003     1.525014699156     1.007825032230
         H           -2.416051067268     0.404583109997    -0.053821300844     1.007825032230

  Basis Set: AUG-CC-PVTZ
    Blend: AUG-CC-PVTZ
  Basis Set: (AUG-CC-PVTZ AUX)
    Blend: AUG-CC-PVTZ-JKFIT
	 Reference Energy          =    -418.7428936232888645 [Eh]
	 Singles Energy            =      -0.0000000000000000 [Eh]
	 Same-Spin Energy          =      -0.4127971183460835 [Eh]
	 Opposite-Spin Energy      =      -1.2938465644789863 [Eh]
	 Correlation Energy        =      -1.7066436828250697 [Eh]
	 Total Energy              =    -420.4495373061139389 [Eh]

	 ================> DF-SCS-MP2 Energies <==================
	-----------------------------------------------------------
	 SCS Same-Spin Scale       =       0.3333333333333333 [-]
	 SCS Opposite-Spin Scale   =       1.2000000000000000 [-]
	 SCS Same-Spin Energy      =      -0.1375990394486945 [Eh]
	 SCS Opposite-Spin Energy  =      -1.5526158773747836 [Eh]
	 SCS Correlation Energy    =      -1.6902149168234781 [Eh]
	 SCS Total Energy          =    -420.4331085401123573 [Eh]
	-----------------------------------------------------------

  Dipole Moment: [D]
     X:     3.9418      Y:     1.7580      Z:     1.0200     Total:     4.4349

*** Psi4 exiting successfully. Buy a developer a beer!
