                               Psi4 1.4a3.dev225

  ==> Input File <==

--------------------------------------------------------------------------
#psi4
#
memory 32 gb

molecule  {
0 1
  O        0.6578240    -1.4038190    -0.0084800
  O       -1.9400820     1.1224280     0.2266150
  O       -1.5482610    -1.4485240    -0.4053400
  C        0.3934500     1.4379940    -0.3488290
  C        1.7709580     0.7423380    -0.3578590
  C       -0.6401280     0.6164470     0.4297460
  C        1.7409690    -0.5516630     0.4430470
  C       -0.6124299    -0.8105643    -0.0242908
  H        0.4383430     2.4405150     0.0852910
  H        0.0022100     1.5496010    -1.3639530
  H        2.0656470     0.4995800    -1.3827820
  H        2.5523030     1.3896650     0.0543080
  H       -0.3983570     0.6446350     1.5043810
  H        2.6396080    -1.1506800     0.2905800
  H        1.6294670    -0.3677470     1.5171870
  H       -2.4737670     0.3533780    -0.0616490
units angstrom
no_reorient  #important for SAPT in psi4, default
symmetry c1  #important for SAPT in psi4, default
}

set PROPERTIES_ORIGIN ["COM"]
properties('MP2/aug-cc-pvtz', properties = ['dipole'])
--------------------------------------------------------------------------

    Molecular point group: c1
  Charge       = 0
  Multiplicity = 1
  Basis Set: AUG-CC-PVTZ
    Blend: AUG-CC-PVTZ
  Basis Set: (AUG-CC-PVTZ AUX)
    Blend: AUG-CC-PVTZ-JKFIT

    Orbital Energies [Eh]
    ---------------------

    Doubly Occupied:

       1A    -20.607339     2A    -20.568678     3A    -20.566043
       4A    -11.393317     5A    -11.314318     6A    -11.307865
       7A    -11.251912     8A    -11.250608     9A     -1.461710
      10A     -1.384422    11A     -1.366893    12A     -1.101029
      13A     -1.023567    14A     -0.917034    15A     -0.863346
      16A     -0.762757    17A     -0.739366    18A     -0.711785
      19A     -0.689664    20A     -0.640824    21A     -0.631992
      22A     -0.620538    23A     -0.586315    24A     -0.571299
      25A     -0.556959    26A     -0.534353    27A     -0.517162
      28A     -0.502752    29A     -0.470953    30A     -0.452382
      31A     -0.447067

  @DF-RHF Final Energy:  -418.74354271889752

   => Energetics <=

    Nuclear Repulsion Energy =            401.5508164423054041
    One-Electron Energy =               -1368.9602188587932687
    Two-Electron Energy =                 548.6658596975903492
    Total Energy =                       -418.7435427188975154
  Basis Set: (AUG-CC-PVTZ AUX)
    Blend: AUG-CC-PVTZ-RI
    Molecular point group: c1

    Geometry (in Angstrom), charge = 0, multiplicity = 1:

       Center              X                  Y                   Z               Mass
    ------------   -----------------  -----------------  -----------------  -----------------
         O            0.717576443722    -1.360264867593    -0.002929159866    15.994914619570
         O           -1.880329556278     1.165982132407     0.232165840134    15.994914619570
         O           -1.488508556278    -1.404969867593    -0.399789159866    15.994914619570
         C            0.453202443722     1.481548132407    -0.343278159866    12.000000000000
         C            1.830710443722     0.785892132407    -0.352308159866    12.000000000000
         C           -0.580375556278     0.660001132407     0.435296840134    12.000000000000
         C            1.800721443722    -0.508108867593     0.448597840134    12.000000000000
         C           -0.552677456278    -0.767010167593    -0.018739959866    12.000000000000
         H            0.498095443722     2.484069132407     0.090841840134     1.007825032230
         H            0.061962443722     1.593155132407    -1.358402159866     1.007825032230
         H            2.125399443722     0.543134132407    -1.377231159866     1.007825032230
         H            2.612055443722     1.433219132407     0.059858840134     1.007825032230
         H           -0.338604556278     0.688189132407     1.509931840134     1.007825032230
         H            2.699360443722    -1.107125867593     0.296130840134     1.007825032230
         H            1.689219443722    -0.324192867593     1.522737840134     1.007825032230
         H           -2.414014556278     0.396932132407    -0.056098159866     1.007825032230

  Basis Set: AUG-CC-PVTZ
    Blend: AUG-CC-PVTZ
  Basis Set: (AUG-CC-PVTZ AUX)
    Blend: AUG-CC-PVTZ-JKFIT
	 Reference Energy          =    -418.7435427188975154 [Eh]
	 Singles Energy            =      -0.0000000000000000 [Eh]
	 Same-Spin Energy          =      -0.4125532952883453 [Eh]
	 Opposite-Spin Energy      =      -1.2929258396830778 [Eh]
	 Correlation Energy        =      -1.7054791349714231 [Eh]
	 Total Energy              =    -420.4490218538689419 [Eh]

	 ================> DF-SCS-MP2 Energies <==================
	-----------------------------------------------------------
	 SCS Same-Spin Scale       =       0.3333333333333333 [-]
	 SCS Opposite-Spin Scale   =       1.2000000000000000 [-]
	 SCS Same-Spin Energy      =      -0.1375177650961151 [Eh]
	 SCS Opposite-Spin Energy  =      -1.5515110076196934 [Eh]
	 SCS Correlation Energy    =      -1.6890287727158084 [Eh]
	 SCS Total Energy          =    -420.4325714916133165 [Eh]
	-----------------------------------------------------------

  Dipole Moment: [D]
     X:     3.4329      Y:     1.7095      Z:     0.9383     Total:     3.9481

*** Psi4 exiting successfully. Buy a developer a beer!
