                               Psi4 1.4a3.dev225

  ==> Input File <==

--------------------------------------------------------------------------
#psi4
#
memory 32 gb

molecule  {
0 1
  O        0.6578240    -1.4038190    -0.0084800
  O       -1.9400820     1.1224280     0.2266150
  O       -1.5482610    -1.4485240    -0.4053400
  C        0.3934500     1.4379940    -0.3488290
  C        1.7709580     0.7423380    -0.3578590
  C       -0.6401280     0.6164470     0.4297460
  C        1.7409690    -0.5516630     0.4430470
  C       -0.5661690    -0.8507851    -0.0296966
  H        0.4383430     2.4405150     0.0852910
  H        0.0022100     1.5496010    -1.3639530
  H        2.0656470     0.4995800    -1.3827820
  H        2.5523030     1.3896650     0.0543080
  H       -0.3983570     0.6446350     1.5043810
  H        2.6396080    -1.1506800     0.2905800
  H        1.6294670    -0.3677470     1.5171870
  H       -2.4737670     0.3533780    -0.0616490
units angstrom
no_reorient  #important for SAPT in psi4, default
symmetry c1  #important for SAPT in psi4, default
}

set PROPERTIES_ORIGIN ["COM"]
properties('MP2/aug-cc-pvtz', properties = ['dipole'])
--------------------------------------------------------------------------

    Molecular point group: c1
  Charge       = 0
  Multiplicity = 1
  Basis Set: AUG-CC-PVTZ
    Blend: AUG-CC-PVTZ
  Basis Set: (AUG-CC-PVTZ AUX)
    Blend: AUG-CC-PVTZ-JKFIT

    Orbital Energies [Eh]
    ---------------------

    Doubly Occupied:

       1A    -20.619126     2A    -20.565499     3A    -20.556703
       4A    -11.391660     5A    -11.315041     6A    -11.311974
       7A    -11.254394     8A    -11.248514     9A     -1.471604
      10A     -1.387095    11A     -1.361257    12A     -1.102414
      13A     -1.023279    14A     -0.916226    15A     -0.866916
      16A     -0.759702    17A     -0.745930    18A     -0.710462
      19A     -0.691805    20A     -0.642267    21A     -0.633688
      22A     -0.619395    23A     -0.593101    24A     -0.572430
      25A     -0.555410    26A     -0.531257    27A     -0.516460
      28A     -0.501998    29A     -0.470722    30A     -0.449833
      31A     -0.441990

  @DF-RHF Final Energy:  -418.74741694040335

   => Energetics <=

    Nuclear Repulsion Energy =            401.5577478381075025
    One-Electron Energy =               -1368.9540262162659019
    Two-Electron Energy =                 548.6488614377550448
    Total Energy =                       -418.7474169404033546
  Basis Set: (AUG-CC-PVTZ AUX)
    Blend: AUG-CC-PVTZ-RI
    Molecular point group: c1

    Geometry (in Angstrom), charge = 0, multiplicity = 1:

       Center              X                  Y                   Z               Mass
    ------------   -----------------  -----------------  -----------------  -----------------
         O            0.712792785775    -1.356105792660    -0.002370167323    15.994914619570
         O           -1.885113214225     1.170141207340     0.232724832677    15.994914619570
         O           -1.493292214225    -1.400810792660    -0.399230167323    15.994914619570
         C            0.448418785775     1.485707207340    -0.342719167323    12.000000000000
         C            1.825926785775     0.790051207340    -0.351749167323    12.000000000000
         C           -0.585159214225     0.664160207340     0.435855832677    12.000000000000
         C            1.795937785775    -0.503949792660     0.449156832677    12.000000000000
         C           -0.511200214225    -0.803071892660    -0.023586767323    12.000000000000
         H            0.493311785775     2.488228207340     0.091400832677     1.007825032230
         H            0.057178785775     1.597314207340    -1.357843167323     1.007825032230
         H            2.120615785775     0.547293207340    -1.376672167323     1.007825032230
         H            2.607271785775     1.437378207340     0.060417832677     1.007825032230
         H           -0.343388214225     0.692348207340     1.510490832677     1.007825032230
         H            2.694576785775    -1.102966792660     0.296689832677     1.007825032230
         H            1.684435785775    -0.320033792660     1.523296832677     1.007825032230
         H           -2.418798214225     0.401091207340    -0.055539167323     1.007825032230

  Basis Set: AUG-CC-PVTZ
    Blend: AUG-CC-PVTZ
  Basis Set: (AUG-CC-PVTZ AUX)
    Blend: AUG-CC-PVTZ-JKFIT
	 Reference Energy          =    -418.7474169404033546 [Eh]
	 Singles Energy            =      -0.0000000000000000 [Eh]
	 Same-Spin Energy          =      -0.4120966581744401 [Eh]
	 Opposite-Spin Energy      =      -1.2916851376129683 [Eh]
	 Correlation Energy        =      -1.7037817957874084 [Eh]
	 Total Energy              =    -420.4511987361907472 [Eh]

	 ================> DF-SCS-MP2 Energies <==================
	-----------------------------------------------------------
	 SCS Same-Spin Scale       =       0.3333333333333333 [-]
	 SCS Opposite-Spin Scale   =       1.2000000000000000 [-]
	 SCS Same-Spin Energy      =      -0.1373655527248134 [Eh]
	 SCS Opposite-Spin Energy  =      -1.5500221651355619 [Eh]
	 SCS Correlation Energy    =      -1.6873877178603753 [Eh]
	 SCS Total Energy          =    -420.4348046582637153 [Eh]
	-----------------------------------------------------------

  Dipole Moment: [D]
     X:     3.8671      Y:     1.5581      Z:     0.9628     Total:     4.2789

*** Psi4 exiting successfully. Buy a developer a beer!
