                               Psi4 1.3.2 release

  ==> Input File <==

--------------------------------------------------------------------------
#psi4
#
memory 32 gb

molecule  {
0 1
  O        0.6343212    -1.3321567    -0.0760000
  O       -1.9400820     1.1224280     0.2266150
  O       -1.5482610    -1.4485240    -0.4053400
  C        0.3934500     1.4379940    -0.3488290
  C        1.7709580     0.7423380    -0.3578590
  C       -0.6401280     0.6164470     0.4297460
  C        1.7409690    -0.5516630     0.4430470
  C       -0.5671300    -0.8317210    -0.0237270
  H        0.4383430     2.4405150     0.0852910
  H        0.0022100     1.5496010    -1.3639530
  H        2.0656470     0.4995800    -1.3827820
  H        2.5523030     1.3896650     0.0543080
  H       -0.3983570     0.6446350     1.5043810
  H        2.6396080    -1.1506800     0.2905800
  H        1.6294670    -0.3677470     1.5171870
  H       -2.4737670     0.3533780    -0.0616490
units angstrom
no_reorient  #important for SAPT in psi4, default
symmetry c1  #important for SAPT in psi4, default
}

set PROPERTIES_ORIGIN ["COM"]
properties('MP2/aug-cc-pvtz', properties = ['dipole'])
--------------------------------------------------------------------------

    Molecular point group: c1
  Charge       = 0
  Multiplicity = 1
  Basis Set: AUG-CC-PVTZ
    Blend: AUG-CC-PVTZ
  Basis Set: (AUG-CC-PVTZ AUX)
    Blend: AUG-CC-PVTZ-JKFIT

    Orbital Energies [Eh]
    ---------------------

    Doubly Occupied:

       1A    -20.621077     2A    -20.563242     3A    -20.548591
       4A    -11.387160     5A    -11.319949     6A    -11.308720
       7A    -11.254213     8A    -11.248608     9A     -1.485710
      10A     -1.383981    11A     -1.355298    12A     -1.103730
      13A     -1.030588    14A     -0.920814    15A     -0.869221
      16A     -0.760184    17A     -0.756133    18A     -0.711455
      19A     -0.694127    20A     -0.643396    21A     -0.633560
      22A     -0.619127    23A     -0.592426    24A     -0.574941
      25A     -0.552946    26A     -0.529787    27A     -0.516341
      28A     -0.497833    29A     -0.467431    30A     -0.448753
      31A     -0.442495

  @DF-RHF Final Energy:  -418.74608891708050

   => Energetics <=

    Nuclear Repulsion Energy =            403.5612144876759544
    One-Electron Energy =               -1372.9309320341865259
    Two-Electron Energy =                 550.6236286294301863
    Total Energy =                       -418.7460889170804421
  Basis Set: (AUG-CC-PVTZ AUX)
    Blend: AUG-CC-PVTZ-RI
    Molecular point group: c1

    Geometry (in Angstrom), charge = 0, multiplicity = 1:

       Center              X                  Y                   Z               Mass
    ------------   -----------------  -----------------  -----------------  -----------------
         O            0.692628772046    -1.296292118584    -0.061201115085    15.994914619570
         O           -1.881774427954     1.158292581416     0.241413884915    15.994914619570
         O           -1.489953427954    -1.412659418584    -0.390541115085    15.994914619570
         C            0.451757572046     1.473858581416    -0.334030115085    12.000000000000
         C            1.829265572046     0.778202581416    -0.343060115085    12.000000000000
         C           -0.581820427954     0.652311581416     0.444544884915    12.000000000000
         C            1.799276572046    -0.515798418584     0.457845884915    12.000000000000
         C           -0.508822427954    -0.795856418584    -0.008928115085    12.000000000000
         H            0.496650572046     2.476379581416     0.100089884915     1.007825032230
         H            0.060517572046     1.585465581416    -1.349154115085     1.007825032230
         H            2.123954572046     0.535444581416    -1.367983115085     1.007825032230
         H            2.610610572046     1.425529581416     0.069106884915     1.007825032230
         H           -0.340049427954     0.680499581416     1.519179884915     1.007825032230
         H            2.697915572046    -1.114815418584     0.305378884915     1.007825032230
         H            1.687774572046    -0.331882418584     1.531985884915     1.007825032230
         H           -2.415459427954     0.389242581416    -0.046850115085     1.007825032230

  Basis Set: AUG-CC-PVTZ
    Blend: AUG-CC-PVTZ
  Basis Set: (AUG-CC-PVTZ AUX)
    Blend: AUG-CC-PVTZ-JKFIT
	 Reference Energy          =    -418.7460889170804990 [Eh]
	 Singles Energy            =      -0.0000000000000000 [Eh]
	 Same-Spin Energy          =      -0.4121430133059386 [Eh]
	 Opposite-Spin Energy      =      -1.2908507332054684 [Eh]
	 Correlation Energy        =      -1.7029937465114071 [Eh]
	 Total Energy              =    -420.4490826635919234 [Eh]

	 ================> DF-SCS-MP2 Energies <==================
	-----------------------------------------------------------
	 SCS Same-Spin Scale       =       0.3333333333333333 [-]
	 SCS Opposite-Spin Scale   =       1.2000000000000000 [-]
	 SCS Same-Spin Energy      =      -0.1373810044353129 [Eh]
	 SCS Opposite-Spin Energy  =      -1.5490208798465621 [Eh]
	 SCS Correlation Energy    =      -1.6864018842818749 [Eh]
	 SCS Total Energy          =    -420.4324908013623485 [Eh]
	-----------------------------------------------------------

  Dipole Moment: [D]
     X:     4.1624      Y:     1.4997      Z:     1.1055     Total:     4.5603

*** Psi4 exiting successfully. Buy a developer a beer!
