                               Psi4 1.3.2 release

  ==> Input File <==

--------------------------------------------------------------------------
#psi4
#
memory 32 gb

molecule  {
0 1
  O        0.6179345    -1.4823483    -0.0423623
  O       -1.9400820     1.1224280     0.2266150
  O       -1.5482610    -1.4485240    -0.4053400
  C        0.3934500     1.4379940    -0.3488290
  C        1.7709580     0.7423380    -0.3578590
  C       -0.6401280     0.6164470     0.4297460
  C        1.7409690    -0.5516630     0.4430470
  C       -0.5671300    -0.8317210    -0.0237270
  H        0.4383430     2.4405150     0.0852910
  H        0.0022100     1.5496010    -1.3639530
  H        2.0656470     0.4995800    -1.3827820
  H        2.5523030     1.3896650     0.0543080
  H       -0.3983570     0.6446350     1.5043810
  H        2.6396080    -1.1506800     0.2905800
  H        1.6294670    -0.3677470     1.5171870
  H       -2.4737670     0.3533780    -0.0616490
units angstrom
no_reorient  #important for SAPT in psi4, default
symmetry c1  #important for SAPT in psi4, default
}

set PROPERTIES_ORIGIN ["COM"]
properties('MP2/aug-cc-pvtz', properties = ['dipole'])
--------------------------------------------------------------------------

    Molecular point group: c1
  Charge       = 0
  Multiplicity = 1
  Basis Set: AUG-CC-PVTZ
    Blend: AUG-CC-PVTZ
  Basis Set: (AUG-CC-PVTZ AUX)
    Blend: AUG-CC-PVTZ-JKFIT

    Orbital Energies [Eh]
    ---------------------

    Doubly Occupied:

       1A    -20.618470     2A    -20.567657     3A    -20.549228
       4A    -11.387320     5A    -11.321281     6A    -11.315874
       7A    -11.259289     8A    -11.251457     9A     -1.456660
      10A     -1.379165    11A     -1.348367    12A     -1.107865
      13A     -1.019516    14A     -0.920691    15A     -0.857956
      16A     -0.762701    17A     -0.739797    18A     -0.706426
      19A     -0.684762    20A     -0.635794    21A     -0.623729
      22A     -0.619389    23A     -0.593153    24A     -0.574628
      25A     -0.556429    26A     -0.530172    27A     -0.519203
      28A     -0.496528    29A     -0.469198    30A     -0.451271
      31A     -0.446489

  @DF-RHF Final Energy:  -418.73692819403760

   => Energetics <=

    Nuclear Repulsion Energy =            399.8089788038666370
    One-Electron Energy =               -1365.5508896002713755
    Two-Electron Energy =                 547.0049826023670221
    Total Energy =                       -418.7369281940376595
  Basis Set: (AUG-CC-PVTZ AUX)
    Blend: AUG-CC-PVTZ-RI
    Molecular point group: c1

    Geometry (in Angstrom), charge = 0, multiplicity = 1:

       Center              X                  Y                   Z               Mass
    ------------   -----------------  -----------------  -----------------  -----------------
         O            0.678500666324    -1.425782669052    -0.032199730923    15.994914619570
         O           -1.879515833676     1.178993630948     0.236777569077    15.994914619570
         O           -1.487694833676    -1.391958369052    -0.395177430923    15.994914619570
         C            0.454016166324     1.494559630948    -0.338666430923    12.000000000000
         C            1.831524166324     0.798903630948    -0.347696430923    12.000000000000
         C           -0.579561833676     0.673012630948     0.439908569077    12.000000000000
         C            1.801535166324    -0.495097369052     0.453209569077    12.000000000000
         C           -0.506563833676    -0.775155369052    -0.013564430923    12.000000000000
         H            0.498909166324     2.497080630948     0.095453569077     1.007825032230
         H            0.062776166324     1.606166630948    -1.353790430923     1.007825032230
         H            2.126213166324     0.556145630948    -1.372619430923     1.007825032230
         H            2.612869166324     1.446230630948     0.064470569077     1.007825032230
         H           -0.337790833676     0.701200630948     1.514543569077     1.007825032230
         H            2.700174166324    -1.094114369052     0.300742569077     1.007825032230
         H            1.690033166324    -0.311181369052     1.527349569077     1.007825032230
         H           -2.413200833676     0.409943630948    -0.051486430923     1.007825032230

  Basis Set: AUG-CC-PVTZ
    Blend: AUG-CC-PVTZ
  Basis Set: (AUG-CC-PVTZ AUX)
    Blend: AUG-CC-PVTZ-JKFIT
	 Reference Energy          =    -418.7369281940376027 [Eh]
	 Singles Energy            =      -0.0000000000000000 [Eh]
	 Same-Spin Energy          =      -0.4131431129151577 [Eh]
	 Opposite-Spin Energy      =      -1.2952614437670951 [Eh]
	 Correlation Energy        =      -1.7084045566822528 [Eh]
	 Total Energy              =    -420.4453327507198424 [Eh]

	 ================> DF-SCS-MP2 Energies <==================
	-----------------------------------------------------------
	 SCS Same-Spin Scale       =       0.3333333333333333 [-]
	 SCS Opposite-Spin Scale   =       1.2000000000000000 [-]
	 SCS Same-Spin Energy      =      -0.1377143709717192 [Eh]
	 SCS Opposite-Spin Energy  =      -1.5543137325205141 [Eh]
	 SCS Correlation Energy    =      -1.6920281034922333 [Eh]
	 SCS Total Energy          =    -420.4289562975298509 [Eh]
	-----------------------------------------------------------

  Dipole Moment: [D]
     X:     4.0211      Y:     1.8644      Z:     1.0538     Total:     4.5558

*** Psi4 exiting successfully. Buy a developer a beer!
