                               Psi4 1.3.2 release

  ==> Input File <==

--------------------------------------------------------------------------
#psi4
#
memory 32 gb

molecule  {
0 1
  O        0.6578240    -1.4038190    -0.0084800
  O       -1.9400820     1.1224280     0.2266150
  O       -1.6153623    -1.3420770    -0.3835025
  C        0.3934500     1.4379940    -0.3488290
  C        1.7709580     0.7423380    -0.3578590
  C       -0.6401280     0.6164470     0.4297460
  C        1.7409690    -0.5516630     0.4430470
  C       -0.5671300    -0.8317210    -0.0237270
  H        0.4383430     2.4405150     0.0852910
  H        0.0022100     1.5496010    -1.3639530
  H        2.0656470     0.4995800    -1.3827820
  H        2.5523030     1.3896650     0.0543080
  H       -0.3983570     0.6446350     1.5043810
  H        2.6396080    -1.1506800     0.2905800
  H        1.6294670    -0.3677470     1.5171870
  H       -2.4737670     0.3533780    -0.0616490
units angstrom
no_reorient  #important for SAPT in psi4, default
symmetry c1  #important for SAPT in psi4, default
}

set PROPERTIES_ORIGIN ["COM"]
properties('MP2/aug-cc-pvtz', properties = ['dipole'])
--------------------------------------------------------------------------

    Molecular point group: c1
  Charge       = 0
  Multiplicity = 1
  Basis Set: AUG-CC-PVTZ
    Blend: AUG-CC-PVTZ
  Basis Set: (AUG-CC-PVTZ AUX)
    Blend: AUG-CC-PVTZ-JKFIT

    Orbital Energies [Eh]
    ---------------------

    Doubly Occupied:

       1A    -20.625578     2A    -20.559331     3A    -20.559066
       4A    -11.395580     5A    -11.317372     6A    -11.306535
       7A    -11.254762     8A    -11.247135     9A     -1.469156
      10A     -1.390739    11A     -1.354466    12A     -1.102435
      13A     -1.024808    14A     -0.917279    15A     -0.867519
      16A     -0.757703    17A     -0.747524    18A     -0.712309
      19A     -0.693180    20A     -0.639896    21A     -0.635788
      22A     -0.619716    23A     -0.592543    24A     -0.569768
      25A     -0.553804    26A     -0.529272    27A     -0.516015
      28A     -0.502431    29A     -0.471518    30A     -0.448480
      31A     -0.441761

  @DF-RHF Final Energy:  -418.74250331228575

   => Energetics <=

    Nuclear Repulsion Energy =            402.3072898051092352
    One-Electron Energy =               -1370.4526518282755205
    Two-Electron Energy =                 549.4028587108805368
    Total Energy =                       -418.7425033122857485
  Basis Set: (AUG-CC-PVTZ AUX)
    Blend: AUG-CC-PVTZ-RI
    Molecular point group: c1

    Geometry (in Angstrom), charge = 0, multiplicity = 1:

       Center              X                  Y                   Z               Mass
    ------------   -----------------  -----------------  -----------------  -----------------
         O            0.722140794319    -1.372748826511    -0.005997343380    15.994914619570
         O           -1.875765205681     1.153498173489     0.229097656620    15.994914619570
         O           -1.551045505681    -1.311006826511    -0.381019843380    15.994914619570
         C            0.457766794319     1.469064173489    -0.346346343380    12.000000000000
         C            1.835274794319     0.773408173489    -0.355376343380    12.000000000000
         C           -0.575811205681     0.647517173489     0.432228656620    12.000000000000
         C            1.805285794319    -0.520592826511     0.445529656620    12.000000000000
         C           -0.502813205681    -0.800650826511    -0.021244343380    12.000000000000
         H            0.502659794319     2.471585173489     0.087773656620     1.007825032230
         H            0.066526794319     1.580671173489    -1.361470343380     1.007825032230
         H            2.129963794319     0.530650173489    -1.380299343380     1.007825032230
         H            2.616619794319     1.420735173489     0.056790656620     1.007825032230
         H           -0.334040205681     0.675705173489     1.506863656620     1.007825032230
         H            2.703924794319    -1.119609826511     0.293062656620     1.007825032230
         H            1.693783794319    -0.336676826511     1.519669656620     1.007825032230
         H           -2.409450205681     0.384448173489    -0.059166343380     1.007825032230

  Basis Set: AUG-CC-PVTZ
    Blend: AUG-CC-PVTZ
  Basis Set: (AUG-CC-PVTZ AUX)
    Blend: AUG-CC-PVTZ-JKFIT
	 Reference Energy          =    -418.7425033122857485 [Eh]
	 Singles Energy            =      -0.0000000000000000 [Eh]
	 Same-Spin Energy          =      -0.4129489740658028 [Eh]
	 Opposite-Spin Energy      =      -1.2928982848661810 [Eh]
	 Correlation Energy        =      -1.7058472589319837 [Eh]
	 Total Energy              =    -420.4483505712177589 [Eh]

	 ================> DF-SCS-MP2 Energies <==================
	-----------------------------------------------------------
	 SCS Same-Spin Scale       =       0.3333333333333333 [-]
	 SCS Opposite-Spin Scale   =       1.2000000000000000 [-]
	 SCS Same-Spin Energy      =      -0.1376496580219342 [Eh]
	 SCS Opposite-Spin Energy  =      -1.5514779418394171 [Eh]
	 SCS Correlation Energy    =      -1.6891275998613513 [Eh]
	 SCS Total Energy          =    -420.4316309121471136 [Eh]
	-----------------------------------------------------------

  Dipole Moment: [D]
     X:     4.0320      Y:     1.3250      Z:     0.9254     Total:     4.3438

*** Psi4 exiting successfully. Buy a developer a beer!
