                               Psi4 1.3.2 release

  ==> Input File <==

--------------------------------------------------------------------------
#psi4
#
memory 32 gb

molecule  {
0 1
  O        0.6578240    -1.4038190    -0.0084800
  O       -1.9438987     1.1297058     0.2751280
  O       -1.5482610    -1.4485240    -0.4053400
  C        0.3934500     1.4379940    -0.3488290
  C        1.7709580     0.7423380    -0.3578590
  C       -0.6401280     0.6164470     0.4297460
  C        1.7409690    -0.5516630     0.4430470
  C       -0.5671300    -0.8317210    -0.0237270
  H        0.4383430     2.4405150     0.0852910
  H        0.0022100     1.5496010    -1.3639530
  H        2.0656470     0.4995800    -1.3827820
  H        2.5523030     1.3896650     0.0543080
  H       -0.3983570     0.6446350     1.5043810
  H        2.6396080    -1.1506800     0.2905800
  H        1.6294670    -0.3677470     1.5171870
  H       -2.4737670     0.3533780    -0.0616490
units angstrom
no_reorient  #important for SAPT in psi4, default
symmetry c1  #important for SAPT in psi4, default
}

set PROPERTIES_ORIGIN ["COM"]
properties('MP2/aug-cc-pvtz', properties = ['dipole'])
--------------------------------------------------------------------------

    Molecular point group: c1
  Charge       = 0
  Multiplicity = 1
  Basis Set: AUG-CC-PVTZ
    Blend: AUG-CC-PVTZ
  Basis Set: (AUG-CC-PVTZ AUX)
    Blend: AUG-CC-PVTZ-JKFIT

    Orbital Energies [Eh]
    ---------------------

    Doubly Occupied:

       1A    -20.619536     2A    -20.568415     3A    -20.557203
       4A    -11.393769     5A    -11.314412     6A    -11.312622
       7A    -11.255042     8A    -11.250204     9A     -1.468218
      10A     -1.383368    11A     -1.357498    12A     -1.103453
      13A     -1.024857    14A     -0.918264    15A     -0.867671
      16A     -0.760480    17A     -0.745611    18A     -0.708210
      19A     -0.691306    20A     -0.638773    21A     -0.631707
      22A     -0.619650    23A     -0.592938    24A     -0.572978
      25A     -0.555167    26A     -0.532158    27A     -0.516719
      28A     -0.501341    29A     -0.470076    30A     -0.449338
      31A     -0.445816

  @DF-RHF Final Energy:  -418.74437766313378

   => Energetics <=

    Nuclear Repulsion Energy =            401.2485507582806008
    One-Electron Energy =               -1368.3322629913020592
    Two-Electron Energy =                 548.3393345698876828
    Total Energy =                       -418.7443776631338324
  Basis Set: (AUG-CC-PVTZ AUX)
    Blend: AUG-CC-PVTZ-RI
    Molecular point group: c1

    Geometry (in Angstrom), charge = 0, multiplicity = 1:

       Center              X                  Y                   Z               Mass
    ------------   -----------------  -----------------  -----------------  -----------------
         O            0.713418218362    -1.359080242375    -0.009674052642    15.994914619570
         O           -1.888304481638     1.174444557625     0.273933947358    15.994914619570
         O           -1.492666781638    -1.403785242375    -0.406534052642    15.994914619570
         C            0.449044218362     1.482732757625    -0.350023052642    12.000000000000
         C            1.826552218362     0.787076757625    -0.359053052642    12.000000000000
         C           -0.584533781638     0.661185757625     0.428551947358    12.000000000000
         C            1.796563218362    -0.506924242375     0.441852947358    12.000000000000
         C           -0.511535781638    -0.786982242375    -0.024921052642    12.000000000000
         H            0.493937218362     2.485253757625     0.084096947358     1.007825032230
         H            0.057804218362     1.594339757625    -1.365147052642     1.007825032230
         H            2.121241218362     0.544318757625    -1.383976052642     1.007825032230
         H            2.607897218362     1.434403757625     0.053113947358     1.007825032230
         H           -0.342762781638     0.689373757625     1.503186947358     1.007825032230
         H            2.695202218362    -1.105941242375     0.289385947358     1.007825032230
         H            1.685061218362    -0.323008242375     1.515992947358     1.007825032230
         H           -2.418172781638     0.398116757625    -0.062843052642     1.007825032230

  Basis Set: AUG-CC-PVTZ
    Blend: AUG-CC-PVTZ
  Basis Set: (AUG-CC-PVTZ AUX)
    Blend: AUG-CC-PVTZ-JKFIT
	 Reference Energy          =    -418.7443776631337755 [Eh]
	 Singles Energy            =      -0.0000000000000000 [Eh]
	 Same-Spin Energy          =      -0.4128677033904916 [Eh]
	 Opposite-Spin Energy      =      -1.2933531289130591 [Eh]
	 Correlation Energy        =      -1.7062208323035506 [Eh]
	 Total Energy              =    -420.4505984954373048 [Eh]

	 ================> DF-SCS-MP2 Energies <==================
	-----------------------------------------------------------
	 SCS Same-Spin Scale       =       0.3333333333333333 [-]
	 SCS Opposite-Spin Scale   =       1.2000000000000000 [-]
	 SCS Same-Spin Energy      =      -0.1376225677968305 [Eh]
	 SCS Opposite-Spin Energy  =      -1.5520237546956708 [Eh]
	 SCS Correlation Energy    =      -1.6896463224925014 [Eh]
	 SCS Total Energy          =    -420.4340239856262542 [Eh]
	-----------------------------------------------------------

  Dipole Moment: [D]
     X:     3.8791      Y:     1.6331      Z:     0.8872     Total:     4.3013

*** Psi4 exiting successfully. Buy a developer a beer!
