                               Psi4 1.4a3.dev225

  ==> Input File <==

--------------------------------------------------------------------------
#psi4
#
memory 32 gb

molecule  {
0 1
  O        0.6578240    -1.4038190    -0.0084800
  O       -1.9400820     1.1224280     0.2266150
  O       -1.5482610    -1.4485240    -0.4053400
  C        0.3934500     1.4379940    -0.3488290
  C        1.7709580     0.7423380    -0.3578590
  C       -0.6401280     0.6164470     0.4297460
  C        1.7409690    -0.5516630     0.4430470
  C       -0.5647276    -0.8793812    -0.0386511
  H        0.4383430     2.4405150     0.0852910
  H        0.0022100     1.5496010    -1.3639530
  H        2.0656470     0.4995800    -1.3827820
  H        2.5523030     1.3896650     0.0543080
  H       -0.3983570     0.6446350     1.5043810
  H        2.6396080    -1.1506800     0.2905800
  H        1.6294670    -0.3677470     1.5171870
  H       -2.4737670     0.3533780    -0.0616490
units angstrom
no_reorient  #important for SAPT in psi4, default
symmetry c1  #important for SAPT in psi4, default
}

set PROPERTIES_ORIGIN ["COM"]
properties('MP2/aug-cc-pvtz', properties = ['dipole'])
--------------------------------------------------------------------------

    Molecular point group: c1
  Charge       = 0
  Multiplicity = 1
  Basis Set: AUG-CC-PVTZ
    Blend: AUG-CC-PVTZ
  Basis Set: (AUG-CC-PVTZ AUX)
    Blend: AUG-CC-PVTZ-JKFIT

    Orbital Energies [Eh]
    ---------------------

    Doubly Occupied:

       1A    -20.619307     2A    -20.563813     3A    -20.557111
       4A    -11.389705     5A    -11.316194     6A    -11.309809
       7A    -11.253950     8A    -11.246545     9A     -1.477230
      10A     -1.392305    11A     -1.363288    12A     -1.101097
      13A     -1.020627    14A     -0.913115    15A     -0.865330
      16A     -0.757730    17A     -0.746829    18A     -0.710986
      19A     -0.692383    20A     -0.643455    21A     -0.636771
      22A     -0.618542    23A     -0.593694    24A     -0.572517
      25A     -0.556884    26A     -0.530533    27A     -0.516301
      28A     -0.503334    29A     -0.472148    30A     -0.448734
      31A     -0.435919

  @DF-RHF Final Energy:  -418.74737147200858

   => Energetics <=

    Nuclear Repulsion Energy =            401.4928653467065374
    One-Electron Energy =               -1368.8281047296568431
    Two-Electron Energy =                 548.5878679109416680
    Total Energy =                       -418.7473714720085809
  Basis Set: (AUG-CC-PVTZ AUX)
    Blend: AUG-CC-PVTZ-RI
    Molecular point group: c1

    Geometry (in Angstrom), charge = 0, multiplicity = 1:

       Center              X                  Y                   Z               Mass
    ------------   -----------------  -----------------  -----------------  -----------------
         O            0.712643736263    -1.353148782289    -0.001444217653    15.994914619570
         O           -1.885262263737     1.173098217711     0.233650782347    15.994914619570
         O           -1.493441263737    -1.397853782289    -0.398304217653    15.994914619570
         C            0.448269736263     1.488664217711    -0.341793217653    12.000000000000
         C            1.825777736263     0.793008217711    -0.350823217653    12.000000000000
         C           -0.585308263737     0.667117217711     0.436781782347    12.000000000000
         C            1.795788736263    -0.500992782289     0.450082782347    12.000000000000
         C           -0.509907863737    -0.828710982289    -0.031615317653    12.000000000000
         H            0.493162736263     2.491185217711     0.092326782347     1.007825032230
         H            0.057029736263     1.600271217711    -1.356917217653     1.007825032230
         H            2.120466736263     0.550250217711    -1.375746217653     1.007825032230
         H            2.607122736263     1.440335217711     0.061343782347     1.007825032230
         H           -0.343537263737     0.695305217711     1.511416782347     1.007825032230
         H            2.694427736263    -1.100009782289     0.297615782347     1.007825032230
         H            1.684286736263    -0.317076782289     1.524222782347     1.007825032230
         H           -2.418947263737     0.404048217711    -0.054613217653     1.007825032230

  Basis Set: AUG-CC-PVTZ
    Blend: AUG-CC-PVTZ
  Basis Set: (AUG-CC-PVTZ AUX)
    Blend: AUG-CC-PVTZ-JKFIT
	 Reference Energy          =    -418.7473714720085809 [Eh]
	 Singles Energy            =      -0.0000000000000000 [Eh]
	 Same-Spin Energy          =      -0.4114710277474464 [Eh]
	 Opposite-Spin Energy      =      -1.2903910645362682 [Eh]
	 Correlation Energy        =      -1.7018620922837147 [Eh]
	 Total Energy              =    -420.4492335642922853 [Eh]

	 ================> DF-SCS-MP2 Energies <==================
	-----------------------------------------------------------
	 SCS Same-Spin Scale       =       0.3333333333333333 [-]
	 SCS Opposite-Spin Scale   =       1.2000000000000000 [-]
	 SCS Same-Spin Energy      =      -0.1371570092491488 [Eh]
	 SCS Opposite-Spin Energy  =      -1.5484692774435218 [Eh]
	 SCS Correlation Energy    =      -1.6856262866926706 [Eh]
	 SCS Total Energy          =    -420.4329977587012763 [Eh]
	-----------------------------------------------------------

  Dipole Moment: [D]
     X:     3.8815      Y:     1.4222      Z:     0.9308     Total:     4.2373

*** Psi4 exiting successfully. Buy a developer a beer!
