                               Psi4 1.3.2 release

  ==> Input File <==

--------------------------------------------------------------------------
#psi4
#
memory 32 gb

molecule  {
0 1
  O        0.6578240    -1.4038190    -0.0084800
  O       -1.9252169     1.1655940     0.2449665
  O       -1.5482610    -1.4485240    -0.4053400
  C        0.3934500     1.4379940    -0.3488290
  C        1.7709580     0.7423380    -0.3578590
  C       -0.6401280     0.6164470     0.4297460
  C        1.7409690    -0.5516630     0.4430470
  C       -0.5671300    -0.8317210    -0.0237270
  H        0.4383430     2.4405150     0.0852910
  H        0.0022100     1.5496010    -1.3639530
  H        2.0656470     0.4995800    -1.3827820
  H        2.5523030     1.3896650     0.0543080
  H       -0.3983570     0.6446350     1.5043810
  H        2.6396080    -1.1506800     0.2905800
  H        1.6294670    -0.3677470     1.5171870
  H       -2.4737670     0.3533780    -0.0616490
units angstrom
no_reorient  #important for SAPT in psi4, default
symmetry c1  #important for SAPT in psi4, default
}

set PROPERTIES_ORIGIN ["COM"]
properties('MP2/aug-cc-pvtz', properties = ['dipole'])
--------------------------------------------------------------------------

    Molecular point group: c1
  Charge       = 0
  Multiplicity = 1
  Basis Set: AUG-CC-PVTZ
    Blend: AUG-CC-PVTZ
  Basis Set: (AUG-CC-PVTZ AUX)
    Blend: AUG-CC-PVTZ-JKFIT

    Orbital Energies [Eh]
    ---------------------

    Doubly Occupied:

       1A    -20.620067     2A    -20.571175     3A    -20.558123
       4A    -11.394568     5A    -11.314322     6A    -11.312164
       7A    -11.254065     8A    -11.248957     9A     -1.468616
      10A     -1.381602    11A     -1.356060    12A     -1.102258
      13A     -1.023914    14A     -0.917808    15A     -0.867500
      16A     -0.756051    17A     -0.745872    18A     -0.707784
      19A     -0.691585    20A     -0.637943    21A     -0.630473
      22A     -0.619306    23A     -0.591836    24A     -0.573190
      25A     -0.555079    26A     -0.529799    27A     -0.516524
      28A     -0.501115    29A     -0.470561    30A     -0.449931
      31A     -0.445278

  @DF-RHF Final Energy:  -418.74068391636069

   => Energetics <=

    Nuclear Repulsion Energy =            401.1326434745213874
    One-Electron Energy =               -1368.1196016028870872
    Two-Electron Energy =                 548.2462742120050052
    Total Energy =                       -418.7406839163606946
  Basis Set: (AUG-CC-PVTZ AUX)
    Blend: AUG-CC-PVTZ-RI
    Molecular point group: c1

    Geometry (in Angstrom), charge = 0, multiplicity = 1:

       Center              X                  Y                   Z               Mass
    ------------   -----------------  -----------------  -----------------  -----------------
         O            0.710843288291    -1.364026746745    -0.005516864720    15.994914619570
         O           -1.872197611709     1.205386253255     0.247929635280    15.994914619570
         O           -1.495241711709    -1.408731746745    -0.402376864720    15.994914619570
         C            0.446469288291     1.477786253255    -0.345865864720    12.000000000000
         C            1.823977288291     0.782130253255    -0.354895864720    12.000000000000
         C           -0.587108711709     0.656239253255     0.432709135280    12.000000000000
         C            1.793988288291    -0.511870746745     0.446010135280    12.000000000000
         C           -0.514110711709    -0.791928746745    -0.020763864720    12.000000000000
         H            0.491362288291     2.480307253255     0.088254135280     1.007825032230
         H            0.055229288291     1.589393253255    -1.360989864720     1.007825032230
         H            2.118666288291     0.539372253255    -1.379818864720     1.007825032230
         H            2.605322288291     1.429457253255     0.057271135280     1.007825032230
         H           -0.345337711709     0.684427253255     1.507344135280     1.007825032230
         H            2.692627288291    -1.110887746745     0.293543135280     1.007825032230
         H            1.682486288291    -0.327954746745     1.520150135280     1.007825032230
         H           -2.420747711709     0.393170253255    -0.058685864720     1.007825032230

  Basis Set: AUG-CC-PVTZ
    Blend: AUG-CC-PVTZ
  Basis Set: (AUG-CC-PVTZ AUX)
    Blend: AUG-CC-PVTZ-JKFIT
	 Reference Energy          =    -418.7406839163606946 [Eh]
	 Singles Energy            =      -0.0000000000000000 [Eh]
	 Same-Spin Energy          =      -0.4133614203733171 [Eh]
	 Opposite-Spin Energy      =      -1.2944645884582839 [Eh]
	 Correlation Energy        =      -1.7078260088316011 [Eh]
	 Total Energy              =    -420.4485099251922975 [Eh]

	 ================> DF-SCS-MP2 Energies <==================
	-----------------------------------------------------------
	 SCS Same-Spin Scale       =       0.3333333333333333 [-]
	 SCS Opposite-Spin Scale   =       1.2000000000000000 [-]
	 SCS Same-Spin Energy      =      -0.1377871401244390 [Eh]
	 SCS Opposite-Spin Energy  =      -1.5533575061499407 [Eh]
	 SCS Correlation Energy    =      -1.6911446462743798 [Eh]
	 SCS Total Energy          =    -420.4318285626350757 [Eh]
	-----------------------------------------------------------

  Dipole Moment: [D]
     X:     3.8295      Y:     1.5665      Z:     0.9527     Total:     4.2458

*** Psi4 exiting successfully. Buy a developer a beer!
