                               Psi4 1.3.2 release

  ==> Input File <==

--------------------------------------------------------------------------
#psi4
#
memory 32 gb

molecule  {
0 1
  O        0.6578240    -1.4038190    -0.0084800
  O       -1.9400820     1.1224280     0.2266150
  O       -1.5942375    -1.3782396    -0.3912323
  C        0.3934500     1.4379940    -0.3488290
  C        1.7709580     0.7423380    -0.3578590
  C       -0.6401280     0.6164470     0.4297460
  C        1.7409690    -0.5516630     0.4430470
  C       -0.5671300    -0.8317210    -0.0237270
  H        0.4383430     2.4405150     0.0852910
  H        0.0022100     1.5496010    -1.3639530
  H        2.0656470     0.4995800    -1.3827820
  H        2.5523030     1.3896650     0.0543080
  H       -0.3983570     0.6446350     1.5043810
  H        2.6396080    -1.1506800     0.2905800
  H        1.6294670    -0.3677470     1.5171870
  H       -2.4737670     0.3533780    -0.0616490
units angstrom
no_reorient  #important for SAPT in psi4, default
symmetry c1  #important for SAPT in psi4, default
}

set PROPERTIES_ORIGIN ["COM"]
properties('MP2/aug-cc-pvtz', properties = ['dipole'])
--------------------------------------------------------------------------

    Molecular point group: c1
  Charge       = 0
  Multiplicity = 1
  Basis Set: AUG-CC-PVTZ
    Blend: AUG-CC-PVTZ
  Basis Set: (AUG-CC-PVTZ AUX)
    Blend: AUG-CC-PVTZ-JKFIT

    Orbital Energies [Eh]
    ---------------------

    Doubly Occupied:

       1A    -20.623441     2A    -20.561703     3A    -20.558451
       4A    -11.394718     5A    -11.316402     6A    -11.308774
       7A    -11.254770     8A    -11.248066     9A     -1.468641
      10A     -1.388469    11A     -1.356261    12A     -1.102800
      13A     -1.024995    14A     -0.917725    15A     -0.867618
      16A     -0.758843    17A     -0.746786    18A     -0.711508
      19A     -0.692681    20A     -0.640519    21A     -0.634190
      22A     -0.619833    23A     -0.592587    24A     -0.570726
      25A     -0.553852    26A     -0.530265    27A     -0.516342
      28A     -0.502179    29A     -0.470950    30A     -0.449365
      31A     -0.443116

  @DF-RHF Final Energy:  -418.74450508728967

   => Energetics <=

    Nuclear Repulsion Energy =            402.0423801261846961
    One-Electron Energy =               -1369.9206195165875215
    Two-Electron Energy =                 549.1337343031131013
    Total Energy =                       -418.7445050872896672
  Basis Set: (AUG-CC-PVTZ AUX)
    Blend: AUG-CC-PVTZ-RI
    Molecular point group: c1

    Geometry (in Angstrom), charge = 0, multiplicity = 1:

       Center              X                  Y                   Z               Mass
    ------------   -----------------  -----------------  -----------------  -----------------
         O            0.719229143260    -1.367764501331    -0.004931937773    15.994914619570
         O           -1.878676856740     1.158482498669     0.230163062227    15.994914619570
         O           -1.532832356740    -1.342185101331    -0.387684237773    15.994914619570
         C            0.454855143260     1.474048498669    -0.345280937773    12.000000000000
         C            1.832363143260     0.778392498669    -0.354310937773    12.000000000000
         C           -0.578722856740     0.652501498669     0.433294062227    12.000000000000
         C            1.802374143260    -0.515608501331     0.446595062227    12.000000000000
         C           -0.505724856740    -0.795666501331    -0.020178937773    12.000000000000
         H            0.499748143260     2.476569498669     0.088839062227     1.007825032230
         H            0.063615143260     1.585655498669    -1.360404937773     1.007825032230
         H            2.127052143260     0.535634498669    -1.379233937773     1.007825032230
         H            2.613708143260     1.425719498669     0.057856062227     1.007825032230
         H           -0.336951856740     0.680689498669     1.507929062227     1.007825032230
         H            2.701013143260    -1.114625501331     0.294128062227     1.007825032230
         H            1.690872143260    -0.331692501331     1.520735062227     1.007825032230
         H           -2.412361856740     0.389432498669    -0.058100937773     1.007825032230

  Basis Set: AUG-CC-PVTZ
    Blend: AUG-CC-PVTZ
  Basis Set: (AUG-CC-PVTZ AUX)
    Blend: AUG-CC-PVTZ-JKFIT
	 Reference Energy          =    -418.7445050872896672 [Eh]
	 Singles Energy            =      -0.0000000000000000 [Eh]
	 Same-Spin Energy          =      -0.4127886254220814 [Eh]
	 Opposite-Spin Energy      =      -1.2927621604175012 [Eh]
	 Correlation Energy        =      -1.7055507858395826 [Eh]
	 Total Energy              =    -420.4500558731292585 [Eh]

	 ================> DF-SCS-MP2 Energies <==================
	-----------------------------------------------------------
	 SCS Same-Spin Scale       =       0.3333333333333333 [-]
	 SCS Opposite-Spin Scale   =       1.2000000000000000 [-]
	 SCS Same-Spin Energy      =      -0.1375962084740271 [Eh]
	 SCS Opposite-Spin Energy  =      -1.5513145925010015 [Eh]
	 SCS Correlation Energy    =      -1.6889108009750287 [Eh]
	 SCS Total Energy          =    -420.4334158882646761 [Eh]
	-----------------------------------------------------------

  Dipole Moment: [D]
     X:     3.9772      Y:     1.4349      Z:     0.9459     Total:     4.3326

*** Psi4 exiting successfully. Buy a developer a beer!
