                               Psi4 1.3.2 release

  ==> Input File <==

--------------------------------------------------------------------------
#psi4
#
memory 32 gb

molecule  {
0 1
  O        0.6578240    -1.4038190    -0.0084800
  O       -1.9400820     1.1224280     0.2266150
  O       -1.5482610    -1.4485240    -0.4053400
  C        0.3934500     1.4379940    -0.3488290
  C        1.7709580     0.7423380    -0.3578590
  C       -0.6401280     0.6164470     0.4297460
  C        1.5915963    -0.6691808     0.3807785
  C       -0.5671300    -0.8317210    -0.0237270
  H        0.4383430     2.4405150     0.0852910
  H        0.0022100     1.5496010    -1.3639530
  H        2.0656470     0.4995800    -1.3827820
  H        2.5523030     1.3896650     0.0543080
  H       -0.3983570     0.6446350     1.5043810
  H        2.6396080    -1.1506800     0.2905800
  H        1.6294670    -0.3677470     1.5171870
  H       -2.4737670     0.3533780    -0.0616490
units angstrom
no_reorient  #important for SAPT in psi4, default
symmetry c1  #important for SAPT in psi4, default
}

set PROPERTIES_ORIGIN ["COM"]
properties('MP2/aug-cc-pvtz', properties = ['dipole'])
--------------------------------------------------------------------------

    Molecular point group: c1
  Charge       = 0
  Multiplicity = 1
  Basis Set: AUG-CC-PVTZ
    Blend: AUG-CC-PVTZ
  Basis Set: (AUG-CC-PVTZ AUX)
    Blend: AUG-CC-PVTZ-JKFIT

    Orbital Energies [Eh]
    ---------------------

    Doubly Occupied:

       1A    -20.639277     2A    -20.570773     3A    -20.570664
       4A    -11.407925     5A    -11.317576     6A    -11.316548
       7A    -11.250055     8A    -11.246873     9A     -1.536753
      10A     -1.409629    11A     -1.369448    12A     -1.095765
      13A     -1.026887    14A     -0.925704    15A     -0.885166
      16A     -0.770449    17A     -0.755166    18A     -0.722084
      19A     -0.717147    20A     -0.666057    21A     -0.651100
      22A     -0.614006    23A     -0.596842    24A     -0.565263
      25A     -0.545781    26A     -0.539866    27A     -0.509336
      28A     -0.499160    29A     -0.467805    30A     -0.440716
      31A     -0.428896

  @DF-RHF Final Energy:  -418.70636243962122

   => Energetics <=

    Nuclear Repulsion Energy =            404.6766158487120606
    One-Electron Energy =               -1374.6485229615063872
    Two-Electron Energy =                 551.2655446731730535
    Total Energy =                       -418.7063624396212163
  Basis Set: (AUG-CC-PVTZ AUX)
    Blend: AUG-CC-PVTZ-RI
    Molecular point group: c1

    Geometry (in Angstrom), charge = 0, multiplicity = 1:

       Center              X                  Y                   Z               Mass
    ------------   -----------------  -----------------  -----------------  -----------------
         O            0.728338203154    -1.345925082287     0.003451480774    15.994914619570
         O           -1.869567796846     1.180321917713     0.238546480774    15.994914619570
         O           -1.477746796846    -1.390630082287    -0.393408519226    15.994914619570
         C            0.463964203154     1.495887917713    -0.336897519226    12.000000000000
         C            1.841472203154     0.800231917713    -0.345927519226    12.000000000000
         C           -0.569613796846     0.674340917713     0.441677480774    12.000000000000
         C            1.662110503154    -0.611286882287     0.392709980774    12.000000000000
         C           -0.496615796846    -0.773827082287    -0.011795519226    12.000000000000
         H            0.508857203154     2.498408917713     0.097222480774     1.007825032230
         H            0.072724203154     1.607494917713    -1.352021519226     1.007825032230
         H            2.136161203154     0.557473917713    -1.370850519226     1.007825032230
         H            2.622817203154     1.447558917713     0.066239480774     1.007825032230
         H           -0.327842796846     0.702528917713     1.516312480774     1.007825032230
         H            2.710122203154    -1.092786082287     0.302511480774     1.007825032230
         H            1.699981203154    -0.309853082287     1.529118480774     1.007825032230
         H           -2.403252796846     0.411271917713    -0.049717519226     1.007825032230

  Basis Set: AUG-CC-PVTZ
    Blend: AUG-CC-PVTZ
  Basis Set: (AUG-CC-PVTZ AUX)
    Blend: AUG-CC-PVTZ-JKFIT
	 Reference Energy          =    -418.7063624396212163 [Eh]
	 Singles Energy            =      -0.0000000000000000 [Eh]
	 Same-Spin Energy          =      -0.4135881855216633 [Eh]
	 Opposite-Spin Energy      =      -1.2925925822341742 [Eh]
	 Correlation Energy        =      -1.7061807677558374 [Eh]
	 Total Energy              =    -420.4125432073770412 [Eh]

	 ================> DF-SCS-MP2 Energies <==================
	-----------------------------------------------------------
	 SCS Same-Spin Scale       =       0.3333333333333333 [-]
	 SCS Opposite-Spin Scale   =       1.2000000000000000 [-]
	 SCS Same-Spin Energy      =      -0.1378627285072211 [Eh]
	 SCS Opposite-Spin Energy  =      -1.5511110986810090 [Eh]
	 SCS Correlation Energy    =      -1.6889738271882302 [Eh]
	 SCS Total Energy          =    -420.3953362668094655 [Eh]
	-----------------------------------------------------------

  Dipole Moment: [D]
     X:     3.1126      Y:     1.2762      Z:     0.7322     Total:     3.4428

*** Psi4 exiting successfully. Buy a developer a beer!
