                               Psi4 1.3.2 release

  ==> Input File <==

--------------------------------------------------------------------------
#psi4
#
memory 32 gb

molecule  {
0 1
  O        0.6578240    -1.4038190    -0.0084800
  O       -1.9400820     1.1224280     0.2266150
  O       -1.5482610    -1.4485240    -0.4053400
  C        0.3934500     1.4379940    -0.3488290
  C        1.7709580     0.7423380    -0.3578590
  C       -0.6401280     0.6164470     0.4297460
  C        1.7409690    -0.5516630     0.4430470
  C       -0.5284984    -0.8679926     0.1262084
  H        0.4383430     2.4405150     0.0852910
  H        0.0022100     1.5496010    -1.3639530
  H        2.0656470     0.4995800    -1.3827820
  H        2.5523030     1.3896650     0.0543080
  H       -0.3983570     0.6446350     1.5043810
  H        2.6396080    -1.1506800     0.2905800
  H        1.6294670    -0.3677470     1.5171870
  H       -2.4737670     0.3533780    -0.0616490
units angstrom
no_reorient  #important for SAPT in psi4, default
symmetry c1  #important for SAPT in psi4, default
}

set PROPERTIES_ORIGIN ["COM"]
properties('MP2/aug-cc-pvtz', properties = ['dipole'])
--------------------------------------------------------------------------

    Molecular point group: c1
  Charge       = 0
  Multiplicity = 1
  Basis Set: AUG-CC-PVTZ
    Blend: AUG-CC-PVTZ
  Basis Set: (AUG-CC-PVTZ AUX)
    Blend: AUG-CC-PVTZ-JKFIT

    Orbital Energies [Eh]
    ---------------------

    Doubly Occupied:

       1A    -20.634202     2A    -20.566525     3A    -20.544342
       4A    -11.398475     5A    -11.321126     6A    -11.315621
       7A    -11.258122     8A    -11.252802     9A     -1.484507
      10A     -1.378398    11A     -1.324838    12A     -1.107752
      13A     -1.030123    14A     -0.927060    15A     -0.874835
      16A     -0.763277    17A     -0.751049    18A     -0.707744
      19A     -0.694005    20A     -0.646811    21A     -0.621192
      22A     -0.616318    23A     -0.599278    24A     -0.574539
      25A     -0.551489    26A     -0.527242    27A     -0.518017
      28A     -0.494148    29A     -0.464572    30A     -0.444977
      31A     -0.439187

  @DF-RHF Final Energy:  -418.72395038441761

   => Energetics <=

    Nuclear Repulsion Energy =            401.0271836556087806
    One-Electron Energy =               -1367.8371178439776941
    Two-Electron Energy =                 548.0859838039513079
    Total Energy =                       -418.7239503844176625
  Basis Set: (AUG-CC-PVTZ AUX)
    Blend: AUG-CC-PVTZ-RI
    Molecular point group: c1

    Geometry (in Angstrom), charge = 0, multiplicity = 1:

       Center              X                  Y                   Z               Mass
    ------------   -----------------  -----------------  -----------------  -----------------
         O            0.708897417006    -1.354326432679    -0.018491690950    15.994914619570
         O           -1.889008582994     1.171920567321     0.216603309050    15.994914619570
         O           -1.497187582994    -1.399031432679    -0.415351690950    15.994914619570
         C            0.444523417006     1.487486567321    -0.358840690950    12.000000000000
         C            1.822031417006     0.791830567321    -0.367870690950    12.000000000000
         C           -0.589054582994     0.665939567321     0.419734309050    12.000000000000
         C            1.792042417006    -0.502170432679     0.433035309050    12.000000000000
         C           -0.477424982994    -0.818500032679     0.116196709050    12.000000000000
         H            0.489416417006     2.490007567321     0.075279309050     1.007825032230
         H            0.053283417006     1.599093567321    -1.373964690950     1.007825032230
         H            2.116720417006     0.549072567321    -1.392793690950     1.007825032230
         H            2.603376417006     1.439157567321     0.044296309050     1.007825032230
         H           -0.347283582994     0.694127567321     1.494369309050     1.007825032230
         H            2.690681417006    -1.101187432679     0.280568309050     1.007825032230
         H            1.680540417006    -0.318254432679     1.507175309050     1.007825032230
         H           -2.422693582994     0.402870567321    -0.071660690950     1.007825032230

  Basis Set: AUG-CC-PVTZ
    Blend: AUG-CC-PVTZ
  Basis Set: (AUG-CC-PVTZ AUX)
    Blend: AUG-CC-PVTZ-JKFIT
	 Reference Energy          =    -418.7239503844176056 [Eh]
	 Singles Energy            =      -0.0000000000000000 [Eh]
	 Same-Spin Energy          =      -0.4144940749098756 [Eh]
	 Opposite-Spin Energy      =      -1.2966330065875420 [Eh]
	 Correlation Energy        =      -1.7111270814974175 [Eh]
	 Total Energy              =    -420.4350774659150147 [Eh]

	 ================> DF-SCS-MP2 Energies <==================
	-----------------------------------------------------------
	 SCS Same-Spin Scale       =       0.3333333333333333 [-]
	 SCS Opposite-Spin Scale   =       1.2000000000000000 [-]
	 SCS Same-Spin Energy      =      -0.1381646916366252 [Eh]
	 SCS Opposite-Spin Energy  =      -1.5559596079050504 [Eh]
	 SCS Correlation Energy    =      -1.6941242995416756 [Eh]
	 SCS Total Energy          =    -420.4180746839592757 [Eh]
	-----------------------------------------------------------

  Dipole Moment: [D]
     X:     4.3474      Y:     1.6960      Z:     1.1670     Total:     4.8102

*** Psi4 exiting successfully. Buy a developer a beer!
