                               Psi4 1.3.2 release

  ==> Input File <==

--------------------------------------------------------------------------
#psi4
#
memory 32 gb

molecule  {
0 1
  O        0.6578240    -1.4038190    -0.0084800
  O       -1.9400820     1.1224280     0.2266150
  O       -1.5718613    -1.4137363    -0.3985145
  C        0.3934500     1.4379940    -0.3488290
  C        1.7709580     0.7423380    -0.3578590
  C       -0.6401280     0.6164470     0.4297460
  C        1.7409690    -0.5516630     0.4430470
  C       -0.5671300    -0.8317210    -0.0237270
  H        0.4383430     2.4405150     0.0852910
  H        0.0022100     1.5496010    -1.3639530
  H        2.0656470     0.4995800    -1.3827820
  H        2.5523030     1.3896650     0.0543080
  H       -0.3983570     0.6446350     1.5043810
  H        2.6396080    -1.1506800     0.2905800
  H        1.6294670    -0.3677470     1.5171870
  H       -2.4737670     0.3533780    -0.0616490
units angstrom
no_reorient  #important for SAPT in psi4, default
symmetry c1  #important for SAPT in psi4, default
}

set PROPERTIES_ORIGIN ["COM"]
properties('MP2/aug-cc-pvtz', properties = ['dipole'])
--------------------------------------------------------------------------

    Molecular point group: c1
  Charge       = 0
  Multiplicity = 1
  Basis Set: AUG-CC-PVTZ
    Blend: AUG-CC-PVTZ
  Basis Set: (AUG-CC-PVTZ AUX)
    Blend: AUG-CC-PVTZ-JKFIT

    Orbital Energies [Eh]
    ---------------------

    Doubly Occupied:

       1A    -20.621263     2A    -20.564215     3A    -20.557506
       4A    -11.393891     5A    -11.315378     6A    -11.310990
       7A    -11.254746     8A    -11.248967     9A     -1.468217
      10A     -1.386555    11A     -1.357609    12A     -1.103148
      13A     -1.025156    14A     -0.918149    15A     -0.867678
      16A     -0.759970    17A     -0.746052    18A     -0.710831
      19A     -0.692139    20A     -0.641084    21A     -0.632719
      22A     -0.619936    23A     -0.592613    24A     -0.571688
      25A     -0.553972    26A     -0.531118    27A     -0.516537
      28A     -0.501702    29A     -0.470468    30A     -0.449990
      31A     -0.444292

  @DF-RHF Final Energy:  -418.74570062772517

   => Energetics <=

    Nuclear Repulsion Energy =            401.8078973893213970
    One-Electron Energy =               -1369.4500438085524365
    Two-Electron Energy =                 548.8964457915058119
    Total Energy =                       -418.7457006277252276
  Basis Set: (AUG-CC-PVTZ AUX)
    Blend: AUG-CC-PVTZ-RI
    Molecular point group: c1

    Geometry (in Angstrom), charge = 0, multiplicity = 1:

       Center              X                  Y                   Z               Mass
    ------------   -----------------  -----------------  -----------------  -----------------
         O            0.716145010562    -1.362871957774    -0.003928225296    15.994914619570
         O           -1.881760989438     1.163375042226     0.231166774704    15.994914619570
         O           -1.513540289438    -1.372789257774    -0.393962725296    15.994914619570
         C            0.451771010562     1.478941042226    -0.344277225296    12.000000000000
         C            1.829279010562     0.783285042226    -0.353307225296    12.000000000000
         C           -0.581806989438     0.657394042226     0.434297774704    12.000000000000
         C            1.799290010562    -0.510715957774     0.447598774704    12.000000000000
         C           -0.508808989438    -0.790773957774    -0.019175225296    12.000000000000
         H            0.496664010562     2.481462042226     0.089842774704     1.007825032230
         H            0.060531010562     1.590548042226    -1.359401225296     1.007825032230
         H            2.123968010562     0.540527042226    -1.378230225296     1.007825032230
         H            2.610624010562     1.430612042226     0.058859774704     1.007825032230
         H           -0.340035989438     0.685582042226     1.508932774704     1.007825032230
         H            2.697929010562    -1.109732957774     0.295131774704     1.007825032230
         H            1.687788010562    -0.326799957774     1.521738774704     1.007825032230
         H           -2.415445989438     0.394325042226    -0.057097225296     1.007825032230

  Basis Set: AUG-CC-PVTZ
    Blend: AUG-CC-PVTZ
  Basis Set: (AUG-CC-PVTZ AUX)
    Blend: AUG-CC-PVTZ-JKFIT
	 Reference Energy          =    -418.7457006277251708 [Eh]
	 Singles Energy            =      -0.0000000000000000 [Eh]
	 Same-Spin Energy          =      -0.4126653141427530 [Eh]
	 Opposite-Spin Energy      =      -1.2926859330136782 [Eh]
	 Correlation Energy        =      -1.7053512471564312 [Eh]
	 Total Energy              =    -420.4510518748816139 [Eh]

	 ================> DF-SCS-MP2 Energies <==================
	-----------------------------------------------------------
	 SCS Same-Spin Scale       =       0.3333333333333333 [-]
	 SCS Opposite-Spin Scale   =       1.2000000000000000 [-]
	 SCS Same-Spin Energy      =      -0.1375551047142510 [Eh]
	 SCS Opposite-Spin Energy  =      -1.5512231196164137 [Eh]
	 SCS Correlation Energy    =      -1.6887782243306646 [Eh]
	 SCS Total Energy          =    -420.4344788520558609 [Eh]
	-----------------------------------------------------------

  Dipole Moment: [D]
     X:     3.9188      Y:     1.5417      Z:     0.9651     Total:     4.3204

*** Psi4 exiting successfully. Buy a developer a beer!
