                               Psi4 1.3.2 release

  ==> Input File <==

--------------------------------------------------------------------------
#psi4
#
memory 32 gb

molecule  {
0 1
  O        0.6578240    -1.4038190    -0.0084800
  O       -1.9400820     1.1224280     0.2266150
  O       -1.5482610    -1.4485240    -0.4053400
  C        0.3934500     1.4379940    -0.3488290
  C        1.7709580     0.7423380    -0.3578590
  C       -0.6934189     0.4848798     0.3894732
  C        1.7409690    -0.5516630     0.4430470
  C       -0.5671300    -0.8317210    -0.0237270
  H        0.4383430     2.4405150     0.0852910
  H        0.0022100     1.5496010    -1.3639530
  H        2.0656470     0.4995800    -1.3827820
  H        2.5523030     1.3896650     0.0543080
  H       -0.3983570     0.6446350     1.5043810
  H        2.6396080    -1.1506800     0.2905800
  H        1.6294670    -0.3677470     1.5171870
  H       -2.4737670     0.3533780    -0.0616490
units angstrom
no_reorient  #important for SAPT in psi4, default
symmetry c1  #important for SAPT in psi4, default
}

set PROPERTIES_ORIGIN ["COM"]
properties('MP2/aug-cc-pvtz', properties = ['dipole'])
--------------------------------------------------------------------------

    Molecular point group: c1
  Charge       = 0
  Multiplicity = 1
  Basis Set: AUG-CC-PVTZ
    Blend: AUG-CC-PVTZ
  Basis Set: (AUG-CC-PVTZ AUX)
    Blend: AUG-CC-PVTZ-JKFIT

    Orbital Energies [Eh]
    ---------------------

    Doubly Occupied:

       1A    -20.620779     2A    -20.572925     3A    -20.553335
       4A    -11.388723     5A    -11.313970     6A    -11.313049
       7A    -11.256690     8A    -11.253010     9A     -1.472463
      10A     -1.391667    11A     -1.359864    12A     -1.098012
      13A     -1.036235    14A     -0.934205    15A     -0.865948
      16A     -0.760863    17A     -0.749388    18A     -0.707196
      19A     -0.697110    20A     -0.632251    21A     -0.629871
      22A     -0.621016    23A     -0.592200    24A     -0.577183
      25A     -0.552942    26A     -0.530783    27A     -0.516308
      28A     -0.502163    29A     -0.470286    30A     -0.458843
      31A     -0.429939

  @DF-RHF Final Energy:  -418.72112328060570

   => Energetics <=

    Nuclear Repulsion Energy =            402.8200666662313552
    One-Electron Energy =               -1371.3639431530637012
    Two-Electron Energy =                 549.8227532062265936
    Total Energy =                       -418.7211232806057524
  Basis Set: (AUG-CC-PVTZ AUX)
    Blend: AUG-CC-PVTZ-RI
    Molecular point group: c1

    Geometry (in Angstrom), charge = 0, multiplicity = 1:

       Center              X                  Y                   Z               Mass
    ------------   -----------------  -----------------  -----------------  -----------------
         O            0.718402761642    -1.344472289021     0.001176991840    15.994914619570
         O           -1.879503238358     1.181774710979     0.236271991840    15.994914619570
         O           -1.487682238358    -1.389177289021    -0.395683008160    15.994914619570
         C            0.454028761642     1.497340710979    -0.339172008160    12.000000000000
         C            1.831536761642     0.801684710979    -0.348202008160    12.000000000000
         C           -0.632840138358     0.544226510979     0.399130191840    12.000000000000
         C            1.801547761642    -0.492316289021     0.452703991840    12.000000000000
         C           -0.506551238358    -0.772374289021    -0.014070008160    12.000000000000
         H            0.498921761642     2.499861710979     0.094947991840     1.007825032230
         H            0.062788761642     1.608947710979    -1.354296008160     1.007825032230
         H            2.126225761642     0.558926710979    -1.373125008160     1.007825032230
         H            2.612881761642     1.449011710979     0.063964991840     1.007825032230
         H           -0.337778238358     0.703981710979     1.514037991840     1.007825032230
         H            2.700186761642    -1.091333289021     0.300236991840     1.007825032230
         H            1.690045761642    -0.308400289021     1.526843991840     1.007825032230
         H           -2.413188238358     0.412724710979    -0.051992008160     1.007825032230

  Basis Set: AUG-CC-PVTZ
    Blend: AUG-CC-PVTZ
  Basis Set: (AUG-CC-PVTZ AUX)
    Blend: AUG-CC-PVTZ-JKFIT
	 Reference Energy          =    -418.7211232806056955 [Eh]
	 Singles Energy            =      -0.0000000000000000 [Eh]
	 Same-Spin Energy          =      -0.4143434914765501 [Eh]
	 Opposite-Spin Energy      =      -1.2955552659670062 [Eh]
	 Correlation Energy        =      -1.7098987574435562 [Eh]
	 Total Energy              =    -420.4310220380492638 [Eh]

	 ================> DF-SCS-MP2 Energies <==================
	-----------------------------------------------------------
	 SCS Same-Spin Scale       =       0.3333333333333333 [-]
	 SCS Opposite-Spin Scale   =       1.2000000000000000 [-]
	 SCS Same-Spin Energy      =      -0.1381144971588500 [Eh]
	 SCS Opposite-Spin Energy  =      -1.5546663191604073 [Eh]
	 SCS Correlation Energy    =      -1.6927808163192573 [Eh]
	 SCS Total Energy          =    -420.4139040969249663 [Eh]
	-----------------------------------------------------------

  Dipole Moment: [D]
     X:     3.7790      Y:     1.7757      Z:     1.0028     Total:     4.2941

*** Psi4 exiting successfully. Buy a developer a beer!
