                               Psi4 1.3.2 release

  ==> Input File <==

--------------------------------------------------------------------------
#psi4
#
memory 32 gb

molecule  {
0 1
  O        0.5639155    -1.2902719     0.0280150
  O       -1.9400820     1.1224280     0.2266150
  O       -1.5482610    -1.4485240    -0.4053400
  C        0.3934500     1.4379940    -0.3488290
  C        1.7709580     0.7423380    -0.3578590
  C       -0.6401280     0.6164470     0.4297460
  C        1.7409690    -0.5516630     0.4430470
  C       -0.5671300    -0.8317210    -0.0237270
  H        0.4383430     2.4405150     0.0852910
  H        0.0022100     1.5496010    -1.3639530
  H        2.0656470     0.4995800    -1.3827820
  H        2.5523030     1.3896650     0.0543080
  H       -0.3983570     0.6446350     1.5043810
  H        2.6396080    -1.1506800     0.2905800
  H        1.6294670    -0.3677470     1.5171870
  H       -2.4737670     0.3533780    -0.0616490
units angstrom
no_reorient  #important for SAPT in psi4, default
symmetry c1  #important for SAPT in psi4, default
}

set PROPERTIES_ORIGIN ["COM"]
properties('MP2/aug-cc-pvtz', properties = ['dipole'])
--------------------------------------------------------------------------

    Molecular point group: c1
  Charge       = 0
  Multiplicity = 1
  Basis Set: AUG-CC-PVTZ
    Blend: AUG-CC-PVTZ
  Basis Set: (AUG-CC-PVTZ AUX)
    Blend: AUG-CC-PVTZ-JKFIT

    Orbital Energies [Eh]
    ---------------------

    Doubly Occupied:

       1A    -20.624258     2A    -20.557067     3A    -20.533355
       4A    -11.375830     5A    -11.329937     6A    -11.300998
       7A    -11.258610     8A    -11.247989     9A     -1.521726
      10A     -1.379146    11A     -1.348445    12A     -1.109349
      13A     -1.039434    14A     -0.926706    15A     -0.876791
      16A     -0.764200    17A     -0.757903    18A     -0.722217
      19A     -0.699913    20A     -0.648228    21A     -0.636750
      22A     -0.617570    23A     -0.596761    24A     -0.574546
      25A     -0.555854    26A     -0.530572    27A     -0.514158
      28A     -0.489292    29A     -0.461362    30A     -0.445678
      31A     -0.435462

  @DF-RHF Final Energy:  -418.73622197419564

   => Energetics <=

    Nuclear Repulsion Energy =            406.0041587128159222
    One-Electron Energy =               -1377.7205444283397355
    Two-Electron Energy =                 552.9801637413281696
    Total Energy =                       -418.7362219741955869
  Basis Set: (AUG-CC-PVTZ AUX)
    Blend: AUG-CC-PVTZ-RI
    Molecular point group: c1

    Geometry (in Angstrom), charge = 0, multiplicity = 1:

       Center              X                  Y                   Z               Mass
    ------------   -----------------  -----------------  -----------------  -----------------
         O            0.631927155916    -1.260180339974     0.028477399605    15.994914619570
         O           -1.872070344084     1.152519560026     0.227077399605    15.994914619570
         O           -1.480249344084    -1.418432439974    -0.404877600395    15.994914619570
         C            0.461461655916     1.468085560026    -0.348366600395    12.000000000000
         C            1.838969655916     0.772429560026    -0.357396600395    12.000000000000
         C           -0.572116344084     0.646538560026     0.430208399605    12.000000000000
         C            1.808980655916    -0.521571439974     0.443509399605    12.000000000000
         C           -0.499118344084    -0.801629439974    -0.023264600395    12.000000000000
         H            0.506354655916     2.470606560026     0.085753399605     1.007825032230
         H            0.070221655916     1.579692560026    -1.363490600395     1.007825032230
         H            2.133658655916     0.529671560026    -1.382319600395     1.007825032230
         H            2.620314655916     1.419756560026     0.054770399605     1.007825032230
         H           -0.330345344084     0.674726560026     1.504843399605     1.007825032230
         H            2.707619655916    -1.120588439974     0.291042399605     1.007825032230
         H            1.697478655916    -0.337655439974     1.517649399605     1.007825032230
         H           -2.405755344084     0.383469560026    -0.061186600395     1.007825032230

  Basis Set: AUG-CC-PVTZ
    Blend: AUG-CC-PVTZ
  Basis Set: (AUG-CC-PVTZ AUX)
    Blend: AUG-CC-PVTZ-JKFIT
	 Reference Energy          =    -418.7362219741956437 [Eh]
	 Singles Energy            =      -0.0000000000000000 [Eh]
	 Same-Spin Energy          =      -0.4113171531964600 [Eh]
	 Opposite-Spin Energy      =      -1.2879015382579495 [Eh]
	 Correlation Energy        =      -1.6992186914544094 [Eh]
	 Total Energy              =    -420.4354406656500487 [Eh]

	 ================> DF-SCS-MP2 Energies <==================
	-----------------------------------------------------------
	 SCS Same-Spin Scale       =       0.3333333333333333 [-]
	 SCS Opposite-Spin Scale   =       1.2000000000000000 [-]
	 SCS Same-Spin Energy      =      -0.1371057177321533 [Eh]
	 SCS Opposite-Spin Energy  =      -1.5454818459095394 [Eh]
	 SCS Correlation Energy    =      -1.6825875636416927 [Eh]
	 SCS Total Energy          =    -420.4188095378373191 [Eh]
	-----------------------------------------------------------

  Dipole Moment: [D]
     X:     4.7747      Y:     1.4195      Z:     1.0513     Total:     5.0910

*** Psi4 exiting successfully. Buy a developer a beer!
