                               Psi4 1.3.2 release

  ==> Input File <==

--------------------------------------------------------------------------
#psi4
#
memory 32 gb

molecule  {
0 1
  O        0.6578240    -1.4038190    -0.0084800
  O       -1.9400820     1.1224280     0.2266150
  O       -1.5482610    -1.4485240    -0.4053400
  C        0.3934500     1.4379940    -0.3488290
  C        1.7709580     0.7423380    -0.3578590
  C       -0.6255050     0.6616077     0.4426968
  C        1.7409690    -0.5516630     0.4430470
  C       -0.5671300    -0.8317210    -0.0237270
  H        0.4383430     2.4405150     0.0852910
  H        0.0022100     1.5496010    -1.3639530
  H        2.0656470     0.4995800    -1.3827820
  H        2.5523030     1.3896650     0.0543080
  H       -0.3983570     0.6446350     1.5043810
  H        2.6396080    -1.1506800     0.2905800
  H        1.6294670    -0.3677470     1.5171870
  H       -2.4737670     0.3533780    -0.0616490
units angstrom
no_reorient  #important for SAPT in psi4, default
symmetry c1  #important for SAPT in psi4, default
}

set PROPERTIES_ORIGIN ["COM"]
properties('MP2/aug-cc-pvtz', properties = ['dipole'])
--------------------------------------------------------------------------

    Molecular point group: c1
  Charge       = 0
  Multiplicity = 1
  Basis Set: AUG-CC-PVTZ
    Blend: AUG-CC-PVTZ
  Basis Set: (AUG-CC-PVTZ AUX)
    Blend: AUG-CC-PVTZ-JKFIT

    Orbital Energies [Eh]
    ---------------------

    Doubly Occupied:

       1A    -20.618026     2A    -20.565015     3A    -20.556658
       4A    -11.392818     5A    -11.314284     6A    -11.314176
       7A    -11.255493     8A    -11.248444     9A     -1.466034
      10A     -1.383078    11A     -1.357684    12A     -1.105955
      13A     -1.023959    14A     -0.914626    15A     -0.866857
      16A     -0.761728    17A     -0.742786    18A     -0.711477
      19A     -0.689572    20A     -0.645360    21A     -0.630839
      22A     -0.620001    23A     -0.593588    24A     -0.573585
      25A     -0.552671    26A     -0.531502    27A     -0.516475
      28A     -0.500578    29A     -0.470348    30A     -0.454063
      31A     -0.438596

  @DF-RHF Final Energy:  -418.74406905749333

   => Energetics <=

    Nuclear Repulsion Energy =            401.1921419453893805
    One-Electron Energy =               -1368.2398722942944005
    Two-Electron Energy =                 548.3036612914116859
    Total Energy =                       -418.7440690574933342
  Basis Set: (AUG-CC-PVTZ AUX)
    Blend: AUG-CC-PVTZ-RI
    Molecular point group: c1

    Geometry (in Angstrom), charge = 0, multiplicity = 1:

       Center              X                  Y                   Z               Mass
    ------------   -----------------  -----------------  -----------------  -----------------
         O            0.711380052021    -1.362747026941    -0.004326651564    15.994914619570
         O           -1.886525947979     1.163499973059     0.230768348436    15.994914619570
         O           -1.494704947979    -1.407452026941    -0.401186651564    15.994914619570
         C            0.447006052021     1.479065973059    -0.344675651564    12.000000000000
         C            1.824514052021     0.783409973059    -0.353705651564    12.000000000000
         C           -0.571948947979     0.702679673059     0.446850148436    12.000000000000
         C            1.794525052021    -0.510591026941     0.447200348436    12.000000000000
         C           -0.513573947979    -0.790649026941    -0.019573651564    12.000000000000
         H            0.491899052021     2.481586973059     0.089444348436     1.007825032230
         H            0.055766052021     1.590672973059    -1.359799651564     1.007825032230
         H            2.119203052021     0.540651973059    -1.378628651564     1.007825032230
         H            2.605859052021     1.430736973059     0.058461348436     1.007825032230
         H           -0.344800947979     0.685706973059     1.508534348436     1.007825032230
         H            2.693164052021    -1.109608026941     0.294733348436     1.007825032230
         H            1.683023052021    -0.326675026941     1.521340348436     1.007825032230
         H           -2.420210947979     0.394449973059    -0.057495651564     1.007825032230

  Basis Set: AUG-CC-PVTZ
    Blend: AUG-CC-PVTZ
  Basis Set: (AUG-CC-PVTZ AUX)
    Blend: AUG-CC-PVTZ-JKFIT
	 Reference Energy          =    -418.7440690574933342 [Eh]
	 Singles Energy            =      -0.0000000000000000 [Eh]
	 Same-Spin Energy          =      -0.4124960987938804 [Eh]
	 Opposite-Spin Energy      =      -1.2925430345401423 [Eh]
	 Correlation Energy        =      -1.7050391333340227 [Eh]
	 Total Energy              =    -420.4491081908273600 [Eh]

	 ================> DF-SCS-MP2 Energies <==================
	-----------------------------------------------------------
	 SCS Same-Spin Scale       =       0.3333333333333333 [-]
	 SCS Opposite-Spin Scale   =       1.2000000000000000 [-]
	 SCS Same-Spin Energy      =      -0.1374986995979601 [Eh]
	 SCS Opposite-Spin Energy  =      -1.5510516414481708 [Eh]
	 SCS Correlation Energy    =      -1.6885503410461309 [Eh]
	 SCS Total Energy          =    -420.4326193985394866 [Eh]
	-----------------------------------------------------------

  Dipole Moment: [D]
     X:     3.8837      Y:     1.6298      Z:     0.9761     Total:     4.3234

*** Psi4 exiting successfully. Buy a developer a beer!
