                               Psi4 1.3.2 release

  ==> Input File <==

--------------------------------------------------------------------------
#psi4
#
memory 32 gb

molecule  {
0 1
  O        0.6578240    -1.4038190    -0.0084800
  O       -1.9400820     1.1224280     0.2266150
  O       -1.5482610    -1.4485240    -0.4053400
  C        0.3934500     1.4379940    -0.3488290
  C        1.7709580     0.7423380    -0.3578590
  C       -0.6401280     0.6164470     0.4297460
  C        1.7409690    -0.5516630     0.4430470
  C       -0.7483294    -0.7470943    -0.0259824
  H        0.4383430     2.4405150     0.0852910
  H        0.0022100     1.5496010    -1.3639530
  H        2.0656470     0.4995800    -1.3827820
  H        2.5523030     1.3896650     0.0543080
  H       -0.3983570     0.6446350     1.5043810
  H        2.6396080    -1.1506800     0.2905800
  H        1.6294670    -0.3677470     1.5171870
  H       -2.4737670     0.3533780    -0.0616490
units angstrom
no_reorient  #important for SAPT in psi4, default
symmetry c1  #important for SAPT in psi4, default
}

set PROPERTIES_ORIGIN ["COM"]
properties('MP2/aug-cc-pvtz', properties = ['dipole'])
--------------------------------------------------------------------------

    Molecular point group: c1
  Charge       = 0
  Multiplicity = 1
  Basis Set: AUG-CC-PVTZ
    Blend: AUG-CC-PVTZ
  Basis Set: (AUG-CC-PVTZ AUX)
    Blend: AUG-CC-PVTZ-JKFIT

    Orbital Energies [Eh]
    ---------------------

    Doubly Occupied:

       1A    -20.594431     2A    -20.576541     3A    -20.568867
       4A    -11.396405     5A    -11.320742     6A    -11.288291
       7A    -11.253675     8A    -11.243589     9A     -1.500377
      10A     -1.389937    11A     -1.339716    12A     -1.097243
      13A     -1.021566    14A     -0.916843    15A     -0.849962
      16A     -0.772378    17A     -0.738045    18A     -0.716782
      19A     -0.693437    20A     -0.646759    21A     -0.626601
      22A     -0.620507    23A     -0.580695    24A     -0.571606
      25A     -0.566180    26A     -0.533577    27A     -0.521642
      28A     -0.499746    29A     -0.467936    30A     -0.444106
      31A     -0.436217

  @DF-RHF Final Energy:  -418.70748958164592

   => Energetics <=

    Nuclear Repulsion Energy =            401.5654613942413107
    One-Electron Energy =               -1368.9571045414365926
    Two-Electron Energy =                 548.6841535655494226
    Total Energy =                       -418.7074895816458593
  Basis Set: (AUG-CC-PVTZ AUX)
    Blend: AUG-CC-PVTZ-RI
    Molecular point group: c1

    Geometry (in Angstrom), charge = 0, multiplicity = 1:

       Center              X                  Y                   Z               Mass
    ------------   -----------------  -----------------  -----------------  -----------------
         O            0.731629277179    -1.366828050971    -0.002754238155    15.994914619570
         O           -1.866276722821     1.159418949029     0.232340761845    15.994914619570
         O           -1.474455722821    -1.411533050971    -0.399614238155    15.994914619570
         C            0.467255277179     1.474984949029    -0.343103238155    12.000000000000
         C            1.844763277179     0.779328949029    -0.352133238155    12.000000000000
         C           -0.566322722821     0.653437949029     0.435471761845    12.000000000000
         C            1.814774277179    -0.514672050971     0.448772761845    12.000000000000
         C           -0.674524122821    -0.710103350971    -0.020256638155    12.000000000000
         H            0.512148277179     2.477505949029     0.091016761845     1.007825032230
         H            0.076015277179     1.586591949029    -1.358227238155     1.007825032230
         H            2.139452277179     0.536570949029    -1.377056238155     1.007825032230
         H            2.626108277179     1.426655949029     0.060033761845     1.007825032230
         H           -0.324551722821     0.681625949029     1.510106761845     1.007825032230
         H            2.713413277179    -1.113689050971     0.296305761845     1.007825032230
         H            1.703272277179    -0.330756050971     1.522912761845     1.007825032230
         H           -2.399961722821     0.390368949029    -0.055923238155     1.007825032230

  Basis Set: AUG-CC-PVTZ
    Blend: AUG-CC-PVTZ
  Basis Set: (AUG-CC-PVTZ AUX)
    Blend: AUG-CC-PVTZ-JKFIT
	 Reference Energy          =    -418.7074895816459161 [Eh]
	 Singles Energy            =      -0.0000000000000000 [Eh]
	 Same-Spin Energy          =      -0.4134746186251811 [Eh]
	 Opposite-Spin Energy      =      -1.2954893787302169 [Eh]
	 Correlation Energy        =      -1.7089639973553981 [Eh]
	 Total Energy              =    -420.4164535790013133 [Eh]

	 ================> DF-SCS-MP2 Energies <==================
	-----------------------------------------------------------
	 SCS Same-Spin Scale       =       0.3333333333333333 [-]
	 SCS Opposite-Spin Scale   =       1.2000000000000000 [-]
	 SCS Same-Spin Energy      =      -0.1378248728750603 [Eh]
	 SCS Opposite-Spin Energy  =      -1.5545872544762602 [Eh]
	 SCS Correlation Energy    =      -1.6924121273513206 [Eh]
	 SCS Total Energy          =    -420.3999017089972199 [Eh]
	-----------------------------------------------------------

  Dipole Moment: [D]
     X:     2.1175      Y:     1.9555      Z:     0.8101     Total:     2.9940

*** Psi4 exiting successfully. Buy a developer a beer!
