                               Psi4 1.3.2 release

  ==> Input File <==

--------------------------------------------------------------------------
#psi4
#
memory 32 gb

molecule  {
0 1
  O        0.6578240    -1.4038190    -0.0084800
  O       -1.9400820     1.1224280     0.2266150
  O       -1.5482610    -1.4485240    -0.4053400
  C        0.3934500     1.4379940    -0.3488290
  C        1.7709580     0.7423380    -0.3578590
  C       -0.6401280     0.6164470     0.4297460
  C        1.7571811    -0.5707793     0.4395249
  C       -0.5671300    -0.8317210    -0.0237270
  H        0.4383430     2.4405150     0.0852910
  H        0.0022100     1.5496010    -1.3639530
  H        2.0656470     0.4995800    -1.3827820
  H        2.5523030     1.3896650     0.0543080
  H       -0.3983570     0.6446350     1.5043810
  H        2.6396080    -1.1506800     0.2905800
  H        1.6294670    -0.3677470     1.5171870
  H       -2.4737670     0.3533780    -0.0616490
units angstrom
no_reorient  #important for SAPT in psi4, default
symmetry c1  #important for SAPT in psi4, default
}

set PROPERTIES_ORIGIN ["COM"]
properties('MP2/aug-cc-pvtz', properties = ['dipole'])
--------------------------------------------------------------------------

    Molecular point group: c1
  Charge       = 0
  Multiplicity = 1
  Basis Set: AUG-CC-PVTZ
    Blend: AUG-CC-PVTZ
  Basis Set: (AUG-CC-PVTZ AUX)
    Blend: AUG-CC-PVTZ-JKFIT

    Orbital Energies [Eh]
    ---------------------

    Doubly Occupied:

       1A    -20.618232     2A    -20.566424     3A    -20.556469
       4A    -11.393358     5A    -11.314277     6A    -11.312975
       7A    -11.255081     8A    -11.249994     9A     -1.467159
      10A     -1.384814    11A     -1.358193    12A     -1.101388
      13A     -1.025604    14A     -0.918876    15A     -0.867597
      16A     -0.760569    17A     -0.744132    18A     -0.712107
      19A     -0.690529    20A     -0.641967    21A     -0.633808
      22A     -0.620067    23A     -0.592073    24A     -0.572341
      25A     -0.551791    26A     -0.532796    27A     -0.517310
      28A     -0.500607    29A     -0.469195    30A     -0.448928
      31A     -0.445857

  @DF-RHF Final Energy:  -418.74573220744401

   => Energetics <=

    Nuclear Repulsion Energy =            401.2693597627721829
    One-Electron Energy =               -1368.3811492517743318
    Two-Electron Energy =                 548.3660572815581418
    Total Energy =                       -418.7457322074440071
  Basis Set: (AUG-CC-PVTZ AUX)
    Blend: AUG-CC-PVTZ-RI
    Molecular point group: c1

    Geometry (in Angstrom), charge = 0, multiplicity = 1:

       Center              X                  Y                   Z               Mass
    ------------   -----------------  -----------------  -----------------  -----------------
         O            0.711215729433    -1.356100394863    -0.002623253684    15.994914619570
         O           -1.886690270567     1.170146605137     0.232471746316    15.994914619570
         O           -1.494869270567    -1.400805394863    -0.399483253684    15.994914619570
         C            0.446841729433     1.485712605137    -0.342972253684    12.000000000000
         C            1.824349729433     0.790056605137    -0.352002253684    12.000000000000
         C           -0.586736270567     0.664165605137     0.435602746316    12.000000000000
         C            1.810572829433    -0.523060694863     0.445381646316    12.000000000000
         C           -0.513738270567    -0.784002394863    -0.017870253684    12.000000000000
         H            0.491734729433     2.488233605137     0.091147746316     1.007825032230
         H            0.055601729433     1.597319605137    -1.358096253684     1.007825032230
         H            2.119038729433     0.547298605137    -1.376925253684     1.007825032230
         H            2.605694729433     1.437383605137     0.060164746316     1.007825032230
         H           -0.344965270567     0.692353605137     1.510237746316     1.007825032230
         H            2.692999729433    -1.102961394863     0.296436746316     1.007825032230
         H            1.682858729433    -0.320028394863     1.523043746316     1.007825032230
         H           -2.420375270567     0.401096605137    -0.055792253684     1.007825032230

  Basis Set: AUG-CC-PVTZ
    Blend: AUG-CC-PVTZ
  Basis Set: (AUG-CC-PVTZ AUX)
    Blend: AUG-CC-PVTZ-JKFIT
	 Reference Energy          =    -418.7457322074440071 [Eh]
	 Singles Energy            =      -0.0000000000000000 [Eh]
	 Same-Spin Energy          =      -0.4123987490803271 [Eh]
	 Opposite-Spin Energy      =      -1.2924349058791780 [Eh]
	 Correlation Energy        =      -1.7048336549595051 [Eh]
	 Total Energy              =    -420.4505658624034936 [Eh]

	 ================> DF-SCS-MP2 Energies <==================
	-----------------------------------------------------------
	 SCS Same-Spin Scale       =       0.3333333333333333 [-]
	 SCS Opposite-Spin Scale   =       1.2000000000000000 [-]
	 SCS Same-Spin Energy      =      -0.1374662496934424 [Eh]
	 SCS Opposite-Spin Energy  =      -1.5509218870550134 [Eh]
	 SCS Correlation Energy    =      -1.6883881367484559 [Eh]
	 SCS Total Energy          =    -420.4341203441924790 [Eh]
	-----------------------------------------------------------

  Dipole Moment: [D]
     X:     3.8774      Y:     1.6219      Z:     0.9797     Total:     4.3156

*** Psi4 exiting successfully. Buy a developer a beer!
