                               Psi4 1.3.2 release

  ==> Input File <==

--------------------------------------------------------------------------
#psi4
#
memory 32 gb

molecule  {
0 1
  O        0.6645293    -1.4210991     0.0087568
  O       -1.9400820     1.1224280     0.2266150
  O       -1.5482610    -1.4485240    -0.4053400
  C        0.3934500     1.4379940    -0.3488290
  C        1.7709580     0.7423380    -0.3578590
  C       -0.6401280     0.6164470     0.4297460
  C        1.7409690    -0.5516630     0.4430470
  C       -0.5671300    -0.8317210    -0.0237270
  H        0.4383430     2.4405150     0.0852910
  H        0.0022100     1.5496010    -1.3639530
  H        2.0656470     0.4995800    -1.3827820
  H        2.5523030     1.3896650     0.0543080
  H       -0.3983570     0.6446350     1.5043810
  H        2.6396080    -1.1506800     0.2905800
  H        1.6294670    -0.3677470     1.5171870
  H       -2.4737670     0.3533780    -0.0616490
units angstrom
no_reorient  #important for SAPT in psi4, default
symmetry c1  #important for SAPT in psi4, default
}

set PROPERTIES_ORIGIN ["COM"]
properties('MP2/aug-cc-pvtz', properties = ['dipole'])
--------------------------------------------------------------------------

    Molecular point group: c1
  Charge       = 0
  Multiplicity = 1
  Basis Set: AUG-CC-PVTZ
    Blend: AUG-CC-PVTZ
  Basis Set: (AUG-CC-PVTZ AUX)
    Blend: AUG-CC-PVTZ-JKFIT

    Orbital Energies [Eh]
    ---------------------

    Doubly Occupied:

       1A    -20.618413     2A    -20.567471     3A    -20.558701
       4A    -11.394684     5A    -11.314294     6A    -11.312846
       7A    -11.254802     8A    -11.250125     9A     -1.463702
      10A     -1.385136    11A     -1.359179    12A     -1.103492
      13A     -1.023989    14A     -0.917909    15A     -0.867113
      16A     -0.761525    17A     -0.742569    18A     -0.710135
      19A     -0.690872    20A     -0.641184    21A     -0.630686
      22A     -0.620105    23A     -0.592481    24A     -0.572247
      25A     -0.554273    26A     -0.532477    27A     -0.516647
      28A     -0.501797    29A     -0.470657    30A     -0.450685
      31A     -0.445785

  @DF-RHF Final Energy:  -418.74490481670290

   => Energetics <=

    Nuclear Repulsion Energy =            401.1035817963852423
    One-Electron Energy =               -1368.0450110548183602
    Two-Electron Energy =                 548.1965244417301619
    Total Energy =                       -418.7449048167029559
  Basis Set: (AUG-CC-PVTZ AUX)
    Blend: AUG-CC-PVTZ-RI
    Molecular point group: c1

    Geometry (in Angstrom), charge = 0, multiplicity = 1:

       Center              X                  Y                   Z               Mass
    ------------   -----------------  -----------------  -----------------  -----------------
         O            0.718673261202    -1.372975503913     0.011873575430    15.994914619570
         O           -1.885938038798     1.170551596087     0.229731775430    15.994914619570
         O           -1.494117038798    -1.400400403913    -0.402223224570    15.994914619570
         C            0.447593961202     1.486117596087    -0.345712224570    12.000000000000
         C            1.825101961202     0.790461596087    -0.354742224570    12.000000000000
         C           -0.585984038798     0.664570596087     0.432862775430    12.000000000000
         C            1.795112961202    -0.503539403913     0.446163775430    12.000000000000
         C           -0.512986038798    -0.783597403913    -0.020610224570    12.000000000000
         H            0.492486961202     2.488638596087     0.088407775430     1.007825032230
         H            0.056353961202     1.597724596087    -1.360836224570     1.007825032230
         H            2.119790961202     0.547703596087    -1.379665224570     1.007825032230
         H            2.606446961202     1.437788596087     0.057424775430     1.007825032230
         H           -0.344213038798     0.692758596087     1.507497775430     1.007825032230
         H            2.693751961202    -1.102556403913     0.293696775430     1.007825032230
         H            1.683610961202    -0.319623403913     1.520303775430     1.007825032230
         H           -2.419623038798     0.401501596087    -0.058532224570     1.007825032230

  Basis Set: AUG-CC-PVTZ
    Blend: AUG-CC-PVTZ
  Basis Set: (AUG-CC-PVTZ AUX)
    Blend: AUG-CC-PVTZ-JKFIT
	 Reference Energy          =    -418.7449048167028991 [Eh]
	 Singles Energy            =      -0.0000000000000000 [Eh]
	 Same-Spin Energy          =      -0.4127313504675109 [Eh]
	 Opposite-Spin Energy      =      -1.2932425517099304 [Eh]
	 Correlation Energy        =      -1.7059739021774414 [Eh]
	 Total Energy              =    -420.4508787188803467 [Eh]

	 ================> DF-SCS-MP2 Energies <==================
	-----------------------------------------------------------
	 SCS Same-Spin Scale       =       0.3333333333333333 [-]
	 SCS Opposite-Spin Scale   =       1.2000000000000000 [-]
	 SCS Same-Spin Energy      =      -0.1375771168225036 [Eh]
	 SCS Opposite-Spin Energy  =      -1.5518910620519164 [Eh]
	 SCS Correlation Energy    =      -1.6894681788744199 [Eh]
	 SCS Total Energy          =    -420.4343729955772915 [Eh]
	-----------------------------------------------------------

  Dipole Moment: [D]
     X:     3.7733      Y:     1.6807      Z:     0.9495     Total:     4.2384

*** Psi4 exiting successfully. Buy a developer a beer!
