                               Psi4 1.3.2 release

  ==> Input File <==

--------------------------------------------------------------------------
#psi4
#
memory 32 gb

molecule  {
0 1
  O        0.6578240    -1.4038190    -0.0084800
  O       -1.9400820     1.1224280     0.2266150
  O       -1.5482610    -1.4485240    -0.4053400
  C        0.3934500     1.4379940    -0.3488290
  C        1.7709580     0.7423380    -0.3578590
  C       -0.6480346     0.5940944     0.4231768
  C        1.7409690    -0.5516630     0.4430470
  C       -0.5671300    -0.8317210    -0.0237270
  H        0.4383430     2.4405150     0.0852910
  H        0.0022100     1.5496010    -1.3639530
  H        2.0656470     0.4995800    -1.3827820
  H        2.5523030     1.3896650     0.0543080
  H       -0.3983570     0.6446350     1.5043810
  H        2.6396080    -1.1506800     0.2905800
  H        1.6294670    -0.3677470     1.5171870
  H       -2.4737670     0.3533780    -0.0616490
units angstrom
no_reorient  #important for SAPT in psi4, default
symmetry c1  #important for SAPT in psi4, default
}

set PROPERTIES_ORIGIN ["COM"]
properties('MP2/aug-cc-pvtz', properties = ['dipole'])
--------------------------------------------------------------------------

    Molecular point group: c1
  Charge       = 0
  Multiplicity = 1
  Basis Set: AUG-CC-PVTZ
    Blend: AUG-CC-PVTZ
  Basis Set: (AUG-CC-PVTZ AUX)
    Blend: AUG-CC-PVTZ-JKFIT

    Orbital Energies [Eh]
    ---------------------

    Doubly Occupied:

       1A    -20.619476     2A    -20.567509     3A    -20.556264
       4A    -11.392915     5A    -11.314278     6A    -11.312891
       7A    -11.254334     8A    -11.250692     9A     -1.468756
      10A     -1.386135    11A     -1.358727    12A     -1.102343
      13A     -1.026333    14A     -0.920868    15A     -0.867840
      16A     -0.760817    17A     -0.746433    18A     -0.709709
      19A     -0.692519    20A     -0.639630    21A     -0.631549
      22A     -0.620141    23A     -0.592156    24A     -0.572691
      25A     -0.554608    26A     -0.531889    27A     -0.516657
      28A     -0.501206    29A     -0.470094    30A     -0.450396
      31A     -0.445647

  @DF-RHF Final Energy:  -418.74533808929226

   => Energetics <=

    Nuclear Repulsion Energy =            401.8072948977575720
    One-Electron Energy =               -1369.4342556259502999
    Two-Electron Energy =                 548.8816226389004669
    Total Energy =                       -418.7453380892922041
  Basis Set: (AUG-CC-PVTZ AUX)
    Blend: AUG-CC-PVTZ-RI
    Molecular point group: c1

    Geometry (in Angstrom), charge = 0, multiplicity = 1:

       Center              X                  Y                   Z               Mass
    ------------   -----------------  -----------------  -----------------  -----------------
         O            0.713709749457    -1.355765741793    -0.002308165042    15.994914619570
         O           -1.884196250543     1.170481258207     0.232786834958    15.994914619570
         O           -1.492375250543    -1.400470741793    -0.399168165042    15.994914619570
         C            0.449335749457     1.486047258207    -0.342657165042    12.000000000000
         C            1.826843749457     0.790391258207    -0.351687165042    12.000000000000
         C           -0.592148850543     0.642147658207     0.429348634958    12.000000000000
         C            1.796854749457    -0.503609741793     0.449218834958    12.000000000000
         C           -0.511244250543    -0.783667741793    -0.017555165042    12.000000000000
         H            0.494228749457     2.488568258207     0.091462834958     1.007825032230
         H            0.058095749457     1.597654258207    -1.357781165042     1.007825032230
         H            2.121532749457     0.547633258207    -1.376610165042     1.007825032230
         H            2.608188749457     1.437718258207     0.060479834958     1.007825032230
         H           -0.342471250543     0.692688258207     1.510552834958     1.007825032230
         H            2.695493749457    -1.102626741793     0.296751834958     1.007825032230
         H            1.685352749457    -0.319693741793     1.523358834958     1.007825032230
         H           -2.417881250543     0.401431258207    -0.055477165042     1.007825032230

  Basis Set: AUG-CC-PVTZ
    Blend: AUG-CC-PVTZ
  Basis Set: (AUG-CC-PVTZ AUX)
    Blend: AUG-CC-PVTZ-JKFIT
	 Reference Energy          =    -418.7453380892922610 [Eh]
	 Singles Energy            =      -0.0000000000000000 [Eh]
	 Same-Spin Energy          =      -0.4127098500149187 [Eh]
	 Opposite-Spin Energy      =      -1.2928839132172869 [Eh]
	 Correlation Energy        =      -1.7055937632322056 [Eh]
	 Total Energy              =    -420.4509318525244908 [Eh]

	 ================> DF-SCS-MP2 Energies <==================
	-----------------------------------------------------------
	 SCS Same-Spin Scale       =       0.3333333333333333 [-]
	 SCS Opposite-Spin Scale   =       1.2000000000000000 [-]
	 SCS Same-Spin Energy      =      -0.1375699500049729 [Eh]
	 SCS Opposite-Spin Energy  =      -1.5514606958607442 [Eh]
	 SCS Correlation Energy    =      -1.6890306458657172 [Eh]
	 SCS Total Energy          =    -420.4343687351579888 [Eh]
	-----------------------------------------------------------

  Dipole Moment: [D]
     X:     3.8435      Y:     1.6580      Z:     0.9863     Total:     4.3005

*** Psi4 exiting successfully. Buy a developer a beer!
