                               Psi4 1.3.2 release

  ==> Input File <==

--------------------------------------------------------------------------
#psi4
#
memory 32 gb

molecule  {
0 1
  O        0.7064158    -1.2809224     0.0421527
  O       -1.9400820     1.1224280     0.2266150
  O       -1.5482610    -1.4485240    -0.4053400
  C        0.3934500     1.4379940    -0.3488290
  C        1.7709580     0.7423380    -0.3578590
  C       -0.6401280     0.6164470     0.4297460
  C        1.7409690    -0.5516630     0.4430470
  C       -0.5671300    -0.8317210    -0.0237270
  H        0.4383430     2.4405150     0.0852910
  H        0.0022100     1.5496010    -1.3639530
  H        2.0656470     0.4995800    -1.3827820
  H        2.5523030     1.3896650     0.0543080
  H       -0.3983570     0.6446350     1.5043810
  H        2.6396080    -1.1506800     0.2905800
  H        1.6294670    -0.3677470     1.5171870
  H       -2.4737670     0.3533780    -0.0616490
units angstrom
no_reorient  #important for SAPT in psi4, default
symmetry c1  #important for SAPT in psi4, default
}

set PROPERTIES_ORIGIN ["COM"]
properties('MP2/aug-cc-pvtz', properties = ['dipole'])
--------------------------------------------------------------------------

    Molecular point group: c1
  Charge       = 0
  Multiplicity = 1
  Basis Set: AUG-CC-PVTZ
    Blend: AUG-CC-PVTZ
  Basis Set: (AUG-CC-PVTZ AUX)
    Blend: AUG-CC-PVTZ-JKFIT

    Orbital Energies [Eh]
    ---------------------

    Doubly Occupied:

       1A    -20.617327     2A    -20.567668     3A    -20.564883
       4A    -11.403811     5A    -11.309271     6A    -11.304809
       7A    -11.247729     8A    -11.247142     9A     -1.494551
      10A     -1.400336    11A     -1.363995    12A     -1.096817
      13A     -1.041154    14A     -0.918411    15A     -0.880115
      16A     -0.760007    17A     -0.753995    18A     -0.721380
      19A     -0.702431    20A     -0.652878    21A     -0.647992
      22A     -0.615195    23A     -0.588999    24A     -0.568495
      25A     -0.552583    26A     -0.534726    27A     -0.511756
      28A     -0.504881    29A     -0.467104    30A     -0.446592
      31A     -0.439676

  @DF-RHF Final Energy:  -418.73527158830882

   => Energetics <=

    Nuclear Repulsion Energy =            404.6224015067450068
    One-Electron Energy =               -1374.8619275221706175
    Two-Electron Energy =                 551.5042544271167344
    Total Energy =                       -418.7352715883088194
  Basis Set: (AUG-CC-PVTZ AUX)
    Blend: AUG-CC-PVTZ-RI
    Molecular point group: c1

    Geometry (in Angstrom), charge = 0, multiplicity = 1:

       Center              X                  Y                   Z               Mass
    ------------   -----------------  -----------------  -----------------  -----------------
         O            0.754786505499    -1.252119490355     0.040666487113    15.994914619570
         O           -1.891711294501     1.151230909645     0.225128787113    15.994914619570
         O           -1.499890294501    -1.419721090355    -0.406826212887    15.994914619570
         C            0.441820705499     1.466796909645    -0.350315212887    12.000000000000
         C            1.819328705499     0.771140909645    -0.359345212887    12.000000000000
         C           -0.591757294501     0.645249909645     0.428259787113    12.000000000000
         C            1.789339705499    -0.522860090355     0.441560787113    12.000000000000
         C           -0.518759294501    -0.802918090355    -0.025213212887    12.000000000000
         H            0.486713705499     2.469317909645     0.083804787113     1.007825032230
         H            0.050580705499     1.578403909645    -1.365439212887     1.007825032230
         H            2.114017705499     0.528382909645    -1.384268212887     1.007825032230
         H            2.600673705499     1.418467909645     0.052821787113     1.007825032230
         H           -0.349986294501     0.673437909645     1.502894787113     1.007825032230
         H            2.687978705499    -1.121877090355     0.289093787113     1.007825032230
         H            1.677837705499    -0.338944090355     1.515700787113     1.007825032230
         H           -2.425396294501     0.382180909645    -0.063135212887     1.007825032230

  Basis Set: AUG-CC-PVTZ
    Blend: AUG-CC-PVTZ
  Basis Set: (AUG-CC-PVTZ AUX)
    Blend: AUG-CC-PVTZ-JKFIT
	 Reference Energy          =    -418.7352715883088194 [Eh]
	 Singles Energy            =      -0.0000000000000000 [Eh]
	 Same-Spin Energy          =      -0.4127708051225497 [Eh]
	 Opposite-Spin Energy      =      -1.2907283697485181 [Eh]
	 Correlation Energy        =      -1.7034991748710677 [Eh]
	 Total Energy              =    -420.4387707631798889 [Eh]

	 ================> DF-SCS-MP2 Energies <==================
	-----------------------------------------------------------
	 SCS Same-Spin Scale       =       0.3333333333333333 [-]
	 SCS Opposite-Spin Scale   =       1.2000000000000000 [-]
	 SCS Same-Spin Energy      =      -0.1375902683741832 [Eh]
	 SCS Opposite-Spin Energy  =      -1.5488740436982218 [Eh]
	 SCS Correlation Energy    =      -1.6864643120724050 [Eh]
	 SCS Total Energy          =    -420.4217359003812362 [Eh]
	-----------------------------------------------------------

  Dipole Moment: [D]
     X:     3.5694      Y:     1.2727      Z:     0.8512     Total:     3.8840

*** Psi4 exiting successfully. Buy a developer a beer!
