                               Psi4 1.4a3.dev225

  ==> Input File <==

--------------------------------------------------------------------------
#psi4
#
memory 32 gb

molecule  {
0 1
  O        0.6578240    -1.4038190    -0.0084800
  O       -1.9400820     1.1224280     0.2266150
  O       -1.5482610    -1.4485240    -0.4053400
  C        0.3934500     1.4379940    -0.3488290
  C        1.7709580     0.7423380    -0.3578590
  C       -0.6401280     0.6164470     0.4297460
  C        1.7260317    -0.5634148     0.4368202
  C       -0.5671300    -0.8317210    -0.0237270
  H        0.4383430     2.4405150     0.0852910
  H        0.0022100     1.5496010    -1.3639530
  H        2.0656470     0.4995800    -1.3827820
  H        2.5523030     1.3896650     0.0543080
  H       -0.3983570     0.6446350     1.5043810
  H        2.6396080    -1.1506800     0.2905800
  H        1.6294670    -0.3677470     1.5171870
  H       -2.4737670     0.3533780    -0.0616490
units angstrom
no_reorient  #important for SAPT in psi4, default
symmetry c1  #important for SAPT in psi4, default
}

set PROPERTIES_ORIGIN ["COM"]
properties('MP2/aug-cc-pvtz', properties = ['dipole'])
--------------------------------------------------------------------------

    Molecular point group: c1
  Charge       = 0
  Multiplicity = 1
  Basis Set: AUG-CC-PVTZ
    Blend: AUG-CC-PVTZ
  Basis Set: (AUG-CC-PVTZ AUX)
    Blend: AUG-CC-PVTZ-JKFIT

    Orbital Energies [Eh]
    ---------------------

    Doubly Occupied:

       1A    -20.621231     2A    -20.566989     3A    -20.557814
       4A    -11.394507     5A    -11.313824     6A    -11.313586
       7A    -11.254175     8A    -11.249490     9A     -1.472652
      10A     -1.387342    11A     -1.359914    12A     -1.102445
      13A     -1.024928    14A     -0.918561    15A     -0.869394
      16A     -0.761418    17A     -0.746754    18A     -0.710924
      19A     -0.693463    20A     -0.643177    21A     -0.633126
      22A     -0.619032    23A     -0.593589    24A     -0.572262
      25A     -0.552928    26A     -0.532238    27A     -0.514912
      28A     -0.502156    29A     -0.470266    30A     -0.449830
      31A     -0.445457

  @DF-RHF Final Energy:  -418.74614539314831

   => Energetics <=

    Nuclear Repulsion Energy =            401.8848200468314644
    One-Electron Energy =               -1369.5651603906158016
    Two-Electron Energy =                 548.9341949506360834
    Total Energy =                       -418.7461453931482538
  Basis Set: (AUG-CC-PVTZ AUX)
    Blend: AUG-CC-PVTZ-RI
    Molecular point group: c1

    Geometry (in Angstrom), charge = 0, multiplicity = 1:

       Center              X                  Y                   Z               Mass
    ------------   -----------------  -----------------  -----------------  -----------------
         O            0.714436766526    -1.356861928879    -0.002343571281    15.994914619570
         O           -1.883469233474     1.169385071121     0.232751428719    15.994914619570
         O           -1.491648233474    -1.401566928879    -0.399203571281    15.994914619570
         C            0.450062766526     1.484951071121    -0.342692571281    12.000000000000
         C            1.827570766526     0.789295071121    -0.351722571281    12.000000000000
         C           -0.583515233474     0.663404071121     0.435882428719    12.000000000000
         C            1.782644466526    -0.516457728879     0.442956628719    12.000000000000
         C           -0.510517233474    -0.784763928879    -0.017590571281    12.000000000000
         H            0.494955766526     2.487472071121     0.091427428719     1.007825032230
         H            0.058822766526     1.596558071121    -1.357816571281     1.007825032230
         H            2.122259766526     0.546537071121    -1.376645571281     1.007825032230
         H            2.608915766526     1.436622071121     0.060444428719     1.007825032230
         H           -0.341744233474     0.691592071121     1.510517428719     1.007825032230
         H            2.696220766526    -1.103722928879     0.296716428719     1.007825032230
         H            1.686079766526    -0.320789928879     1.523323428719     1.007825032230
         H           -2.417154233474     0.400335071121    -0.055512571281     1.007825032230

  Basis Set: AUG-CC-PVTZ
    Blend: AUG-CC-PVTZ
  Basis Set: (AUG-CC-PVTZ AUX)
    Blend: AUG-CC-PVTZ-JKFIT
	 Reference Energy          =    -418.7461453931483106 [Eh]
	 Singles Energy            =      -0.0000000000000000 [Eh]
	 Same-Spin Energy          =      -0.4125486258376957 [Eh]
	 Opposite-Spin Energy      =      -1.2924441875452699 [Eh]
	 Correlation Energy        =      -1.7049928133829657 [Eh]
	 Total Energy              =    -420.4511382065312546 [Eh]

	 ================> DF-SCS-MP2 Energies <==================
	-----------------------------------------------------------
	 SCS Same-Spin Scale       =       0.3333333333333333 [-]
	 SCS Opposite-Spin Scale   =       1.2000000000000000 [-]
	 SCS Same-Spin Energy      =      -0.1375162086125652 [Eh]
	 SCS Opposite-Spin Energy  =      -1.5509330250543238 [Eh]
	 SCS Correlation Energy    =      -1.6884492336668890 [Eh]
	 SCS Total Energy          =    -420.4345946268152261 [Eh]
	-----------------------------------------------------------

  Dipole Moment: [D]
     X:     3.7917      Y:     1.6104      Z:     0.9638     Total:     4.2308

*** Psi4 exiting successfully. Buy a developer a beer!
