                               Psi4 1.4a3.dev225

  ==> Input File <==

--------------------------------------------------------------------------
#psi4
#
memory 32 gb

molecule  {
0 1
  O        0.6578240    -1.4038190    -0.0084800
  O       -1.9400820     1.1224280     0.2266150
  O       -1.5482610    -1.4485240    -0.4053400
  C        0.3934500     1.4379940    -0.3488290
  C        1.7709580     0.7423380    -0.3578590
  C       -0.6401280     0.6164470     0.4297460
  C        1.7409690    -0.5516630     0.4430470
  C       -0.5269237    -0.8064447    -0.0080887
  H        0.4383430     2.4405150     0.0852910
  H        0.0022100     1.5496010    -1.3639530
  H        2.0656470     0.4995800    -1.3827820
  H        2.5523030     1.3896650     0.0543080
  H       -0.3983570     0.6446350     1.5043810
  H        2.6396080    -1.1506800     0.2905800
  H        1.6294670    -0.3677470     1.5171870
  H       -2.4737670     0.3533780    -0.0616490
units angstrom
no_reorient  #important for SAPT in psi4, default
symmetry c1  #important for SAPT in psi4, default
}

set PROPERTIES_ORIGIN ["COM"]
properties('MP2/aug-cc-pvtz', properties = ['dipole'])
--------------------------------------------------------------------------

    Molecular point group: c1
  Charge       = 0
  Multiplicity = 1
  Basis Set: AUG-CC-PVTZ
    Blend: AUG-CC-PVTZ
  Basis Set: (AUG-CC-PVTZ AUX)
    Blend: AUG-CC-PVTZ-JKFIT

    Orbital Energies [Eh]
    ---------------------

    Doubly Occupied:

       1A    -20.629558     2A    -20.567401     3A    -20.546831
       4A    -11.396261     5A    -11.318555     6A    -11.314906
       7A    -11.258060     8A    -11.252294     9A     -1.476379
      10A     -1.381408    11A     -1.334350    12A     -1.108990
      13A     -1.032071    14A     -0.926336    15A     -0.873031
      16A     -0.763877    17A     -0.750418    18A     -0.710558
      19A     -0.694226    20A     -0.645094    21A     -0.622157
      22A     -0.619161    23A     -0.597217    24A     -0.575505
      25A     -0.551657    26A     -0.530687    27A     -0.517355
      28A     -0.496264    29A     -0.466631    30A     -0.448117
      31A     -0.445369

  @DF-RHF Final Energy:  -418.73741960913901

   => Energetics <=

    Nuclear Repulsion Energy =            401.8146094149831242
    One-Electron Energy =               -1369.4026095865265233
    Two-Electron Energy =                 548.8505805624043887
    Total Energy =                       -418.7374196091390104
  Basis Set: (AUG-CC-PVTZ AUX)
    Blend: AUG-CC-PVTZ-RI
    Molecular point group: c1

    Geometry (in Angstrom), charge = 0, multiplicity = 1:

       Center              X                  Y                   Z               Mass
    ------------   -----------------  -----------------  -----------------  -----------------
         O            0.708734583464    -1.360690859247    -0.004604555382    15.994914619570
         O           -1.889171416536     1.165556140753     0.230490444618    15.994914619570
         O           -1.497350416536    -1.405395859247    -0.401464555382    15.994914619570
         C            0.444360583464     1.481122140753    -0.344953555382    12.000000000000
         C            1.821868583464     0.785466140753    -0.353983555382    12.000000000000
         C           -0.589217416536     0.659575140753     0.433621444618    12.000000000000
         C            1.791879583464    -0.508534859247     0.446922444618    12.000000000000
         C           -0.476013116536    -0.763316559247    -0.004213255382    12.000000000000
         H            0.489253583464     2.483643140753     0.089166444618     1.007825032230
         H            0.053120583464     1.592729140753    -1.360077555382     1.007825032230
         H            2.116557583464     0.542708140753    -1.378906555382     1.007825032230
         H            2.603213583464     1.432793140753     0.058183444618     1.007825032230
         H           -0.347446416536     0.687763140753     1.508256444618     1.007825032230
         H            2.690518583464    -1.107551859247     0.294455444618     1.007825032230
         H            1.680377583464    -0.324618859247     1.521062444618     1.007825032230
         H           -2.422856416536     0.396506140753    -0.057773555382     1.007825032230

  Basis Set: AUG-CC-PVTZ
    Blend: AUG-CC-PVTZ
  Basis Set: (AUG-CC-PVTZ AUX)
    Blend: AUG-CC-PVTZ-JKFIT
	 Reference Energy          =    -418.7374196091390104 [Eh]
	 Singles Energy            =      -0.0000000000000000 [Eh]
	 Same-Spin Energy          =      -0.4139572391574810 [Eh]
	 Opposite-Spin Energy      =      -1.2951525565585802 [Eh]
	 Correlation Energy        =      -1.7091097957160613 [Eh]
	 Total Energy              =    -420.4465294048550845 [Eh]

	 ================> DF-SCS-MP2 Energies <==================
	-----------------------------------------------------------
	 SCS Same-Spin Scale       =       0.3333333333333333 [-]
	 SCS Opposite-Spin Scale   =       1.2000000000000000 [-]
	 SCS Same-Spin Energy      =      -0.1379857463858270 [Eh]
	 SCS Opposite-Spin Energy  =      -1.5541830678702961 [Eh]
	 SCS Correlation Energy    =      -1.6921688142561231 [Eh]
	 SCS Total Energy          =    -420.4295884233951597 [Eh]
	-----------------------------------------------------------

  Dipole Moment: [D]
     X:     4.2163      Y:     1.7888      Z:     1.0696     Total:     4.7033

*** Psi4 exiting successfully. Buy a developer a beer!
