                               Psi4 1.3.2 release

  ==> Input File <==

--------------------------------------------------------------------------
#psi4
#
memory 32 gb

molecule  {
0 1
  O        0.6578240    -1.4038190    -0.0084800
  O       -1.9400820     1.1224280     0.2266150
  O       -1.5482610    -1.4485240    -0.4053400
  C        0.3934500     1.4379940    -0.3488290
  C        1.7709580     0.7423380    -0.3578590
  C       -0.6401280     0.6164470     0.4297460
  C        1.7409690    -0.5516630     0.4430470
  C       -0.4867173    -0.7811683     0.0075497
  H        0.4383430     2.4405150     0.0852910
  H        0.0022100     1.5496010    -1.3639530
  H        2.0656470     0.4995800    -1.3827820
  H        2.5523030     1.3896650     0.0543080
  H       -0.3983570     0.6446350     1.5043810
  H        2.6396080    -1.1506800     0.2905800
  H        1.6294670    -0.3677470     1.5171870
  H       -2.4737670     0.3533780    -0.0616490
units angstrom
no_reorient  #important for SAPT in psi4, default
symmetry c1  #important for SAPT in psi4, default
}

set PROPERTIES_ORIGIN ["COM"]
properties('MP2/aug-cc-pvtz', properties = ['dipole'])
--------------------------------------------------------------------------

    Molecular point group: c1
  Charge       = 0
  Multiplicity = 1
  Basis Set: AUG-CC-PVTZ
    Blend: AUG-CC-PVTZ
  Basis Set: (AUG-CC-PVTZ AUX)
    Blend: AUG-CC-PVTZ-JKFIT

    Orbital Energies [Eh]
    ---------------------

    Doubly Occupied:

       1A    -20.639706     2A    -20.568264     3A    -20.536962
       4A    -11.399012     5A    -11.322674     6A    -11.316577
       7A    -11.261379     8A    -11.254769     9A     -1.490058
      10A     -1.380485    11A     -1.305462    12A     -1.114831
      13A     -1.038480    14A     -0.934218    15A     -0.877998
      16A     -0.767332    17A     -0.756241    18A     -0.712864
      19A     -0.698087    20A     -0.649498    21A     -0.624453
      22A     -0.608925    23A     -0.598985    24A     -0.578433
      25A     -0.552319    26A     -0.529856    27A     -0.518911
      28A     -0.492620    29A     -0.464502    30A     -0.444825
      31A     -0.436410

  @DF-RHF Final Energy:  -418.72166272863956

   => Energetics <=

    Nuclear Repulsion Energy =            402.0840437305034243
    One-Electron Energy =               -1369.8611423075071798
    Two-Electron Energy =                 549.0554358483641408
    Total Energy =                       -418.7216627286395578
  Basis Set: (AUG-CC-PVTZ AUX)
    Blend: AUG-CC-PVTZ-RI
    Molecular point group: c1

    Geometry (in Angstrom), charge = 0, multiplicity = 1:

       Center              X                  Y                   Z               Mass
    ------------   -----------------  -----------------  -----------------  -----------------
         O            0.704576997578    -1.363304592480    -0.006221660896    15.994914619570
         O           -1.893329002422     1.162942407520     0.228873339104    15.994914619570
         O           -1.501508002422    -1.408009592480    -0.403081660896    15.994914619570
         C            0.440202997578     1.478508407520    -0.346570660896    12.000000000000
         C            1.817710997578     0.782852407520    -0.355600660896    12.000000000000
         C           -0.593375002422     0.656961407520     0.432004339104    12.000000000000
         C            1.787721997578    -0.511148592480     0.445305339104    12.000000000000
         C           -0.439964302422    -0.740653892480     0.009808039104    12.000000000000
         H            0.485095997578     2.481029407520     0.087549339104     1.007825032230
         H            0.048962997578     1.590115407520    -1.361694660896     1.007825032230
         H            2.112399997578     0.540094407520    -1.380523660896     1.007825032230
         H            2.599055997578     1.430179407520     0.056566339104     1.007825032230
         H           -0.351604002422     0.685149407520     1.506639339104     1.007825032230
         H            2.686360997578    -1.110165592480     0.292838339104     1.007825032230
         H            1.676219997578    -0.327232592480     1.519445339104     1.007825032230
         H           -2.427014002422     0.393892407520    -0.059390660896     1.007825032230

  Basis Set: AUG-CC-PVTZ
    Blend: AUG-CC-PVTZ
  Basis Set: (AUG-CC-PVTZ AUX)
    Blend: AUG-CC-PVTZ-JKFIT
	 Reference Energy          =    -418.7216627286395578 [Eh]
	 Singles Energy            =      -0.0000000000000000 [Eh]
	 Same-Spin Energy          =      -0.4154690532238774 [Eh]
	 Opposite-Spin Energy      =      -1.2978453793538918 [Eh]
	 Correlation Energy        =      -1.7133144325777692 [Eh]
	 Total Energy              =    -420.4349771612173186 [Eh]

	 ================> DF-SCS-MP2 Energies <==================
	-----------------------------------------------------------
	 SCS Same-Spin Scale       =       0.3333333333333333 [-]
	 SCS Opposite-Spin Scale   =       1.2000000000000000 [-]
	 SCS Same-Spin Energy      =      -0.1384896844079591 [Eh]
	 SCS Opposite-Spin Energy  =      -1.5574144552246700 [Eh]
	 SCS Correlation Energy    =      -1.6959041396326291 [Eh]
	 SCS Total Energy          =    -420.4175668682721607 [Eh]
	-----------------------------------------------------------

  Dipole Moment: [D]
     X:     4.5504      Y:     1.9233      Z:     1.1491     Total:     5.0720

*** Psi4 exiting successfully. Buy a developer a beer!
