                               Psi4 1.4a2.dev612

  ==> Input File <==

--------------------------------------------------------------------------
#psi4
#
memory 32 gb

molecule  {
0 1
  O       -0.0417540     2.1858230    -0.3073980
  N        2.4805920     1.9330880     0.7500480
  C        1.1160800     0.1042180    -0.1414450
  C       -1.4416830     0.3069060    -0.0388060
  C       -0.1006150     0.9516510    -0.1728080
  C        2.3683100     0.6434780     0.2543940
  C        1.0541080    -1.2200940    -0.6155900
  C        3.4782627    -0.2235198     0.3044077
  C       -1.6559060    -0.7921710     0.8065690
  C       -2.5248970     0.8906690    -0.7109620
  C        2.1811870    -2.0318670    -0.6465910
  C        3.4033030    -1.5159070    -0.2032770
  C       -2.9440810    -1.3050920     0.9648860
  C       -3.8044560     0.3593180    -0.5664320
  C       -4.0170070    -0.7392060     0.2722830
  H        0.1024420    -1.6051810    -0.9713120
  H        4.4463530     0.1894450     0.5890330
  H       -0.8230280    -1.2242950     1.3551890
  H       -2.3449380     1.7597130    -1.3385060
  H        2.1152040    -3.0473210    -1.0273030
  H        4.2948280    -2.1392510    -0.2075020
  H       -3.1109310    -2.1478130     1.6315680
  H       -4.6398270     0.8046650    -1.1014830
  H       -5.0175780    -1.1483650     0.3907290
  H        1.7883890     2.5757360     0.3792320
  H        3.4241960     2.3021350     0.7487690
units angstrom
no_reorient  #important for SAPT in psi4, default
symmetry c1  #important for SAPT in psi4, default
}

set PROPERTIES_ORIGIN ["COM"]
properties('MP2/aug-cc-pvtz', properties = ['dipole'])
--------------------------------------------------------------------------

    Molecular point group: c1
  Charge       = 0
  Multiplicity = 1
  Basis Set: AUG-CC-PVTZ
    Blend: AUG-CC-PVTZ
  Basis Set: (AUG-CC-PVTZ AUX)
    Blend: AUG-CC-PVTZ-JKFIT

    Orbital Energies [Eh]
    ---------------------

    Doubly Occupied:

       1A    -20.541420     2A    -15.562290     3A    -11.341503
       4A    -11.299513     5A    -11.254743     6A    -11.254307
       7A    -11.252601     8A    -11.251471     9A    -11.250204
      10A    -11.248112    11A    -11.245832    12A    -11.244427
      13A    -11.241157    14A    -11.233933    15A    -11.229752
      16A     -1.374313    17A     -1.228667    18A     -1.164360
      19A     -1.138531    20A     -1.057409    21A     -1.026488
      22A     -1.021039    23A     -0.997666    24A     -0.893248
      25A     -0.849169    26A     -0.838868    27A     -0.820001
      28A     -0.770429    29A     -0.718135    30A     -0.702312
      31A     -0.688698    32A     -0.670287    33A     -0.647748
      34A     -0.634490    35A     -0.615925    36A     -0.611184
      37A     -0.603625    38A     -0.597100    39A     -0.587312
      40A     -0.555491    41A     -0.535271    42A     -0.526524
      43A     -0.519949    44A     -0.509701    45A     -0.502300
      46A     -0.490734    47A     -0.454466    48A     -0.421789
      49A     -0.352002    50A     -0.346346    51A     -0.344541
      52A     -0.301963

  @DF-RHF Final Energy:  -628.22485855106652

   => Energetics <=

    Nuclear Repulsion Energy =            893.1707521801000667
    One-Electron Energy =               -2625.6525271661653278
    Two-Electron Energy =                1104.2569164349988569
    Total Energy =                       -628.2248585510665180
  Basis Set: (AUG-CC-PVTZ AUX)
    Blend: AUG-CC-PVTZ-RI
    Molecular point group: c1

    Geometry (in Angstrom), charge = 0, multiplicity = 1:

       Center              X                  Y                   Z               Mass
    ------------   -----------------  -----------------  -----------------  -----------------
         O           -0.040009971772     2.168254391823    -0.307994903363    15.994914619570
         N            2.482336028228     1.915519391823     0.749451096637    14.003074004430
         C            1.117824028228     0.086649391823    -0.142041903363    12.000000000000
         C           -1.439938971772     0.289337391823    -0.039402903363    12.000000000000
         C           -0.098870971772     0.934082391823    -0.173404903363    12.000000000000
         C            2.370054028228     0.625909391823     0.253797096637    12.000000000000
         C            1.055852028228    -1.237662608177    -0.616186903363    12.000000000000
         C            3.480006728228    -0.241088408177     0.303810796637    12.000000000000
         C           -1.654161971772    -0.809739608177     0.805972096637    12.000000000000
         C           -2.523152971772     0.873100391823    -0.711558903363    12.000000000000
         C            2.182931028228    -2.049435608177    -0.647187903363    12.000000000000
         C            3.405047028228    -1.533475608177    -0.203873903363    12.000000000000
         C           -2.942336971772    -1.322660608177     0.964289096637    12.000000000000
         C           -3.802711971772     0.341749391823    -0.567028903363    12.000000000000
         C           -4.015262971772    -0.756774608177     0.271686096637    12.000000000000
         H            0.104186028228    -1.622749608177    -0.971908903363     1.007825032230
         H            4.448097028228     0.171876391823     0.588436096637     1.007825032230
         H           -0.821283971772    -1.241863608177     1.354592096637     1.007825032230
         H           -2.343193971772     1.742144391823    -1.339102903363     1.007825032230
         H            2.116948028228    -3.064889608177    -1.027899903363     1.007825032230
         H            4.296572028228    -2.156819608177    -0.208098903363     1.007825032230
         H           -3.109186971772    -2.165381608177     1.630971096637     1.007825032230
         H           -4.638082971772     0.787096391823    -1.102079903363     1.007825032230
         H           -5.015833971772    -1.165933608177     0.390132096637     1.007825032230
         H            1.790133028228     2.558167391823     0.378635096637     1.007825032230
         H            3.425940028228     2.284566391823     0.748172096637     1.007825032230

  Basis Set: AUG-CC-PVTZ
    Blend: AUG-CC-PVTZ
  Basis Set: (AUG-CC-PVTZ AUX)
    Blend: AUG-CC-PVTZ-JKFIT
	 Reference Energy          =    -628.2248585510665180 [Eh]
	 Singles Energy            =      -0.0000000000000000 [Eh]
	 Same-Spin Energy          =      -0.6916040294295794 [Eh]
	 Opposite-Spin Energy      =      -2.1097329197533949 [Eh]
	 Correlation Energy        =      -2.8013369491829745 [Eh]
	 Total Energy              =    -631.0261955002495142 [Eh]

	 ================> DF-SCS-MP2 Energies <==================
	-----------------------------------------------------------
	 SCS Same-Spin Scale       =       0.3333333333333333 [-]
	 SCS Opposite-Spin Scale   =       1.2000000000000000 [-]
	 SCS Same-Spin Energy      =      -0.2305346764765265 [Eh]
	 SCS Opposite-Spin Energy  =      -2.5316795037040740 [Eh]
	 SCS Correlation Energy    =      -2.7622141801806004 [Eh]
	 SCS Total Energy          =    -630.9870727312471672 [Eh]
	-----------------------------------------------------------

  Dipole Moment: [D]
     X:     0.3560      Y:    -1.6201      Z:    -0.1287     Total:     1.6637

*** Psi4 exiting successfully. Buy a developer a beer!
