                               Psi4 1.4a2.dev612

  ==> Input File <==

--------------------------------------------------------------------------
#psi4
#
memory 32 gb

molecule  {
0 1
  O       -0.0417540     2.1858230    -0.3073980
  N        2.4805920     1.9330880     0.7500480
  C        1.1160800     0.1042180    -0.1414450
  C       -1.4416830     0.3069060    -0.0388060
  C       -0.1006150     0.9516510    -0.1728080
  C        2.3683100     0.6434780     0.2543940
  C        1.0541080    -1.2200940    -0.6155900
  C        3.4881200    -0.2081800     0.2578510
  C       -1.6559060    -0.7921710     0.8065690
  C       -2.5248970     0.8906690    -0.7109620
  C        2.1811870    -2.0318670    -0.6465910
  C        3.4033030    -1.5159070    -0.2032770
  C       -2.9440810    -1.3050920     0.9648860
  C       -3.8044560     0.3593180    -0.5664320
  C       -4.0170070    -0.7392060     0.2722830
  H        0.1024420    -1.6051810    -0.9713120
  H        4.4463530     0.1894450     0.5890330
  H       -0.8476307    -1.1302409     1.4694192
  H       -2.3449380     1.7597130    -1.3385060
  H        2.1152040    -3.0473210    -1.0273030
  H        4.2948280    -2.1392510    -0.2075020
  H       -3.1109310    -2.1478130     1.6315680
  H       -4.6398270     0.8046650    -1.1014830
  H       -5.0175780    -1.1483650     0.3907290
  H        1.7883890     2.5757360     0.3792320
  H        3.4241960     2.3021350     0.7487690
units angstrom
no_reorient  #important for SAPT in psi4, default
symmetry c1  #important for SAPT in psi4, default
}

set PROPERTIES_ORIGIN ["COM"]
properties('MP2/aug-cc-pvtz', properties = ['dipole'])
--------------------------------------------------------------------------

    Molecular point group: c1
  Charge       = 0
  Multiplicity = 1
  Basis Set: AUG-CC-PVTZ
    Blend: AUG-CC-PVTZ
  Basis Set: (AUG-CC-PVTZ AUX)
    Blend: AUG-CC-PVTZ-JKFIT

    Orbital Energies [Eh]
    ---------------------

    Doubly Occupied:

       1A    -20.541299     2A    -15.561801     3A    -11.341319
       4A    -11.298813     5A    -11.254237     6A    -11.253826
       7A    -11.253562     8A    -11.251552     9A    -11.250391
      10A    -11.248274    11A    -11.246067    12A    -11.244700
      13A    -11.240882    14A    -11.233233    15A    -11.229348
      16A     -1.374206    17A     -1.228399    18A     -1.164386
      19A     -1.138253    20A     -1.057269    21A     -1.026447
      22A     -1.020940    23A     -0.997440    24A     -0.893152
      25A     -0.849081    26A     -0.838052    27A     -0.819929
      28A     -0.770308    29A     -0.717933    30A     -0.701404
      31A     -0.688434    32A     -0.669991    33A     -0.647406
      34A     -0.634371    35A     -0.615444    36A     -0.611103
      37A     -0.604313    38A     -0.596954    39A     -0.587321
      40A     -0.554150    41A     -0.535447    42A     -0.524944
      43A     -0.520510    44A     -0.509975    45A     -0.503306
      46A     -0.489586    47A     -0.453777    48A     -0.421763
      49A     -0.352621    50A     -0.345847    51A     -0.344066
      52A     -0.301824

  @DF-RHF Final Energy:  -628.22448894610625

   => Energetics <=

    Nuclear Repulsion Energy =            893.0635898834615318
    One-Electron Energy =               -2625.4568406624562158
    Two-Electron Energy =                1104.1687618328883218
    Total Energy =                       -628.2244889461062485
  Basis Set: (AUG-CC-PVTZ AUX)
    Blend: AUG-CC-PVTZ-RI
    Molecular point group: c1

    Geometry (in Angstrom), charge = 0, multiplicity = 1:

       Center              X                  Y                   Z               Mass
    ------------   -----------------  -----------------  -----------------  -----------------
         O           -0.040484349970     2.166839423658    -0.305744308688    15.994914619570
         N            2.481861650030     1.914104423658     0.751701691312    14.003074004430
         C            1.117349650030     0.085234423658    -0.139791308688    12.000000000000
         C           -1.440413349970     0.287922423658    -0.037152308688    12.000000000000
         C           -0.099345349970     0.932667423658    -0.171154308688    12.000000000000
         C            2.369579650030     0.624494423658     0.256047691312    12.000000000000
         C            1.055377650030    -1.239077576342    -0.613936308688    12.000000000000
         C            3.489389650030    -0.227163576342     0.259504691312    12.000000000000
         C           -1.654636349970    -0.811154576342     0.808222691312    12.000000000000
         C           -2.523627349970     0.871685423658    -0.709308308688    12.000000000000
         C            2.182456650030    -2.050850576342    -0.644937308688    12.000000000000
         C            3.404572650030    -1.534890576342    -0.201623308688    12.000000000000
         C           -2.942811349970    -1.324075576342     0.966539691312    12.000000000000
         C           -3.803186349970     0.340334423658    -0.564778308688    12.000000000000
         C           -4.015737349970    -0.758189576342     0.273936691312    12.000000000000
         H            0.103711650030    -1.624164576342    -0.969658308688     1.007825032230
         H            4.447622650030     0.170461423658     0.590686691312     1.007825032230
         H           -0.846361049970    -1.149224476342     1.471072891312     1.007825032230
         H           -2.343668349970     1.740729423658    -1.336852308688     1.007825032230
         H            2.116473650030    -3.066304576342    -1.025649308688     1.007825032230
         H            4.296097650030    -2.158234576342    -0.205848308688     1.007825032230
         H           -3.109661349970    -2.166796576342     1.633221691312     1.007825032230
         H           -4.638557349970     0.785681423658    -1.099829308688     1.007825032230
         H           -5.016308349970    -1.167348576342     0.392382691312     1.007825032230
         H            1.789658650030     2.556752423658     0.380885691312     1.007825032230
         H            3.425465650030     2.283151423658     0.750422691312     1.007825032230

  Basis Set: AUG-CC-PVTZ
    Blend: AUG-CC-PVTZ
  Basis Set: (AUG-CC-PVTZ AUX)
    Blend: AUG-CC-PVTZ-JKFIT
	 Reference Energy          =    -628.2244889461062485 [Eh]
	 Singles Energy            =      -0.0000000000000000 [Eh]
	 Same-Spin Energy          =      -0.6916264763966169 [Eh]
	 Opposite-Spin Energy      =      -2.1097852377053328 [Eh]
	 Correlation Energy        =      -2.8014117141019499 [Eh]
	 Total Energy              =    -631.0259006602082081 [Eh]

	 ================> DF-SCS-MP2 Energies <==================
	-----------------------------------------------------------
	 SCS Same-Spin Scale       =       0.3333333333333333 [-]
	 SCS Opposite-Spin Scale   =       1.2000000000000000 [-]
	 SCS Same-Spin Energy      =      -0.2305421587988723 [Eh]
	 SCS Opposite-Spin Energy  =      -2.5317422852463993 [Eh]
	 SCS Correlation Energy    =      -2.7622844440452718 [Eh]
	 SCS Total Energy          =    -630.9867733901514839 [Eh]
	-----------------------------------------------------------

  Dipole Moment: [D]
     X:     0.3123      Y:    -1.5931      Z:    -0.0421     Total:     1.6239

*** Psi4 exiting successfully. Buy a developer a beer!
