                               Psi4 1.4a2.dev612

  ==> Input File <==

--------------------------------------------------------------------------
#psi4
#
memory 32 gb

molecule  {
0 1
  O       -0.0417540     2.1858230    -0.3073980
  N        2.4805920     1.9330880     0.7500480
  C        1.1160800     0.1042180    -0.1414450
  C       -1.4416830     0.3069060    -0.0388060
  C       -0.1006150     0.9516510    -0.1728080
  C        2.3683100     0.6434780     0.2543940
  C        1.0541080    -1.2200940    -0.6155900
  C        3.4881200    -0.2081800     0.2578510
  C       -1.6559060    -0.7921710     0.8065690
  C       -2.5248970     0.8906690    -0.7109620
  C        2.1811870    -2.0318670    -0.6465910
  C        3.4033030    -1.5159070    -0.2032770
  C       -2.9440810    -1.3050920     0.9648860
  C       -3.8044560     0.3593180    -0.5664320
  C       -4.0170070    -0.7392060     0.2722830
  H        0.1024420    -1.6051810    -0.9713120
  H        4.4463530     0.1894450     0.5890330
  H       -0.8312289    -1.1929436     1.3932657
  H       -2.3449380     1.7597130    -1.3385060
  H        2.1152040    -3.0473210    -1.0273030
  H        4.2948280    -2.1392510    -0.2075020
  H       -3.1109310    -2.1478130     1.6315680
  H       -4.6398270     0.8046650    -1.1014830
  H       -5.0175780    -1.1483650     0.3907290
  H        1.7883890     2.5757360     0.3792320
  H        3.4241960     2.3021350     0.7487690
units angstrom
no_reorient  #important for SAPT in psi4, default
symmetry c1  #important for SAPT in psi4, default
}

set PROPERTIES_ORIGIN ["COM"]
properties('MP2/aug-cc-pvtz', properties = ['dipole'])
--------------------------------------------------------------------------

    Molecular point group: c1
  Charge       = 0
  Multiplicity = 1
  Basis Set: AUG-CC-PVTZ
    Blend: AUG-CC-PVTZ
  Basis Set: (AUG-CC-PVTZ AUX)
    Blend: AUG-CC-PVTZ-JKFIT

    Orbital Energies [Eh]
    ---------------------

    Doubly Occupied:

       1A    -20.541439     2A    -15.561882     3A    -11.341475
       4A    -11.298958     5A    -11.254421     6A    -11.254094
       7A    -11.252747     8A    -11.251493     9A    -11.250218
      10A    -11.248143    11A    -11.245880    12A    -11.244476
      13A    -11.241072    14A    -11.233465    15A    -11.229683
      16A     -1.374305    17A     -1.228512    18A     -1.164364
      19A     -1.138474    20A     -1.057427    21A     -1.026492
      22A     -1.021087    23A     -0.997675    24A     -0.893294
      25A     -0.849254    26A     -0.838689    27A     -0.820019
      28A     -0.770448    29A     -0.718211    30A     -0.702090
      31A     -0.688578    32A     -0.670321    33A     -0.647711
      34A     -0.634497    35A     -0.615751    36A     -0.611155
      37A     -0.604587    38A     -0.597274    39A     -0.587496
      40A     -0.554653    41A     -0.535686    42A     -0.526213
      43A     -0.519921    44A     -0.509728    45A     -0.502808
      46A     -0.490571    47A     -0.453959    48A     -0.421909
      49A     -0.352257    50A     -0.346149    51A     -0.344443
      52A     -0.302010

  @DF-RHF Final Energy:  -628.22589783144247

   => Energetics <=

    Nuclear Repulsion Energy =            893.1662193402299863
    One-Electron Energy =               -2625.6493046516161485
    Two-Electron Energy =                1104.2571874799439229
    Total Energy =                       -628.2258978314423530
  Basis Set: (AUG-CC-PVTZ AUX)
    Blend: AUG-CC-PVTZ-RI
    Molecular point group: c1

    Geometry (in Angstrom), charge = 0, multiplicity = 1:

       Center              X                  Y                   Z               Mass
    ------------   -----------------  -----------------  -----------------  -----------------
         O           -0.040568223543     2.167160065263    -0.305354883982    15.994914619570
         N            2.481777776457     1.914425065263     0.752091116018    14.003074004430
         C            1.117265776457     0.085555065263    -0.139401883982    12.000000000000
         C           -1.440497223543     0.288243065263    -0.036762883982    12.000000000000
         C           -0.099429223543     0.932988065263    -0.170764883982    12.000000000000
         C            2.369495776457     0.624815065263     0.256437116018    12.000000000000
         C            1.055293776457    -1.238756934737    -0.613546883982    12.000000000000
         C            3.489305776457    -0.226842934737     0.259894116018    12.000000000000
         C           -1.654720223543    -0.810833934737     0.808612116018    12.000000000000
         C           -2.523711223543     0.872006065263    -0.708918883982    12.000000000000
         C            2.182372776457    -2.050529934737    -0.644547883982    12.000000000000
         C            3.404488776457    -1.534569934737    -0.201233883982    12.000000000000
         C           -2.942895223543    -1.323754934737     0.966929116018    12.000000000000
         C           -3.803270223543     0.340655065263    -0.564388883982    12.000000000000
         C           -4.015821223543    -0.757868934737     0.274326116018    12.000000000000
         H            0.103627776457    -1.623843934737    -0.969268883982     1.007825032230
         H            4.447538776457     0.170782065263     0.591076116018     1.007825032230
         H           -0.830043123543    -1.211606534737     1.395308816018     1.007825032230
         H           -2.343752223543     1.741050065263    -1.336462883982     1.007825032230
         H            2.116389776457    -3.065983934737    -1.025259883982     1.007825032230
         H            4.296013776457    -2.157913934737    -0.205458883982     1.007825032230
         H           -3.109745223543    -2.166475934737     1.633611116018     1.007825032230
         H           -4.638641223543     0.786002065263    -1.099439883982     1.007825032230
         H           -5.016392223543    -1.167027934737     0.392772116018     1.007825032230
         H            1.789574776457     2.557073065263     0.381275116018     1.007825032230
         H            3.425381776457     2.283472065263     0.750812116018     1.007825032230

  Basis Set: AUG-CC-PVTZ
    Blend: AUG-CC-PVTZ
  Basis Set: (AUG-CC-PVTZ AUX)
    Blend: AUG-CC-PVTZ-JKFIT
	 Reference Energy          =    -628.2258978314424667 [Eh]
	 Singles Energy            =      -0.0000000000000000 [Eh]
	 Same-Spin Energy          =      -0.6915537407543472 [Eh]
	 Opposite-Spin Energy      =      -2.1095982139071268 [Eh]
	 Correlation Energy        =      -2.8011519546614738 [Eh]
	 Total Energy              =    -631.0270497861039303 [Eh]

	 ================> DF-SCS-MP2 Energies <==================
	-----------------------------------------------------------
	 SCS Same-Spin Scale       =       0.3333333333333333 [-]
	 SCS Opposite-Spin Scale   =       1.2000000000000000 [-]
	 SCS Same-Spin Energy      =      -0.2305179135847824 [Eh]
	 SCS Opposite-Spin Energy  =      -2.5315178566885521 [Eh]
	 SCS Correlation Energy    =      -2.7620357702733345 [Eh]
	 SCS Total Energy          =    -630.9879336017157812 [Eh]
	-----------------------------------------------------------

  Dipole Moment: [D]
     X:     0.3413      Y:    -1.6230      Z:    -0.0802     Total:     1.6604

*** Psi4 exiting successfully. Buy a developer a beer!
