                               Psi4 1.4a2.dev612

  ==> Input File <==

--------------------------------------------------------------------------
#psi4
#
memory 32 gb

molecule  {
0 1
  O       -0.0417540     2.1858230    -0.3073980
  N        2.4805920     1.9330880     0.7500480
  C        1.1160800     0.1042180    -0.1414450
  C       -1.4416830     0.3069060    -0.0388060
  C       -0.1006150     0.9516510    -0.1728080
  C        2.3683100     0.6434780     0.2543940
  C        1.0839008    -1.1756805    -0.7557322
  C        3.4881200    -0.2081800     0.2578510
  C       -1.6559060    -0.7921710     0.8065690
  C       -2.5248970     0.8906690    -0.7109620
  C        2.1811870    -2.0318670    -0.6465910
  C        3.4033030    -1.5159070    -0.2032770
  C       -2.9440810    -1.3050920     0.9648860
  C       -3.8044560     0.3593180    -0.5664320
  C       -4.0170070    -0.7392060     0.2722830
  H        0.1024420    -1.6051810    -0.9713120
  H        4.4463530     0.1894450     0.5890330
  H       -0.8230280    -1.2242950     1.3551890
  H       -2.3449380     1.7597130    -1.3385060
  H        2.1152040    -3.0473210    -1.0273030
  H        4.2948280    -2.1392510    -0.2075020
  H       -3.1109310    -2.1478130     1.6315680
  H       -4.6398270     0.8046650    -1.1014830
  H       -5.0175780    -1.1483650     0.3907290
  H        1.7883890     2.5757360     0.3792320
  H        3.4241960     2.3021350     0.7487690
units angstrom
no_reorient  #important for SAPT in psi4, default
symmetry c1  #important for SAPT in psi4, default
}

set PROPERTIES_ORIGIN ["COM"]
properties('MP2/aug-cc-pvtz', properties = ['dipole'])
--------------------------------------------------------------------------

    Molecular point group: c1
  Charge       = 0
  Multiplicity = 1
  Basis Set: AUG-CC-PVTZ
    Blend: AUG-CC-PVTZ
  Basis Set: (AUG-CC-PVTZ AUX)
    Blend: AUG-CC-PVTZ-JKFIT

    Orbital Energies [Eh]
    ---------------------

    Doubly Occupied:

       1A    -20.542802     2A    -15.561384     3A    -11.342079
       4A    -11.298303     5A    -11.255984     6A    -11.253791
       7A    -11.253026     8A    -11.251771     9A    -11.250559
      10A    -11.248359    11A    -11.246231    12A    -11.244769
      13A    -11.242416    14A    -11.234283    15A    -11.231466
      16A     -1.375234    17A     -1.228139    18A     -1.164514
      19A     -1.137095    20A     -1.056938    21A     -1.026605
      22A     -1.020953    23A     -0.997091    24A     -0.893351
      25A     -0.849302    26A     -0.838418    27A     -0.819502
      28A     -0.770306    29A     -0.717677    30A     -0.701290
      31A     -0.687286    32A     -0.670772    33A     -0.648033
      34A     -0.634578    35A     -0.615825    36A     -0.611281
      37A     -0.601989    38A     -0.597032    39A     -0.587218
      40A     -0.555037    41A     -0.535690    42A     -0.526816
      43A     -0.518348    44A     -0.508232    45A     -0.502522
      46A     -0.490818    47A     -0.453440    48A     -0.422598
      49A     -0.351656    50A     -0.346013    51A     -0.344854
      52A     -0.301434

  @DF-RHF Final Energy:  -628.21807926282884

   => Energetics <=

    Nuclear Repulsion Energy =            892.5354640117093368
    One-Electron Energy =               -2624.3768673445661079
    Two-Electron Energy =                1103.6233240700278202
    Total Energy =                       -628.2180792628289510
  Basis Set: (AUG-CC-PVTZ AUX)
    Blend: AUG-CC-PVTZ-RI
    Molecular point group: c1

    Geometry (in Angstrom), charge = 0, multiplicity = 1:

       Center              X                  Y                   Z               Mass
    ------------   -----------------  -----------------  -----------------  -----------------
         O           -0.042424176099     2.164616149412    -0.296627232356    15.994914619570
         N            2.479921823901     1.911881149412     0.760818767644    14.003074004430
         C            1.115409823901     0.083011149412    -0.130674232356    12.000000000000
         C           -1.442353176099     0.285699149412    -0.028035232356    12.000000000000
         C           -0.101285176099     0.930444149412    -0.162037232356    12.000000000000
         C            2.367639823901     0.622271149412     0.265164767644    12.000000000000
         C            1.083230623901    -1.196887350588    -0.744961432356    12.000000000000
         C            3.487449823901    -0.229386850588     0.268621767644    12.000000000000
         C           -1.656576176099    -0.813377850588     0.817339767644    12.000000000000
         C           -2.525567176099     0.869462149412    -0.700191232356    12.000000000000
         C            2.180516823901    -2.053073850588    -0.635820232356    12.000000000000
         C            3.402632823901    -1.537113850588    -0.192506232356    12.000000000000
         C           -2.944751176099    -1.326298850588     0.975656767644    12.000000000000
         C           -3.805126176099     0.338111149412    -0.555661232356    12.000000000000
         C           -4.017677176099    -0.760412850588     0.283053767644    12.000000000000
         H            0.101771823901    -1.626387850588    -0.960541232356     1.007825032230
         H            4.445682823901     0.168238149412     0.599803767644     1.007825032230
         H           -0.823698176099    -1.245501850588     1.365959767644     1.007825032230
         H           -2.345608176099     1.738506149412    -1.327735232356     1.007825032230
         H            2.114533823901    -3.068527850588    -1.016532232356     1.007825032230
         H            4.294157823901    -2.160457850588    -0.196731232356     1.007825032230
         H           -3.111601176099    -2.169019850588     1.642338767644     1.007825032230
         H           -4.640497176099     0.783458149412    -1.090712232356     1.007825032230
         H           -5.018248176099    -1.169571850588     0.401499767644     1.007825032230
         H            1.787718823901     2.554529149412     0.390002767644     1.007825032230
         H            3.423525823901     2.280928149412     0.759539767644     1.007825032230

  Basis Set: AUG-CC-PVTZ
    Blend: AUG-CC-PVTZ
  Basis Set: (AUG-CC-PVTZ AUX)
    Blend: AUG-CC-PVTZ-JKFIT
	 Reference Energy          =    -628.2180792628288373 [Eh]
	 Singles Energy            =      -0.0000000000000000 [Eh]
	 Same-Spin Energy          =      -0.6918763710305331 [Eh]
	 Opposite-Spin Energy      =      -2.1107726765319219 [Eh]
	 Correlation Energy        =      -2.8026490475624550 [Eh]
	 Total Energy              =    -631.0207283103912914 [Eh]

	 ================> DF-SCS-MP2 Energies <==================
	-----------------------------------------------------------
	 SCS Same-Spin Scale       =       0.3333333333333333 [-]
	 SCS Opposite-Spin Scale   =       1.2000000000000000 [-]
	 SCS Same-Spin Energy      =      -0.2306254570101777 [Eh]
	 SCS Opposite-Spin Energy  =      -2.5329272118383064 [Eh]
	 SCS Correlation Energy    =      -2.7635526688484839 [Eh]
	 SCS Total Energy          =    -630.9816319316772706 [Eh]
	-----------------------------------------------------------

  Dipole Moment: [D]
     X:     0.2887      Y:    -1.6094      Z:    -0.0124     Total:     1.6351

*** Psi4 exiting successfully. Buy a developer a beer!
