                               Psi4 1.4a2.dev612

  ==> Input File <==

--------------------------------------------------------------------------
#psi4
#
memory 32 gb

molecule  {
0 1
  O       -0.0417540     2.1858230    -0.3073980
  N        2.4805920     1.9330880     0.7500480
  C        1.1160800     0.1042180    -0.1414450
  C       -1.4416830     0.3069060    -0.0388060
  C       -0.1006150     0.9516510    -0.1728080
  C        2.3683100     0.6434780     0.2543940
  C        1.0739698    -1.1904850    -0.7090181
  C        3.4881200    -0.2081800     0.2578510
  C       -1.6559060    -0.7921710     0.8065690
  C       -2.5248970     0.8906690    -0.7109620
  C        2.1811870    -2.0318670    -0.6465910
  C        3.4033030    -1.5159070    -0.2032770
  C       -2.9440810    -1.3050920     0.9648860
  C       -3.8044560     0.3593180    -0.5664320
  C       -4.0170070    -0.7392060     0.2722830
  H        0.1024420    -1.6051810    -0.9713120
  H        4.4463530     0.1894450     0.5890330
  H       -0.8230280    -1.2242950     1.3551890
  H       -2.3449380     1.7597130    -1.3385060
  H        2.1152040    -3.0473210    -1.0273030
  H        4.2948280    -2.1392510    -0.2075020
  H       -3.1109310    -2.1478130     1.6315680
  H       -4.6398270     0.8046650    -1.1014830
  H       -5.0175780    -1.1483650     0.3907290
  H        1.7883890     2.5757360     0.3792320
  H        3.4241960     2.3021350     0.7487690
units angstrom
no_reorient  #important for SAPT in psi4, default
symmetry c1  #important for SAPT in psi4, default
}

set PROPERTIES_ORIGIN ["COM"]
properties('MP2/aug-cc-pvtz', properties = ['dipole'])
--------------------------------------------------------------------------

    Molecular point group: c1
  Charge       = 0
  Multiplicity = 1
  Basis Set: AUG-CC-PVTZ
    Blend: AUG-CC-PVTZ
  Basis Set: (AUG-CC-PVTZ AUX)
    Blend: AUG-CC-PVTZ-JKFIT

    Orbital Energies [Eh]
    ---------------------

    Doubly Occupied:

       1A    -20.542336     2A    -15.561568     3A    -11.341908
       4A    -11.298574     5A    -11.254984     6A    -11.254056
       7A    -11.252913     8A    -11.251701     9A    -11.250456
      10A    -11.248298    11A    -11.246132    12A    -11.244683
      13A    -11.241679    14A    -11.233797    15A    -11.230456
      16A     -1.374920    17A     -1.228280    18A     -1.164495
      19A     -1.137795    20A     -1.057171    21A     -1.026610
      22A     -1.021107    23A     -0.997442    24A     -0.893393
      25A     -0.849363    26A     -0.838608    27A     -0.819838
      28A     -0.770432    29A     -0.717975    30A     -0.701844
      31A     -0.687945    32A     -0.670653    33A     -0.647957
      34A     -0.634572    35A     -0.615866    36A     -0.611242
      37A     -0.603295    38A     -0.597169    39A     -0.587545
      40A     -0.555140    41A     -0.535792    42A     -0.526835
      43A     -0.518886    44A     -0.508969    45A     -0.502478
      46A     -0.490954    47A     -0.453800    48A     -0.422389
      49A     -0.351782    50A     -0.346204    51A     -0.344792
      52A     -0.301764

  @DF-RHF Final Energy:  -628.22244237680070

   => Energetics <=

    Nuclear Repulsion Energy =            892.8164960764167972
    One-Electron Energy =               -2624.9401892553087237
    Two-Electron Energy =                1103.9012508020912264
    Total Energy =                       -628.2224423768007000
  Basis Set: (AUG-CC-PVTZ AUX)
    Blend: AUG-CC-PVTZ-RI
    Molecular point group: c1

    Geometry (in Angstrom), charge = 0, multiplicity = 1:

       Center              X                  Y                   Z               Mass
    ------------   -----------------  -----------------  -----------------  -----------------
         O           -0.041819500116     2.165517561715    -0.299471547562    15.994914619570
         N            2.480526499884     1.912782561715     0.757974452438    14.003074004430
         C            1.116014499884     0.083912561715    -0.133518547562    12.000000000000
         C           -1.441748500116     0.286600561715    -0.030879547562    12.000000000000
         C           -0.100680500116     0.931345561715    -0.164881547562    12.000000000000
         C            2.368244499884     0.623172561715     0.262320452438    12.000000000000
         C            1.073904299884    -1.210790438285    -0.701091647562    12.000000000000
         C            3.488054499884    -0.228485438285     0.265777452438    12.000000000000
         C           -1.655971500116    -0.812476438285     0.814495452438    12.000000000000
         C           -2.524962500116     0.870363561715    -0.703035547562    12.000000000000
         C            2.181121499884    -2.052172438285    -0.638664547562    12.000000000000
         C            3.403237499884    -1.536212438285    -0.195350547562    12.000000000000
         C           -2.944146500116    -1.325397438285     0.972812452438    12.000000000000
         C           -3.804521500116     0.339012561715    -0.558505547562    12.000000000000
         C           -4.017072500116    -0.759511438285     0.280209452438    12.000000000000
         H            0.102376499884    -1.625486438285    -0.963385547562     1.007825032230
         H            4.446287499884     0.169139561715     0.596959452438     1.007825032230
         H           -0.823093500116    -1.244600438285     1.363115452438     1.007825032230
         H           -2.345003500116     1.739407561715    -1.330579547562     1.007825032230
         H            2.115138499884    -3.067626438285    -1.019376547562     1.007825032230
         H            4.294762499884    -2.159556438285    -0.199575547562     1.007825032230
         H           -3.110996500116    -2.168118438285     1.639494452438     1.007825032230
         H           -4.639892500116     0.784359561715    -1.093556547562     1.007825032230
         H           -5.017643500116    -1.168670438285     0.398655452438     1.007825032230
         H            1.788323499884     2.555430561715     0.387158452438     1.007825032230
         H            3.424130499884     2.281829561715     0.756695452438     1.007825032230

  Basis Set: AUG-CC-PVTZ
    Blend: AUG-CC-PVTZ
  Basis Set: (AUG-CC-PVTZ AUX)
    Blend: AUG-CC-PVTZ-JKFIT
	 Reference Energy          =    -628.2224423768007000 [Eh]
	 Singles Energy            =      -0.0000000000000000 [Eh]
	 Same-Spin Energy          =      -0.6916475448145570 [Eh]
	 Opposite-Spin Energy      =      -2.1100602171611582 [Eh]
	 Correlation Energy        =      -2.8017077619757154 [Eh]
	 Total Energy              =    -631.0241501387764629 [Eh]

	 ================> DF-SCS-MP2 Energies <==================
	-----------------------------------------------------------
	 SCS Same-Spin Scale       =       0.3333333333333333 [-]
	 SCS Opposite-Spin Scale   =       1.2000000000000000 [-]
	 SCS Same-Spin Energy      =      -0.2305491816048523 [Eh]
	 SCS Opposite-Spin Energy  =      -2.5320722605933899 [Eh]
	 SCS Correlation Energy    =      -2.7626214421982422 [Eh]
	 SCS Total Energy          =    -630.9850638189989240 [Eh]
	-----------------------------------------------------------

  Dipole Moment: [D]
     X:     0.3000      Y:    -1.6214      Z:    -0.0466     Total:     1.6496

*** Psi4 exiting successfully. Buy a developer a beer!
