                               Psi4 1.4a2.dev612

  ==> Input File <==

--------------------------------------------------------------------------
#psi4
#
memory 32 gb

molecule  {
0 1
  O       -0.0417540     2.1858230    -0.3073980
  N        2.4805920     1.9330880     0.7500480
  C        1.1160800     0.1042180    -0.1414450
  C       -1.4416830     0.3069060    -0.0388060
  C       -0.1006150     0.9516510    -0.1728080
  C        2.3683100     0.6434780     0.2543940
  C        1.0541080    -1.2200940    -0.6155900
  C        3.4881200    -0.2081800     0.2578510
  C       -1.6559060    -0.7921710     0.8065690
  C       -2.5248970     0.8906690    -0.7109620
  C        2.1811870    -2.0318670    -0.6465910
  C        3.4033030    -1.5159070    -0.2032770
  C       -2.9440810    -1.3050920     0.9648860
  C       -3.8044560     0.3593180    -0.5664320
  C       -4.0170070    -0.7392060     0.2722830
  H        0.1655783    -1.5082420    -1.2481091
  H        4.4463530     0.1894450     0.5890330
  H       -0.8230280    -1.2242950     1.3551890
  H       -2.3449380     1.7597130    -1.3385060
  H        2.1152040    -3.0473210    -1.0273030
  H        4.2948280    -2.1392510    -0.2075020
  H       -3.1109310    -2.1478130     1.6315680
  H       -4.6398270     0.8046650    -1.1014830
  H       -5.0175780    -1.1483650     0.3907290
  H        1.7883890     2.5757360     0.3792320
  H        3.4241960     2.3021350     0.7487690
units angstrom
no_reorient  #important for SAPT in psi4, default
symmetry c1  #important for SAPT in psi4, default
}

set PROPERTIES_ORIGIN ["COM"]
properties('MP2/aug-cc-pvtz', properties = ['dipole'])
--------------------------------------------------------------------------

    Molecular point group: c1
  Charge       = 0
  Multiplicity = 1
  Basis Set: AUG-CC-PVTZ
    Blend: AUG-CC-PVTZ
  Basis Set: (AUG-CC-PVTZ AUX)
    Blend: AUG-CC-PVTZ-JKFIT

    Orbital Energies [Eh]
    ---------------------

    Doubly Occupied:

       1A    -20.541064     2A    -15.562107     3A    -11.340964
       4A    -11.299461     5A    -11.258036     6A    -11.254893
       7A    -11.251740     8A    -11.250825     9A    -11.249389
      10A    -11.247499    11A    -11.244786    12A    -11.243669
      13A    -11.241461    14A    -11.234542    15A    -11.230792
      16A     -1.373994    17A     -1.228829    18A     -1.163443
      19A     -1.138646    20A     -1.056876    21A     -1.025702
      22A     -1.020569    23A     -0.997642    24A     -0.892900
      25A     -0.848130    26A     -0.836962    27A     -0.819471
      28A     -0.770179    29A     -0.717408    30A     -0.698921
      31A     -0.688735    32A     -0.670019    33A     -0.647146
      34A     -0.634019    35A     -0.615567    36A     -0.610624
      37A     -0.602025    38A     -0.596715    39A     -0.587127
      40A     -0.552020    41A     -0.536036    42A     -0.526564
      43A     -0.519864    44A     -0.508041    45A     -0.501408
      46A     -0.490304    47A     -0.452696    48A     -0.421915
      49A     -0.352628    50A     -0.344647    51A     -0.343288
      52A     -0.302240

  @DF-RHF Final Energy:  -628.21939067713879

   => Energetics <=

    Nuclear Repulsion Energy =            892.8340939472154787
    One-Electron Energy =               -2625.0179155176556378
    Two-Electron Energy =                1103.9644308933013690
    Total Energy =                       -628.2193906771387901
  Basis Set: (AUG-CC-PVTZ AUX)
    Blend: AUG-CC-PVTZ-RI
    Molecular point group: c1

    Geometry (in Angstrom), charge = 0, multiplicity = 1:

       Center              X                  Y                   Z               Mass
    ------------   -----------------  -----------------  -----------------  -----------------
         O           -0.040933019226     2.166824671199    -0.303744719816    15.994914619570
         N            2.481412980774     1.914089671199     0.753701280184    14.003074004430
         C            1.116900980774     0.085219671199    -0.137791719816    12.000000000000
         C           -1.440862019226     0.287907671199    -0.035152719816    12.000000000000
         C           -0.099794019226     0.932652671199    -0.169154719816    12.000000000000
         C            2.369130980774     0.624479671199     0.258047280184    12.000000000000
         C            1.054928980774    -1.239092328801    -0.611936719816    12.000000000000
         C            3.488940980774    -0.227178328801     0.261504280184    12.000000000000
         C           -1.655085019226    -0.811169328801     0.810222280184    12.000000000000
         C           -2.524076019226     0.871670671199    -0.707308719816    12.000000000000
         C            2.182007980774    -2.050865328801    -0.642937719816    12.000000000000
         C            3.404123980774    -1.534905328801    -0.199623719816    12.000000000000
         C           -2.943260019226    -1.324090328801     0.968539280184    12.000000000000
         C           -3.803635019226     0.340319671199    -0.562778719816    12.000000000000
         C           -4.016186019226    -0.758204328801     0.275936280184    12.000000000000
         H            0.166399280774    -1.527240328801    -1.244455819816     1.007825032230
         H            4.447173980774     0.170446671199     0.592686280184     1.007825032230
         H           -0.822207019226    -1.243293328801     1.358842280184     1.007825032230
         H           -2.344117019226     1.740714671199    -1.334852719816     1.007825032230
         H            2.116024980774    -3.066319328801    -1.023649719816     1.007825032230
         H            4.295648980774    -2.158249328801    -0.203848719816     1.007825032230
         H           -3.110110019226    -2.166811328801     1.635221280184     1.007825032230
         H           -4.639006019226     0.785666671199    -1.097829719816     1.007825032230
         H           -5.016757019226    -1.167363328801     0.394382280184     1.007825032230
         H            1.789209980774     2.556737671199     0.382885280184     1.007825032230
         H            3.425016980774     2.283136671199     0.752422280184     1.007825032230

  Basis Set: AUG-CC-PVTZ
    Blend: AUG-CC-PVTZ
  Basis Set: (AUG-CC-PVTZ AUX)
    Blend: AUG-CC-PVTZ-JKFIT
	 Reference Energy          =    -628.2193906771387901 [Eh]
	 Singles Energy            =      -0.0000000000000000 [Eh]
	 Same-Spin Energy          =      -0.6919521590805802 [Eh]
	 Opposite-Spin Energy      =      -2.1105735782584385 [Eh]
	 Correlation Energy        =      -2.8025257373390184 [Eh]
	 Total Energy              =    -631.0219164144778006 [Eh]

	 ================> DF-SCS-MP2 Energies <==================
	-----------------------------------------------------------
	 SCS Same-Spin Scale       =       0.3333333333333333 [-]
	 SCS Opposite-Spin Scale   =       1.2000000000000000 [-]
	 SCS Same-Spin Energy      =      -0.2306507196935267 [Eh]
	 SCS Opposite-Spin Energy  =      -2.5326882939101263 [Eh]
	 SCS Correlation Energy    =      -2.7633390136036531 [Eh]
	 SCS Total Energy          =    -630.9827296907424170 [Eh]
	-----------------------------------------------------------

  Dipole Moment: [D]
     X:     0.4729      Y:    -1.5972      Z:    -0.2314     Total:     1.6817

*** Psi4 exiting successfully. Buy a developer a beer!
