                               Psi4 1.4a2.dev612

  ==> Input File <==

--------------------------------------------------------------------------
#psi4
#
memory 32 gb

molecule  {
0 1
  O       -0.0417540     2.1858230    -0.3073980
  N        2.4805920     1.9330880     0.7500480
  C        1.1160800     0.1042180    -0.1414450
  C       -1.4513344     0.2857015    -0.2374444
  C       -0.1006150     0.9516510    -0.1728080
  C        2.3683100     0.6434780     0.2543940
  C        1.0541080    -1.2200940    -0.6155900
  C        3.4881200    -0.2081800     0.2578510
  C       -1.6559060    -0.7921710     0.8065690
  C       -2.5248970     0.8906690    -0.7109620
  C        2.1811870    -2.0318670    -0.6465910
  C        3.4033030    -1.5159070    -0.2032770
  C       -2.9440810    -1.3050920     0.9648860
  C       -3.8044560     0.3593180    -0.5664320
  C       -4.0170070    -0.7392060     0.2722830
  H        0.1024420    -1.6051810    -0.9713120
  H        4.4463530     0.1894450     0.5890330
  H       -0.8230280    -1.2242950     1.3551890
  H       -2.3449380     1.7597130    -1.3385060
  H        2.1152040    -3.0473210    -1.0273030
  H        4.2948280    -2.1392510    -0.2075020
  H       -3.1109310    -2.1478130     1.6315680
  H       -4.6398270     0.8046650    -1.1014830
  H       -5.0175780    -1.1483650     0.3907290
  H        1.7883890     2.5757360     0.3792320
  H        3.4241960     2.3021350     0.7487690
units angstrom
no_reorient  #important for SAPT in psi4, default
symmetry c1  #important for SAPT in psi4, default
}

set PROPERTIES_ORIGIN ["COM"]
properties('MP2/aug-cc-pvtz', properties = ['dipole'])
--------------------------------------------------------------------------

    Molecular point group: c1
  Charge       = 0
  Multiplicity = 1
  Basis Set: AUG-CC-PVTZ
    Blend: AUG-CC-PVTZ
  Basis Set: (AUG-CC-PVTZ AUX)
    Blend: AUG-CC-PVTZ-JKFIT

    Orbital Energies [Eh]
    ---------------------

    Doubly Occupied:

       1A    -20.540917     2A    -15.561861     3A    -11.342558
       4A    -11.298849     5A    -11.262662     6A    -11.254488
       7A    -11.253846     8A    -11.252721     9A    -11.250589
      10A    -11.245632    11A    -11.244895    12A    -11.241310
      13A    -11.239841    14A    -11.233401    15A    -11.229725
      16A     -1.373588    17A     -1.228455    18A     -1.163705
      19A     -1.138576    20A     -1.056078    21A     -1.036330
      22A     -1.012048    23A     -0.997573    24A     -0.892284
      25A     -0.851192    26A     -0.840389    27A     -0.814306
      28A     -0.767731    29A     -0.717602    30A     -0.702641
      31A     -0.688254    32A     -0.668573    33A     -0.648447
      34A     -0.635124    35A     -0.614671    36A     -0.611757
      37A     -0.604311    38A     -0.594499    39A     -0.585112
      40A     -0.556315    41A     -0.535528    42A     -0.530569
      43A     -0.519160    44A     -0.509281    45A     -0.494129
      46A     -0.488784    47A     -0.453898    48A     -0.420398
      49A     -0.358278    50A     -0.350062    51A     -0.335008
      52A     -0.301803

  @DF-RHF Final Energy:  -628.20270225573677

   => Energetics <=

    Nuclear Repulsion Energy =            892.7613082330764200
    One-Electron Energy =               -2624.8285188847444260
    Two-Electron Energy =                1103.8645083959313524
    Total Energy =                       -628.2027022557367673
  Basis Set: (AUG-CC-PVTZ AUX)
    Blend: AUG-CC-PVTZ-RI
    Molecular point group: c1

    Geometry (in Angstrom), charge = 0, multiplicity = 1:

       Center              X                  Y                   Z               Mass
    ------------   -----------------  -----------------  -----------------  -----------------
         O           -0.040022508554     2.168611480055    -0.293065531903    15.994914619570
         N            2.482323491446     1.915876480055     0.764380468097    14.003074004430
         C            1.117811491446     0.087006480055    -0.127112531903    12.000000000000
         C           -1.449602908554     0.268489980055    -0.223111931903    12.000000000000
         C           -0.098883508554     0.934439480055    -0.158475531903    12.000000000000
         C            2.370041491446     0.626266480055     0.268726468097    12.000000000000
         C            1.055839491446    -1.237305519945    -0.601257531903    12.000000000000
         C            3.489851491446    -0.225391519945     0.272183468097    12.000000000000
         C           -1.654174508554    -0.809382519945     0.820901468097    12.000000000000
         C           -2.523165508554     0.873457480055    -0.696629531903    12.000000000000
         C            2.182918491446    -2.049078519945    -0.632258531903    12.000000000000
         C            3.405034491446    -1.533118519945    -0.188944531903    12.000000000000
         C           -2.942349508554    -1.322303519945     0.979218468097    12.000000000000
         C           -3.802724508554     0.342106480055    -0.552099531903    12.000000000000
         C           -4.015275508554    -0.756417519945     0.286615468097    12.000000000000
         H            0.104173491446    -1.622392519945    -0.956979531903     1.007825032230
         H            4.448084491446     0.172233480055     0.603365468097     1.007825032230
         H           -0.821296508554    -1.241506519945     1.369521468097     1.007825032230
         H           -2.343206508554     1.742501480055    -1.324173531903     1.007825032230
         H            2.116935491446    -3.064532519945    -1.012970531903     1.007825032230
         H            4.296559491446    -2.156462519945    -0.193169531903     1.007825032230
         H           -3.109199508554    -2.165024519945     1.645900468097     1.007825032230
         H           -4.638095508554     0.787453480055    -1.087150531903     1.007825032230
         H           -5.015846508554    -1.165576519945     0.405061468097     1.007825032230
         H            1.790120491446     2.558524480055     0.393564468097     1.007825032230
         H            3.425927491446     2.284923480055     0.763101468097     1.007825032230

  Basis Set: AUG-CC-PVTZ
    Blend: AUG-CC-PVTZ
  Basis Set: (AUG-CC-PVTZ AUX)
    Blend: AUG-CC-PVTZ-JKFIT
	 Reference Energy          =    -628.2027022557367673 [Eh]
	 Singles Energy            =      -0.0000000000000000 [Eh]
	 Same-Spin Energy          =      -0.6918181004263820 [Eh]
	 Opposite-Spin Energy      =      -2.1115158539108134 [Eh]
	 Correlation Energy        =      -2.8033339543371953 [Eh]
	 Total Energy              =    -631.0060362100739439 [Eh]

	 ================> DF-SCS-MP2 Energies <==================
	-----------------------------------------------------------
	 SCS Same-Spin Scale       =       0.3333333333333333 [-]
	 SCS Opposite-Spin Scale   =       1.2000000000000000 [-]
	 SCS Same-Spin Energy      =      -0.2306060334754607 [Eh]
	 SCS Opposite-Spin Energy  =      -2.5338190246929759 [Eh]
	 SCS Correlation Energy    =      -2.7644250581684364 [Eh]
	 SCS Total Energy          =    -630.9671273139051664 [Eh]
	-----------------------------------------------------------

  Dipole Moment: [D]
     X:     0.3283      Y:    -1.6288      Z:    -0.0859     Total:     1.6637

*** Psi4 exiting successfully. Buy a developer a beer!
