                               Psi4 1.4a2.dev612

  ==> Input File <==

--------------------------------------------------------------------------
#psi4
#
memory 32 gb

molecule  {
0 1
  O       -0.0417540     2.1858230    -0.3073980
  N        2.4805920     1.9330880     0.7500480
  C        1.1160800     0.1042180    -0.1414450
  C       -1.4416830     0.3069060    -0.0388060
  C       -0.1006150     0.9516510    -0.1728080
  C        2.3683100     0.6434780     0.2543940
  C        1.0541080    -1.2200940    -0.6155900
  C        3.4486906    -0.2695392     0.4440777
  C       -1.6559060    -0.7921710     0.8065690
  C       -2.5248970     0.8906690    -0.7109620
  C        2.1811870    -2.0318670    -0.6465910
  C        3.4033030    -1.5159070    -0.2032770
  C       -2.9440810    -1.3050920     0.9648860
  C       -3.8044560     0.3593180    -0.5664320
  C       -4.0170070    -0.7392060     0.2722830
  H        0.1024420    -1.6051810    -0.9713120
  H        4.4463530     0.1894450     0.5890330
  H       -0.8230280    -1.2242950     1.3551890
  H       -2.3449380     1.7597130    -1.3385060
  H        2.1152040    -3.0473210    -1.0273030
  H        4.2948280    -2.1392510    -0.2075020
  H       -3.1109310    -2.1478130     1.6315680
  H       -4.6398270     0.8046650    -1.1014830
  H       -5.0175780    -1.1483650     0.3907290
  H        1.7883890     2.5757360     0.3792320
  H        3.4241960     2.3021350     0.7487690
units angstrom
no_reorient  #important for SAPT in psi4, default
symmetry c1  #important for SAPT in psi4, default
}

set PROPERTIES_ORIGIN ["COM"]
properties('MP2/aug-cc-pvtz', properties = ['dipole'])
--------------------------------------------------------------------------

    Molecular point group: c1
  Charge       = 0
  Multiplicity = 1
  Basis Set: AUG-CC-PVTZ
    Blend: AUG-CC-PVTZ
  Basis Set: (AUG-CC-PVTZ AUX)
    Blend: AUG-CC-PVTZ-JKFIT

    Orbital Energies [Eh]
    ---------------------

    Doubly Occupied:

       1A    -20.541166     2A    -15.564212     3A    -11.341480
       4A    -11.303268     5A    -11.257845     6A    -11.256229
       7A    -11.252771     8A    -11.251609     9A    -11.250432
      10A    -11.248302    11A    -11.245989    12A    -11.244602
      13A    -11.241256    14A    -11.237051    15A    -11.229517
      16A     -1.374267    17A     -1.229055    18A     -1.164541
      19A     -1.138196    20A     -1.056790    21A     -1.026486
      22A     -1.020530    23A     -0.996592    24A     -0.892613
      25A     -0.848458    26A     -0.838868    27A     -0.819116
      28A     -0.769843    29A     -0.717258    30A     -0.702417
      31A     -0.688948    32A     -0.669691    33A     -0.647750
      34A     -0.633779    35A     -0.616330    36A     -0.611549
      37A     -0.599326    38A     -0.595497    39A     -0.584890
      40A     -0.557000    41A     -0.532787    42A     -0.525749
      43A     -0.520430    44A     -0.508077    45A     -0.502414
      46A     -0.489750    47A     -0.455030    48A     -0.421046
      49A     -0.351798    50A     -0.346472    51A     -0.344663
      52A     -0.302045

  @DF-RHF Final Energy:  -628.21260208671856

   => Energetics <=

    Nuclear Repulsion Energy =            892.7288801560241609
    One-Electron Energy =               -2624.7513975349047541
    Two-Electron Energy =                1103.8099152921620316
    Total Energy =                       -628.2126020867185616
  Basis Set: (AUG-CC-PVTZ AUX)
    Blend: AUG-CC-PVTZ-RI
    Molecular point group: c1

    Geometry (in Angstrom), charge = 0, multiplicity = 1:

       Center              X                  Y                   Z               Mass
    ------------   -----------------  -----------------  -----------------  -----------------
         O           -0.038209393923     2.171056408327    -0.316499091709    15.994914619570
         N            2.484136606077     1.918321408327     0.740946908291    14.003074004430
         C            1.119624606077     0.089451408327    -0.150546091709    12.000000000000
         C           -1.438138393923     0.292139408327    -0.047907091709    12.000000000000
         C           -0.097070393923     0.936884408327    -0.181909091709    12.000000000000
         C            2.371854606077     0.628711408327     0.245292908291    12.000000000000
         C            1.057652606077    -1.234860591673    -0.624691091709    12.000000000000
         C            3.452235206077    -0.284305791673     0.434976608291    12.000000000000
         C           -1.652361393923    -0.806937591673     0.797467908291    12.000000000000
         C           -2.521352393923     0.875902408327    -0.720063091709    12.000000000000
         C            2.184731606077    -2.046633591673    -0.655692091709    12.000000000000
         C            3.406847606077    -1.530673591673    -0.212378091709    12.000000000000
         C           -2.940536393923    -1.319858591673     0.955784908291    12.000000000000
         C           -3.800911393923     0.344551408327    -0.575533091709    12.000000000000
         C           -4.013462393923    -0.753972591673     0.263181908291    12.000000000000
         H            0.105986606077    -1.619947591673    -0.980413091709     1.007825032230
         H            4.449897606077     0.174678408327     0.579931908291     1.007825032230
         H           -0.819483393923    -1.239061591673     1.346087908291     1.007825032230
         H           -2.341393393923     1.744946408327    -1.347607091709     1.007825032230
         H            2.118748606077    -3.062087591673    -1.036404091709     1.007825032230
         H            4.298372606077    -2.154017591673    -0.216603091709     1.007825032230
         H           -3.107386393923    -2.162579591673     1.622466908291     1.007825032230
         H           -4.636282393923     0.789898408327    -1.110584091709     1.007825032230
         H           -5.014033393923    -1.163131591673     0.381627908291     1.007825032230
         H            1.791933606077     2.560969408327     0.370130908291     1.007825032230
         H            3.427740606077     2.287368408327     0.739667908291     1.007825032230

  Basis Set: AUG-CC-PVTZ
    Blend: AUG-CC-PVTZ
  Basis Set: (AUG-CC-PVTZ AUX)
    Blend: AUG-CC-PVTZ-JKFIT
	 Reference Energy          =    -628.2126020867185616 [Eh]
	 Singles Energy            =      -0.0000000000000000 [Eh]
	 Same-Spin Energy          =      -0.6920336794506172 [Eh]
	 Opposite-Spin Energy      =      -2.1113571788073191 [Eh]
	 Correlation Energy        =      -2.8033908582579361 [Eh]
	 Total Energy              =    -631.0159929449764604 [Eh]

	 ================> DF-SCS-MP2 Energies <==================
	-----------------------------------------------------------
	 SCS Same-Spin Scale       =       0.3333333333333333 [-]
	 SCS Opposite-Spin Scale   =       1.2000000000000000 [-]
	 SCS Same-Spin Energy      =      -0.2306778931502057 [Eh]
	 SCS Opposite-Spin Energy  =      -2.5336286145687827 [Eh]
	 SCS Correlation Energy    =      -2.7643065077189886 [Eh]
	 SCS Total Energy          =    -630.9769085944375320 [Eh]
	-----------------------------------------------------------

  Dipole Moment: [D]
     X:     0.2989      Y:    -1.5720      Z:    -0.2265     Total:     1.6161

*** Psi4 exiting successfully. Buy a developer a beer!
