                               Psi4 1.4a2.dev612

  ==> Input File <==

--------------------------------------------------------------------------
#psi4
#
memory 32 gb

molecule  {
0 1
  O       -0.0417540     2.1858230    -0.3073980
  N        2.4805920     1.9330880     0.7500480
  C        1.1160800     0.1042180    -0.1414450
  C       -1.4489215     0.2910026    -0.1877848
  C       -0.1006150     0.9516510    -0.1728080
  C        2.3683100     0.6434780     0.2543940
  C        1.0541080    -1.2200940    -0.6155900
  C        3.4881200    -0.2081800     0.2578510
  C       -1.6559060    -0.7921710     0.8065690
  C       -2.5248970     0.8906690    -0.7109620
  C        2.1811870    -2.0318670    -0.6465910
  C        3.4033030    -1.5159070    -0.2032770
  C       -2.9440810    -1.3050920     0.9648860
  C       -3.8044560     0.3593180    -0.5664320
  C       -4.0170070    -0.7392060     0.2722830
  H        0.1024420    -1.6051810    -0.9713120
  H        4.4463530     0.1894450     0.5890330
  H       -0.8230280    -1.2242950     1.3551890
  H       -2.3449380     1.7597130    -1.3385060
  H        2.1152040    -3.0473210    -1.0273030
  H        4.2948280    -2.1392510    -0.2075020
  H       -3.1109310    -2.1478130     1.6315680
  H       -4.6398270     0.8046650    -1.1014830
  H       -5.0175780    -1.1483650     0.3907290
  H        1.7883890     2.5757360     0.3792320
  H        3.4241960     2.3021350     0.7487690
units angstrom
no_reorient  #important for SAPT in psi4, default
symmetry c1  #important for SAPT in psi4, default
}

set PROPERTIES_ORIGIN ["COM"]
properties('MP2/aug-cc-pvtz', properties = ['dipole'])
--------------------------------------------------------------------------

    Molecular point group: c1
  Charge       = 0
  Multiplicity = 1
  Basis Set: AUG-CC-PVTZ
    Blend: AUG-CC-PVTZ
  Basis Set: (AUG-CC-PVTZ AUX)
    Blend: AUG-CC-PVTZ-JKFIT

    Orbital Energies [Eh]
    ---------------------

    Doubly Occupied:

       1A    -20.540953     2A    -15.561865     3A    -11.341994
       4A    -11.298888     5A    -11.260311     6A    -11.254506
       7A    -11.253956     8A    -11.252272     9A    -11.250349
      10A    -11.245739    11A    -11.244904    12A    -11.241570
      13A    -11.241234    14A    -11.233444    15A    -11.229762
      16A     -1.373743    17A     -1.228472    18A     -1.163766
      19A     -1.138583    20A     -1.056208    21A     -1.034155
      22A     -1.014352    23A     -0.997644    24A     -0.892776
      25A     -0.850718    26A     -0.840111    27A     -0.815818
      28A     -0.768723    29A     -0.717871    30A     -0.702518
      31A     -0.688339    32A     -0.668802    33A     -0.648549
      34A     -0.635027    35A     -0.613848    36A     -0.612492
      37A     -0.604607    38A     -0.595545    39A     -0.586018
      40A     -0.555943    41A     -0.535573    42A     -0.529504
      43A     -0.519294    44A     -0.509238    45A     -0.496237
      46A     -0.490654    47A     -0.453936    48A     -0.421217
      49A     -0.355168    50A     -0.350129    51A     -0.337708
      52A     -0.301883

  @DF-RHF Final Energy:  -628.21257192340568

   => Energetics <=

    Nuclear Repulsion Energy =            892.9386280186325848
    One-Electron Energy =               -2625.1885812415957844
    Two-Electron Energy =                1104.0373812995574099
    Total Energy =                       -628.2125719234056760
  Basis Set: (AUG-CC-PVTZ AUX)
    Blend: AUG-CC-PVTZ-RI
    Molecular point group: c1

    Geometry (in Angstrom), charge = 0, multiplicity = 1:

       Center              X                  Y                   Z               Mass
    ------------   -----------------  -----------------  -----------------  -----------------
         O           -0.040169424542     2.168288708144    -0.296089191899    15.994914619570
         N            2.482176575458     1.915553708144     0.761356808101    14.003074004430
         C            1.117664575458     0.086683708144    -0.130136191899    12.000000000000
         C           -1.447336924542     0.273468308144    -0.176475991899    12.000000000000
         C           -0.099030424542     0.934116708144    -0.161499191899    12.000000000000
         C            2.369894575458     0.625943708144     0.265702808101    12.000000000000
         C            1.055692575458    -1.237628291856    -0.604281191899    12.000000000000
         C            3.489704575458    -0.225714291856     0.269159808101    12.000000000000
         C           -1.654321424542    -0.809705291856     0.817877808101    12.000000000000
         C           -2.523312424542     0.873134708144    -0.699653191899    12.000000000000
         C            2.182771575458    -2.049401291856    -0.635282191899    12.000000000000
         C            3.404887575458    -1.533441291856    -0.191968191899    12.000000000000
         C           -2.942496424542    -1.322626291856     0.976194808101    12.000000000000
         C           -3.802871424542     0.341783708144    -0.555123191899    12.000000000000
         C           -4.015422424542    -0.756740291856     0.283591808101    12.000000000000
         H            0.104026575458    -1.622715291856    -0.960003191899     1.007825032230
         H            4.447937575458     0.171910708144     0.600341808101     1.007825032230
         H           -0.821443424542    -1.241829291856     1.366497808101     1.007825032230
         H           -2.343353424542     1.742178708144    -1.327197191899     1.007825032230
         H            2.116788575458    -3.064855291856    -1.015994191899     1.007825032230
         H            4.296412575458    -2.156785291856    -0.196193191899     1.007825032230
         H           -3.109346424542    -2.165347291856     1.642876808101     1.007825032230
         H           -4.638242424542     0.787130708144    -1.090174191899     1.007825032230
         H           -5.015993424542    -1.165899291856     0.402037808101     1.007825032230
         H            1.789973575458     2.558201708144     0.390540808101     1.007825032230
         H            3.425780575458     2.284600708144     0.760077808101     1.007825032230

  Basis Set: AUG-CC-PVTZ
    Blend: AUG-CC-PVTZ
  Basis Set: (AUG-CC-PVTZ AUX)
    Blend: AUG-CC-PVTZ-JKFIT
	 Reference Energy          =    -628.2125719234056760 [Eh]
	 Singles Energy            =      -0.0000000000000000 [Eh]
	 Same-Spin Energy          =      -0.6917360526739718 [Eh]
	 Opposite-Spin Energy      =      -2.1107294529794141 [Eh]
	 Correlation Energy        =      -2.8024655056533856 [Eh]
	 Total Energy              =    -631.0150374290590207 [Eh]

	 ================> DF-SCS-MP2 Energies <==================
	-----------------------------------------------------------
	 SCS Same-Spin Scale       =       0.3333333333333333 [-]
	 SCS Opposite-Spin Scale   =       1.2000000000000000 [-]
	 SCS Same-Spin Energy      =      -0.2305786842246572 [Eh]
	 SCS Opposite-Spin Energy  =      -2.5328753435752969 [Eh]
	 SCS Correlation Energy    =      -2.7634540277999542 [Eh]
	 SCS Total Energy          =    -630.9760259512056564 [Eh]
	-----------------------------------------------------------

  Dipole Moment: [D]
     X:     0.3365      Y:    -1.6326      Z:    -0.0894     Total:     1.6693

*** Psi4 exiting successfully. Buy a developer a beer!
