                               Psi4 1.4a2.dev612

  ==> Input File <==

--------------------------------------------------------------------------
#psi4
#
memory 32 gb

molecule  {
0 1
  O       -0.0417540     2.1858230    -0.3073980
  N        2.4805920     1.9330880     0.7500480
  C        1.1160800     0.1042180    -0.1414450
  C       -1.4416830     0.3069060    -0.0388060
  C       -0.1006150     0.9516510    -0.1728080
  C        2.3683100     0.6434780     0.2543940
  C        1.0640389    -1.2052895    -0.6623041
  C        3.4881200    -0.2081800     0.2578510
  C       -1.6559060    -0.7921710     0.8065690
  C       -2.5248970     0.8906690    -0.7109620
  C        2.1811870    -2.0318670    -0.6465910
  C        3.4033030    -1.5159070    -0.2032770
  C       -2.9440810    -1.3050920     0.9648860
  C       -3.8044560     0.3593180    -0.5664320
  C       -4.0170070    -0.7392060     0.2722830
  H        0.1024420    -1.6051810    -0.9713120
  H        4.4463530     0.1894450     0.5890330
  H       -0.8230280    -1.2242950     1.3551890
  H       -2.3449380     1.7597130    -1.3385060
  H        2.1152040    -3.0473210    -1.0273030
  H        4.2948280    -2.1392510    -0.2075020
  H       -3.1109310    -2.1478130     1.6315680
  H       -4.6398270     0.8046650    -1.1014830
  H       -5.0175780    -1.1483650     0.3907290
  H        1.7883890     2.5757360     0.3792320
  H        3.4241960     2.3021350     0.7487690
units angstrom
no_reorient  #important for SAPT in psi4, default
symmetry c1  #important for SAPT in psi4, default
}

set PROPERTIES_ORIGIN ["COM"]
properties('MP2/aug-cc-pvtz', properties = ['dipole'])
--------------------------------------------------------------------------

    Molecular point group: c1
  Charge       = 0
  Multiplicity = 1
  Basis Set: AUG-CC-PVTZ
    Blend: AUG-CC-PVTZ
  Basis Set: (AUG-CC-PVTZ AUX)
    Blend: AUG-CC-PVTZ-JKFIT

    Orbital Energies [Eh]
    ---------------------

    Doubly Occupied:

       1A    -20.541910     2A    -15.561745     3A    -11.341736
       4A    -11.298813     5A    -11.254388     6A    -11.254291
       7A    -11.252777     8A    -11.251605     9A    -11.250334
      10A    -11.248214    11A    -11.246005    12A    -11.244570
      13A    -11.241255    14A    -11.233561    15A    -11.229912
      16A     -1.374630    17A     -1.228420    18A     -1.164447
      19A     -1.138290    20A     -1.057360    21A     -1.026581
      22A     -1.021158    23A     -0.997673    24A     -0.893395
      25A     -0.849361    26A     -0.838765    27A     -0.820026
      28A     -0.770497    29A     -0.718167    30A     -0.702200
      31A     -0.688400    32A     -0.670531    33A     -0.647869
      34A     -0.634563    35A     -0.615887    36A     -0.611200
      37A     -0.604226    38A     -0.597218    39A     -0.587659
      40A     -0.555086    41A     -0.535832    42A     -0.526841
      43A     -0.519331    44A     -0.509436    45A     -0.502411
      46A     -0.490999    47A     -0.453997    48A     -0.422186
      49A     -0.351917    50A     -0.346321    51A     -0.344691
      52A     -0.301984

  @DF-RHF Final Energy:  -628.22510602394391

   => Energetics <=

    Nuclear Repulsion Energy =            893.0396142802638906
    One-Electron Energy =               -2625.3880929084707532
    Two-Electron Energy =                1104.1233726042630678
    Total Energy =                       -628.2251060239439084
  Basis Set: (AUG-CC-PVTZ AUX)
    Blend: AUG-CC-PVTZ-RI
    Molecular point group: c1

    Geometry (in Angstrom), charge = 0, multiplicity = 1:

       Center              X                  Y                   Z               Mass
    ------------   -----------------  -----------------  -----------------  -----------------
         O           -0.041214830223     2.166418974018    -0.302315856679    15.994914619570
         N            2.481131169777     1.913683974018     0.755130143321    14.003074004430
         C            1.116619169777     0.084813974018    -0.136362856679    12.000000000000
         C           -1.441143830223     0.287501974018    -0.033723856679    12.000000000000
         C           -0.100075830223     0.932246974018    -0.167725856679    12.000000000000
         C            2.368849169777     0.624073974018     0.259476143321    12.000000000000
         C            1.064578069777    -1.224693525982    -0.657221956679    12.000000000000
         C            3.488659169777    -0.227584025982     0.262933143321    12.000000000000
         C           -1.655366830223    -0.811575025982     0.811651143321    12.000000000000
         C           -2.524357830223     0.871264974018    -0.705879856679    12.000000000000
         C            2.181726169777    -2.051271025982    -0.641508856679    12.000000000000
         C            3.403842169777    -1.535311025982    -0.198194856679    12.000000000000
         C           -2.943541830223    -1.324496025982     0.969968143321    12.000000000000
         C           -3.803916830223     0.339913974018    -0.561349856679    12.000000000000
         C           -4.016467830223    -0.758610025982     0.277365143321    12.000000000000
         H            0.102981169777    -1.624585025982    -0.966229856679     1.007825032230
         H            4.446892169777     0.170040974018     0.594115143321     1.007825032230
         H           -0.822488830223    -1.243699025982     1.360271143321     1.007825032230
         H           -2.344398830223     1.740308974018    -1.333423856679     1.007825032230
         H            2.115743169777    -3.066725025982    -1.022220856679     1.007825032230
         H            4.295367169777    -2.158655025982    -0.202419856679     1.007825032230
         H           -3.110391830223    -2.167217025982     1.636650143321     1.007825032230
         H           -4.639287830223     0.785260974018    -1.096400856679     1.007825032230
         H           -5.017038830223    -1.167769025982     0.395811143321     1.007825032230
         H            1.788928169777     2.556331974018     0.384314143321     1.007825032230
         H            3.424735169777     2.282730974018     0.753851143321     1.007825032230

  Basis Set: AUG-CC-PVTZ
    Blend: AUG-CC-PVTZ
  Basis Set: (AUG-CC-PVTZ AUX)
    Blend: AUG-CC-PVTZ-JKFIT
	 Reference Energy          =    -628.2251060239439084 [Eh]
	 Singles Energy            =      -0.0000000000000000 [Eh]
	 Same-Spin Energy          =      -0.6915395094479276 [Eh]
	 Opposite-Spin Energy      =      -2.1096629242618885 [Eh]
	 Correlation Energy        =      -2.8012024337098160 [Eh]
	 Total Energy              =    -631.0263084576537267 [Eh]

	 ================> DF-SCS-MP2 Energies <==================
	-----------------------------------------------------------
	 SCS Same-Spin Scale       =       0.3333333333333333 [-]
	 SCS Opposite-Spin Scale   =       1.2000000000000000 [-]
	 SCS Same-Spin Energy      =      -0.2305131698159759 [Eh]
	 SCS Opposite-Spin Energy  =      -2.5315955091142661 [Eh]
	 SCS Correlation Energy    =      -2.7621086789302418 [Eh]
	 SCS Total Energy          =    -630.9872147028740983 [Eh]
	-----------------------------------------------------------

  Dipole Moment: [D]
     X:     0.3209      Y:    -1.6303      Z:    -0.0761     Total:     1.6633

*** Psi4 exiting successfully. Buy a developer a beer!
