                               Psi4 1.4a2.dev612

  ==> Input File <==

--------------------------------------------------------------------------
#psi4
#
memory 32 gb

molecule  {
0 1
  O       -0.0417540     2.1858230    -0.3073980
  N        2.4805920     1.9330880     0.7500480
  C        1.1160800     0.1042180    -0.1414450
  C       -1.4416830     0.3069060    -0.0388060
  C       -0.1006150     0.9516510    -0.1728080
  C        2.3683100     0.6434780     0.2543940
  C        1.0541080    -1.2200940    -0.6155900
  C        3.4881200    -0.2081800     0.2578510
  C       -1.6559060    -0.7921710     0.8065690
  C       -2.5248970     0.8906690    -0.7109620
  C        2.1811870    -2.0318670    -0.6465910
  C        3.4033030    -1.5159070    -0.2032770
  C       -2.9440810    -1.3050920     0.9648860
  C       -3.8044560     0.3593180    -0.5664320
  C       -4.0170070    -0.7392060     0.2722830
  H        0.1445329    -1.5405550    -1.1558434
  H        4.4463530     0.1894450     0.5890330
  H       -0.8230280    -1.2242950     1.3551890
  H       -2.3449380     1.7597130    -1.3385060
  H        2.1152040    -3.0473210    -1.0273030
  H        4.2948280    -2.1392510    -0.2075020
  H       -3.1109310    -2.1478130     1.6315680
  H       -4.6398270     0.8046650    -1.1014830
  H       -5.0175780    -1.1483650     0.3907290
  H        1.7883890     2.5757360     0.3792320
  H        3.4241960     2.3021350     0.7487690
units angstrom
no_reorient  #important for SAPT in psi4, default
symmetry c1  #important for SAPT in psi4, default
}

set PROPERTIES_ORIGIN ["COM"]
properties('MP2/aug-cc-pvtz', properties = ['dipole'])
--------------------------------------------------------------------------

    Molecular point group: c1
  Charge       = 0
  Multiplicity = 1
  Basis Set: AUG-CC-PVTZ
    Blend: AUG-CC-PVTZ
  Basis Set: (AUG-CC-PVTZ AUX)
    Blend: AUG-CC-PVTZ-JKFIT

    Orbital Energies [Eh]
    ---------------------

    Doubly Occupied:

       1A    -20.541180     2A    -15.562006     3A    -11.341150
       4A    -11.299255     5A    -11.256037     6A    -11.254697
       7A    -11.252084     8A    -11.251100     9A    -11.249693
      10A    -11.247756    11A    -11.245179    12A    -11.243965
      13A    -11.241242    14A    -11.234044    15A    -11.230295
      16A     -1.374092    17A     -1.228684    18A     -1.163799
      19A     -1.138613    20A     -1.057108    21A     -1.026020
      22A     -1.020816    23A     -0.997710    24A     -0.893070
      25A     -0.848717    26A     -0.837719    27A     -0.819814
      28A     -0.770274    29A     -0.717874    30A     -0.700430
      31A     -0.688691    32A     -0.670258    33A     -0.647361
      34A     -0.634159    35A     -0.615672    36A     -0.610715
      37A     -0.603845    38A     -0.596978    39A     -0.587318
      40A     -0.553008    41A     -0.535891    42A     -0.526475
      43A     -0.520111    44A     -0.508966    45A     -0.501758
      46A     -0.490582    47A     -0.453421    48A     -0.421933
      49A     -0.352505    50A     -0.345190    51A     -0.343868
      52A     -0.302150

  @DF-RHF Final Energy:  -628.22326712972438

   => Energetics <=

    Nuclear Repulsion Energy =            892.9920404165155787
    One-Electron Energy =               -2625.3200517500117712
    Two-Electron Energy =                1104.1047442037720430
    Total Energy =                       -628.2232671297242632
  Basis Set: (AUG-CC-PVTZ AUX)
    Blend: AUG-CC-PVTZ-RI
    Molecular point group: c1

    Geometry (in Angstrom), charge = 0, multiplicity = 1:

       Center              X                  Y                   Z               Mass
    ------------   -----------------  -----------------  -----------------  -----------------
         O           -0.040825399764     2.166989909573    -0.304216537172    15.994914619570
         N            2.481520600236     1.914254909573     0.753229462828    14.003074004430
         C            1.117008600236     0.085384909573    -0.138263537172    12.000000000000
         C           -1.440754399764     0.288072909573    -0.035624537172    12.000000000000
         C           -0.099686399764     0.932817909573    -0.169626537172    12.000000000000
         C            2.369238600236     0.624644909573     0.257575462828    12.000000000000
         C            1.055036600236    -1.238927090427    -0.612408537172    12.000000000000
         C            3.489048600236    -0.227013090427     0.261032462828    12.000000000000
         C           -1.654977399764    -0.811004090427     0.809750462828    12.000000000000
         C           -2.523968399764     0.871835909573    -0.707780537172    12.000000000000
         C            2.182115600236    -2.050700090427    -0.643409537172    12.000000000000
         C            3.404231600236    -1.534740090427    -0.200095537172    12.000000000000
         C           -2.943152399764    -1.323925090427     0.968067462828    12.000000000000
         C           -3.803527399764     0.340484909573    -0.563250537172    12.000000000000
         C           -4.016078399764    -0.758039090427     0.275464462828    12.000000000000
         H            0.145461500236    -1.559388090427    -1.152661937172     1.007825032230
         H            4.447281600236     0.170611909573     0.592214462828     1.007825032230
         H           -0.822099399764    -1.243128090427     1.358370462828     1.007825032230
         H           -2.344009399764     1.740879909573    -1.335324537172     1.007825032230
         H            2.116132600236    -3.066154090427    -1.024121537172     1.007825032230
         H            4.295756600236    -2.158084090427    -0.204320537172     1.007825032230
         H           -3.110002399764    -2.166646090427     1.634749462828     1.007825032230
         H           -4.638898399764     0.785831909573    -1.098301537172     1.007825032230
         H           -5.016649399764    -1.167198090427     0.393910462828     1.007825032230
         H            1.789317600236     2.556902909573     0.382413462828     1.007825032230
         H            3.425124600236     2.283301909573     0.751950462828     1.007825032230

  Basis Set: AUG-CC-PVTZ
    Blend: AUG-CC-PVTZ
  Basis Set: (AUG-CC-PVTZ AUX)
    Blend: AUG-CC-PVTZ-JKFIT
	 Reference Energy          =    -628.2232671297243769 [Eh]
	 Singles Energy            =      -0.0000000000000000 [Eh]
	 Same-Spin Energy          =      -0.6917138523965963 [Eh]
	 Opposite-Spin Energy      =      -2.1099996087769237 [Eh]
	 Correlation Energy        =      -2.8017134611735202 [Eh]
	 Total Energy              =    -631.0249805908979397 [Eh]

	 ================> DF-SCS-MP2 Energies <==================
	-----------------------------------------------------------
	 SCS Same-Spin Scale       =       0.3333333333333333 [-]
	 SCS Opposite-Spin Scale   =       1.2000000000000000 [-]
	 SCS Same-Spin Energy      =      -0.2305712841321988 [Eh]
	 SCS Opposite-Spin Energy  =      -2.5319995305323082 [Eh]
	 SCS Correlation Energy    =      -2.7625708146645072 [Eh]
	 SCS Total Energy          =    -630.9858379443888907 [Eh]
	-----------------------------------------------------------

  Dipole Moment: [D]
     X:     0.4192      Y:    -1.6148      Z:    -0.1929     Total:     1.6794

*** Psi4 exiting successfully. Buy a developer a beer!
