                               Psi4 1.4a2.dev612

  ==> Input File <==

--------------------------------------------------------------------------
#psi4
#
memory 32 gb

molecule  {
0 1
  O       -0.0417540     2.1858230    -0.3073980
  N        2.4805920     1.9330880     0.7500480
  C        1.1160800     0.1042180    -0.1414450
  C       -1.4537472     0.2804004    -0.2871040
  C       -0.1006150     0.9516510    -0.1728080
  C        2.3683100     0.6434780     0.2543940
  C        1.0541080    -1.2200940    -0.6155900
  C        3.4881200    -0.2081800     0.2578510
  C       -1.6559060    -0.7921710     0.8065690
  C       -2.5248970     0.8906690    -0.7109620
  C        2.1811870    -2.0318670    -0.6465910
  C        3.4033030    -1.5159070    -0.2032770
  C       -2.9440810    -1.3050920     0.9648860
  C       -3.8044560     0.3593180    -0.5664320
  C       -4.0170070    -0.7392060     0.2722830
  H        0.1024420    -1.6051810    -0.9713120
  H        4.4463530     0.1894450     0.5890330
  H       -0.8230280    -1.2242950     1.3551890
  H       -2.3449380     1.7597130    -1.3385060
  H        2.1152040    -3.0473210    -1.0273030
  H        4.2948280    -2.1392510    -0.2075020
  H       -3.1109310    -2.1478130     1.6315680
  H       -4.6398270     0.8046650    -1.1014830
  H       -5.0175780    -1.1483650     0.3907290
  H        1.7883890     2.5757360     0.3792320
  H        3.4241960     2.3021350     0.7487690
units angstrom
no_reorient  #important for SAPT in psi4, default
symmetry c1  #important for SAPT in psi4, default
}

set PROPERTIES_ORIGIN ["COM"]
properties('MP2/aug-cc-pvtz', properties = ['dipole'])
--------------------------------------------------------------------------

    Molecular point group: c1
  Charge       = 0
  Multiplicity = 1
  Basis Set: AUG-CC-PVTZ
    Blend: AUG-CC-PVTZ
  Basis Set: (AUG-CC-PVTZ AUX)
    Blend: AUG-CC-PVTZ-JKFIT

    Orbital Energies [Eh]
    ---------------------

    Doubly Occupied:

       1A    -20.540965     2A    -15.561861     3A    -11.343333
       4A    -11.298809     5A    -11.264822     6A    -11.254455
       7A    -11.253714     8A    -11.253266     9A    -11.250960
      10A    -11.245498    11A    -11.244895    12A    -11.241407
      13A    -11.238366    14A    -11.233353    15A    -11.229674
      16A     -1.373472    17A     -1.228441    18A     -1.163704
      19A     -1.138556    20A     -1.056162    21A     -1.038215
      22A     -1.009773    23A     -0.997480    24A     -0.891642
      25A     -0.851665    26A     -0.840568    27A     -0.812773
      28A     -0.766598    29A     -0.717264    30A     -0.702788
      31A     -0.688178    32A     -0.668445    33A     -0.648160
      34A     -0.635187    35A     -0.615457    36A     -0.611163
      37A     -0.603918    38A     -0.593477    39A     -0.583921
      40A     -0.556692    41A     -0.535524    42A     -0.531609
      43A     -0.518975    44A     -0.509296    45A     -0.493150
      46A     -0.485214    47A     -0.453852    48A     -0.419250
      49A     -0.361357    50A     -0.349933    51A     -0.332479
      52A     -0.301716

  @DF-RHF Final Energy:  -628.19043058880266

   => Energetics <=

    Nuclear Repulsion Energy =            892.5390543527569207
    One-Electron Energy =               -2624.3761086776139564
    Two-Electron Energy =                1103.6466237360543801
    Total Energy =                       -628.1904305888026556
  Basis Set: (AUG-CC-PVTZ AUX)
    Blend: AUG-CC-PVTZ-RI
    Molecular point group: c1

    Geometry (in Angstrom), charge = 0, multiplicity = 1:

       Center              X                  Y                   Z               Mass
    ------------   -----------------  -----------------  -----------------  -----------------
         O           -0.039875598655     2.168934251966    -0.290041871908    15.994914619570
         N            2.482470401345     1.916199251966     0.767404128092    14.003074004430
         C            1.117958401345     0.087329251966    -0.124088871908    12.000000000000
         C           -1.451868798655     0.263511651966    -0.269747871908    12.000000000000
         C           -0.098736598655     0.934762251966    -0.155451871908    12.000000000000
         C            2.370188401345     0.626589251966     0.271750128092    12.000000000000
         C            1.055986401345    -1.236982748034    -0.598233871908    12.000000000000
         C            3.489998401345    -0.225068748034     0.275207128092    12.000000000000
         C           -1.654027598655    -0.809059748034     0.823925128092    12.000000000000
         C           -2.523018598655     0.873780251966    -0.693605871908    12.000000000000
         C            2.183065401345    -2.048755748034    -0.629234871908    12.000000000000
         C            3.405181401345    -1.532795748034    -0.185920871908    12.000000000000
         C           -2.942202598655    -1.321980748034     0.982242128092    12.000000000000
         C           -3.802577598655     0.342429251966    -0.549075871908    12.000000000000
         C           -4.015128598655    -0.756094748034     0.289639128092    12.000000000000
         H            0.104320401345    -1.622069748034    -0.953955871908     1.007825032230
         H            4.448231401345     0.172556251966     0.606389128092     1.007825032230
         H           -0.821149598655    -1.241183748034     1.372545128092     1.007825032230
         H           -2.343059598655     1.742824251966    -1.321149871908     1.007825032230
         H            2.117082401345    -3.064209748034    -1.009946871908     1.007825032230
         H            4.296706401345    -2.156139748034    -0.190145871908     1.007825032230
         H           -3.109052598655    -2.164701748034     1.648924128092     1.007825032230
         H           -4.637948598655     0.787776251966    -1.084126871908     1.007825032230
         H           -5.015699598655    -1.165253748034     0.408085128092     1.007825032230
         H            1.790267401345     2.558847251966     0.396588128092     1.007825032230
         H            3.426074401345     2.285246251966     0.766125128092     1.007825032230

  Basis Set: AUG-CC-PVTZ
    Blend: AUG-CC-PVTZ
  Basis Set: (AUG-CC-PVTZ AUX)
    Blend: AUG-CC-PVTZ-JKFIT
	 Reference Energy          =    -628.1904305888026556 [Eh]
	 Singles Energy            =      -0.0000000000000000 [Eh]
	 Same-Spin Energy          =      -0.6919327490141703 [Eh]
	 Opposite-Spin Energy      =      -2.1125054786962765 [Eh]
	 Correlation Energy        =      -2.8044382277104467 [Eh]
	 Total Energy              =    -630.9948688165130761 [Eh]

	 ================> DF-SCS-MP2 Energies <==================
	-----------------------------------------------------------
	 SCS Same-Spin Scale       =       0.3333333333333333 [-]
	 SCS Opposite-Spin Scale   =       1.2000000000000000 [-]
	 SCS Same-Spin Energy      =      -0.2306442496713901 [Eh]
	 SCS Opposite-Spin Energy  =      -2.5350065744355317 [Eh]
	 SCS Correlation Energy    =      -2.7656508241069218 [Eh]
	 SCS Total Energy          =    -630.9560814129096116 [Eh]
	-----------------------------------------------------------

  Dipole Moment: [D]
     X:     0.3188      Y:    -1.6227      Z:    -0.0829     Total:     1.6558

*** Psi4 exiting successfully. Buy a developer a beer!
