                               Psi4 1.4a2.dev612

  ==> Input File <==

--------------------------------------------------------------------------
#psi4
#
memory 32 gb

molecule  {
0 1
  O       -0.0417540     2.1858230    -0.3073980
  N        2.4805920     1.9330880     0.7500480
  C        1.1160800     0.1042180    -0.1414450
  C       -1.4561601     0.2750993    -0.3367636
  C       -0.1006150     0.9516510    -0.1728080
  C        2.3683100     0.6434780     0.2543940
  C        1.0541080    -1.2200940    -0.6155900
  C        3.4881200    -0.2081800     0.2578510
  C       -1.6559060    -0.7921710     0.8065690
  C       -2.5248970     0.8906690    -0.7109620
  C        2.1811870    -2.0318670    -0.6465910
  C        3.4033030    -1.5159070    -0.2032770
  C       -2.9440810    -1.3050920     0.9648860
  C       -3.8044560     0.3593180    -0.5664320
  C       -4.0170070    -0.7392060     0.2722830
  H        0.1024420    -1.6051810    -0.9713120
  H        4.4463530     0.1894450     0.5890330
  H       -0.8230280    -1.2242950     1.3551890
  H       -2.3449380     1.7597130    -1.3385060
  H        2.1152040    -3.0473210    -1.0273030
  H        4.2948280    -2.1392510    -0.2075020
  H       -3.1109310    -2.1478130     1.6315680
  H       -4.6398270     0.8046650    -1.1014830
  H       -5.0175780    -1.1483650     0.3907290
  H        1.7883890     2.5757360     0.3792320
  H        3.4241960     2.3021350     0.7487690
units angstrom
no_reorient  #important for SAPT in psi4, default
symmetry c1  #important for SAPT in psi4, default
}

set PROPERTIES_ORIGIN ["COM"]
properties('MP2/aug-cc-pvtz', properties = ['dipole'])
--------------------------------------------------------------------------

    Molecular point group: c1
  Charge       = 0
  Multiplicity = 1
  Basis Set: AUG-CC-PVTZ
    Blend: AUG-CC-PVTZ
  Basis Set: (AUG-CC-PVTZ AUX)
    Blend: AUG-CC-PVTZ-JKFIT

    Orbital Energies [Eh]
    ---------------------

    Doubly Occupied:

       1A    -20.541100     2A    -15.561866     3A    -11.344314
       4A    -11.298769     5A    -11.266757     6A    -11.254406
       7A    -11.253909     8A    -11.253554     9A    -11.251485
      10A    -11.245342    11A    -11.244898    12A    -11.241523
      13A    -11.237216    14A    -11.233296    15A    -11.229603
      16A     -1.373400    17A     -1.228429    18A     -1.163754
      19A     -1.138521    20A     -1.056498    21A     -1.039751
      22A     -1.007560    23A     -0.997359    24A     -0.890856
      25A     -0.852136    26A     -0.840633    27A     -0.811218
      28A     -0.765369    29A     -0.716860    30A     -0.702952
      31A     -0.688112    32A     -0.668361    33A     -0.647717
      34A     -0.635211    35A     -0.616165    36A     -0.610716
      37A     -0.603448    38A     -0.592589    39A     -0.582443
      40A     -0.557074    41A     -0.535602    42A     -0.532547
      43A     -0.518735    44A     -0.509273    45A     -0.492644
      46A     -0.480752    47A     -0.453798    48A     -0.417731
      49A     -0.364278    50A     -0.349777    51A     -0.330136
      52A     -0.301620

  @DF-RHF Final Energy:  -628.17598521828381

   => Energetics <=

    Nuclear Repulsion Energy =            892.2715563296706023
    One-Electron Energy =               -2623.8309598466389616
    Two-Electron Energy =                1103.3834182986845462
    Total Energy =                       -628.1759852182838131
  Basis Set: (AUG-CC-PVTZ AUX)
    Blend: AUG-CC-PVTZ-RI
    Molecular point group: c1

    Geometry (in Angstrom), charge = 0, multiplicity = 1:

       Center              X                  Y                   Z               Mass
    ------------   -----------------  -----------------  -----------------  -----------------
         O           -0.039728682667     2.169257023877    -0.287018211912    15.994914619570
         N            2.482617317333     1.916522023877     0.770427788088    14.003074004430
         C            1.118105317333     0.087652023877    -0.121065211912    12.000000000000
         C           -1.454134782667     0.258533323877    -0.316383811912    12.000000000000
         C           -0.098589682667     0.935085023877    -0.152428211912    12.000000000000
         C            2.370335317333     0.626912023877     0.274773788088    12.000000000000
         C            1.056133317333    -1.236659976123    -0.595210211912    12.000000000000
         C            3.490145317333    -0.224745976123     0.278230788088    12.000000000000
         C           -1.653880682667    -0.808736976123     0.826948788088    12.000000000000
         C           -2.522871682667     0.874103023877    -0.690582211912    12.000000000000
         C            2.183212317333    -2.048432976123    -0.626211211912    12.000000000000
         C            3.405328317333    -1.532472976123    -0.182897211912    12.000000000000
         C           -2.942055682667    -1.321657976123     0.985265788088    12.000000000000
         C           -3.802430682667     0.342752023877    -0.546052211912    12.000000000000
         C           -4.014981682667    -0.755771976123     0.292662788088    12.000000000000
         H            0.104467317333    -1.621746976123    -0.950932211912     1.007825032230
         H            4.448378317333     0.172879023877     0.609412788088     1.007825032230
         H           -0.821002682667    -1.240860976123     1.375568788088     1.007825032230
         H           -2.342912682667     1.743147023877    -1.318126211912     1.007825032230
         H            2.117229317333    -3.063886976123    -1.006923211912     1.007825032230
         H            4.296853317333    -2.155816976123    -0.187122211912     1.007825032230
         H           -3.108905682667    -2.164378976123     1.651947788088     1.007825032230
         H           -4.637801682667     0.788099023877    -1.081103211912     1.007825032230
         H           -5.015552682667    -1.164930976123     0.411108788088     1.007825032230
         H            1.790414317333     2.559170023877     0.399611788088     1.007825032230
         H            3.426221317333     2.285569023877     0.769148788088     1.007825032230

  Basis Set: AUG-CC-PVTZ
    Blend: AUG-CC-PVTZ
  Basis Set: (AUG-CC-PVTZ AUX)
    Blend: AUG-CC-PVTZ-JKFIT
	 Reference Energy          =    -628.1759852182838131 [Eh]
	 Singles Energy            =      -0.0000000000000000 [Eh]
	 Same-Spin Energy          =      -0.6920959861881977 [Eh]
	 Opposite-Spin Energy      =      -2.1137097375399656 [Eh]
	 Correlation Energy        =      -2.8058057237281631 [Eh]
	 Total Energy              =    -630.9817909420120259 [Eh]

	 ================> DF-SCS-MP2 Energies <==================
	-----------------------------------------------------------
	 SCS Same-Spin Scale       =       0.3333333333333333 [-]
	 SCS Opposite-Spin Scale   =       1.2000000000000000 [-]
	 SCS Same-Spin Energy      =      -0.2306986620627325 [Eh]
	 SCS Opposite-Spin Energy  =      -2.5364516850479588 [Eh]
	 SCS Correlation Energy    =      -2.7671503471106913 [Eh]
	 SCS Total Energy          =    -630.9431355653945275 [Eh]
	-----------------------------------------------------------

  Dipole Moment: [D]
     X:     0.3082      Y:    -1.6140      Z:    -0.0806     Total:     1.6451

*** Psi4 exiting successfully. Buy a developer a beer!
