                               Psi4 1.4a2.dev612

  ==> Input File <==

--------------------------------------------------------------------------
#psi4
#
memory 32 gb

molecule  {
0 1
  O       -0.0417540     2.1858230    -0.3073980
  N        2.4805920     1.9330880     0.7500480
  C        1.1160800     0.1042180    -0.1414450
  C       -1.4416830     0.3069060    -0.0388060
  C       -0.1006150     0.9516510    -0.1728080
  C        2.3683100     0.6434780     0.2543940
  C        1.0541080    -1.2200940    -0.6155900
  C        3.4881200    -0.2081800     0.2578510
  C       -1.6559060    -0.7921710     0.8065690
  C       -2.4686938     0.7098541    -0.9436575
  C        2.1811870    -2.0318670    -0.6465910
  C        3.4033030    -1.5159070    -0.2032770
  C       -2.9440810    -1.3050920     0.9648860
  C       -3.8044560     0.3593180    -0.5664320
  C       -4.0170070    -0.7392060     0.2722830
  H        0.1024420    -1.6051810    -0.9713120
  H        4.4463530     0.1894450     0.5890330
  H       -0.8230280    -1.2242950     1.3551890
  H       -2.3449380     1.7597130    -1.3385060
  H        2.1152040    -3.0473210    -1.0273030
  H        4.2948280    -2.1392510    -0.2075020
  H       -3.1109310    -2.1478130     1.6315680
  H       -4.6398270     0.8046650    -1.1014830
  H       -5.0175780    -1.1483650     0.3907290
  H        1.7883890     2.5757360     0.3792320
  H        3.4241960     2.3021350     0.7487690
units angstrom
no_reorient  #important for SAPT in psi4, default
symmetry c1  #important for SAPT in psi4, default
}

set PROPERTIES_ORIGIN ["COM"]
properties('MP2/aug-cc-pvtz', properties = ['dipole'])
--------------------------------------------------------------------------

    Molecular point group: c1
  Charge       = 0
  Multiplicity = 1
  Basis Set: AUG-CC-PVTZ
    Blend: AUG-CC-PVTZ
  Basis Set: (AUG-CC-PVTZ AUX)
    Blend: AUG-CC-PVTZ-JKFIT

    Orbital Energies [Eh]
    ---------------------

    Doubly Occupied:

       1A    -20.544969     2A    -15.562615     3A    -11.343127
       4A    -11.299621     5A    -11.258024     6A    -11.254953
       7A    -11.254513     8A    -11.254326     9A    -11.253182
      10A    -11.251366    11A    -11.249915    12A    -11.248671
      13A    -11.241699    14A    -11.233940    15A    -11.230150
      16A     -1.376502    17A     -1.229210    18A     -1.161518
      19A     -1.138774    20A     -1.058087    21A     -1.022914
      22A     -1.019341    23A     -0.998179    24A     -0.893108
      25A     -0.848108    26A     -0.837034    27A     -0.819650
      28A     -0.768941    29A     -0.717218    30A     -0.700535
      31A     -0.689292    32A     -0.669849    33A     -0.647254
      34A     -0.631180    35A     -0.616432    36A     -0.611367
      37A     -0.605417    38A     -0.590072    39A     -0.587421
      40A     -0.553973    41A     -0.536155    42A     -0.524142
      43A     -0.519183    44A     -0.511006    45A     -0.494250
      46A     -0.486720    47A     -0.454485    48A     -0.423032
      49A     -0.352331    50A     -0.345963    51A     -0.342300
      52A     -0.302702

  @DF-RHF Final Energy:  -628.19670915524011

   => Energetics <=

    Nuclear Repulsion Energy =            892.3317159154005367
    One-Electron Energy =               -2623.9274208634255956
    Two-Electron Energy =                1103.3989957927849446
    Total Energy =                       -628.1967091552401143
  Basis Set: (AUG-CC-PVTZ AUX)
    Blend: AUG-CC-PVTZ-RI
    Molecular point group: c1

    Geometry (in Angstrom), charge = 0, multiplicity = 1:

       Center              X                  Y                   Z               Mass
    ------------   -----------------  -----------------  -----------------  -----------------
         O           -0.044032245232     2.178329793963    -0.290991872614    15.994914619570
         N            2.478313754768     1.925594793963     0.766454127386    14.003074004430
         C            1.113801754768     0.096724793963    -0.125038872614    12.000000000000
         C           -1.443961245232     0.299412793963    -0.022399872614    12.000000000000
         C           -0.102893245232     0.944157793963    -0.156401872614    12.000000000000
         C            2.366031754768     0.635984793963     0.270800127386    12.000000000000
         C            1.051829754768    -1.227587206037    -0.599183872614    12.000000000000
         C            3.485841754768    -0.215673206037     0.274257127386    12.000000000000
         C           -1.658184245232    -0.799664206037     0.822975127386    12.000000000000
         C           -2.470972045232     0.702360893963    -0.927251372614    12.000000000000
         C            2.178908754768    -2.039360206037    -0.630184872614    12.000000000000
         C            3.401024754768    -1.523400206037    -0.186870872614    12.000000000000
         C           -2.946359245232    -1.312585206037     0.981292127386    12.000000000000
         C           -3.806734245232     0.351824793963    -0.550025872614    12.000000000000
         C           -4.019285245232    -0.746699206037     0.288689127386    12.000000000000
         H            0.100163754768    -1.612674206037    -0.954905872614     1.007825032230
         H            4.444074754768     0.181951793963     0.605439127386     1.007825032230
         H           -0.825306245232    -1.231788206037     1.371595127386     1.007825032230
         H           -2.347216245232     1.752219793963    -1.322099872614     1.007825032230
         H            2.112925754768    -3.054814206037    -1.010896872614     1.007825032230
         H            4.292549754768    -2.146744206037    -0.191095872614     1.007825032230
         H           -3.113209245232    -2.155306206037     1.647974127386     1.007825032230
         H           -4.642105245232     0.797171793963    -1.085076872614     1.007825032230
         H           -5.019856245232    -1.155858206037     0.407135127386     1.007825032230
         H            1.786110754768     2.568242793963     0.395638127386     1.007825032230
         H            3.421917754768     2.294641793963     0.765175127386     1.007825032230

  Basis Set: AUG-CC-PVTZ
    Blend: AUG-CC-PVTZ
  Basis Set: (AUG-CC-PVTZ AUX)
    Blend: AUG-CC-PVTZ-JKFIT
	 Reference Energy          =    -628.1967091552401143 [Eh]
	 Singles Energy            =      -0.0000000000000000 [Eh]
	 Same-Spin Energy          =      -0.6930831289109811 [Eh]
	 Opposite-Spin Energy      =      -2.1142676381994150 [Eh]
	 Correlation Energy        =      -2.8073507671103961 [Eh]
	 Total Energy              =    -631.0040599223505069 [Eh]

	 ================> DF-SCS-MP2 Energies <==================
	-----------------------------------------------------------
	 SCS Same-Spin Scale       =       0.3333333333333333 [-]
	 SCS Opposite-Spin Scale   =       1.2000000000000000 [-]
	 SCS Same-Spin Energy      =      -0.2310277096369937 [Eh]
	 SCS Opposite-Spin Energy  =      -2.5371211658392978 [Eh]
	 SCS Correlation Energy    =      -2.7681488754762915 [Eh]
	 SCS Total Energy          =    -630.9648580307164139 [Eh]
	-----------------------------------------------------------

  Dipole Moment: [D]
     X:     0.4094      Y:    -1.6509      Z:     0.1234     Total:     1.7054

*** Psi4 exiting successfully. Buy a developer a beer!
