                               Psi4 1.4a2.dev612

  ==> Input File <==

--------------------------------------------------------------------------
#psi4
#
memory 32 gb

molecule  {
0 1
  O       -0.0417540     2.1858230    -0.3073980
  N        2.4805920     1.9330880     0.7500480
  C        1.1160800     0.1042180    -0.1414450
  C       -1.4440958     0.3016049    -0.0884656
  C       -0.1006150     0.9516510    -0.1728080
  C        2.3683100     0.6434780     0.2543940
  C        1.0541080    -1.2200940    -0.6155900
  C        3.4881200    -0.2081800     0.2578510
  C       -1.6559060    -0.7921710     0.8065690
  C       -2.5248970     0.8906690    -0.7109620
  C        2.1811870    -2.0318670    -0.6465910
  C        3.4033030    -1.5159070    -0.2032770
  C       -2.9440810    -1.3050920     0.9648860
  C       -3.8044560     0.3593180    -0.5664320
  C       -4.0170070    -0.7392060     0.2722830
  H        0.1024420    -1.6051810    -0.9713120
  H        4.4463530     0.1894450     0.5890330
  H       -0.8230280    -1.2242950     1.3551890
  H       -2.3449380     1.7597130    -1.3385060
  H        2.1152040    -3.0473210    -1.0273030
  H        4.2948280    -2.1392510    -0.2075020
  H       -3.1109310    -2.1478130     1.6315680
  H       -4.6398270     0.8046650    -1.1014830
  H       -5.0175780    -1.1483650     0.3907290
  H        1.7883890     2.5757360     0.3792320
  H        3.4241960     2.3021350     0.7487690
units angstrom
no_reorient  #important for SAPT in psi4, default
symmetry c1  #important for SAPT in psi4, default
}

set PROPERTIES_ORIGIN ["COM"]
properties('MP2/aug-cc-pvtz', properties = ['dipole'])
--------------------------------------------------------------------------

    Molecular point group: c1
  Charge       = 0
  Multiplicity = 1
  Basis Set: AUG-CC-PVTZ
    Blend: AUG-CC-PVTZ
  Basis Set: (AUG-CC-PVTZ AUX)
    Blend: AUG-CC-PVTZ-JKFIT

    Orbital Energies [Eh]
    ---------------------

    Doubly Occupied:

       1A    -20.541263     2A    -15.561890     3A    -11.341498
       4A    -11.298970     5A    -11.255209     6A    -11.254509
       7A    -11.254134     8A    -11.251655     9A    -11.250175
      10A    -11.246075    11A    -11.245846    12A    -11.244394
      13A    -11.241153    14A    -11.233524    15A    -11.229814
      16A     -1.374139    17A     -1.228522    18A     -1.164092
      19A     -1.138578    20A     -1.056948    21A     -1.029184
      22A     -1.018922    23A     -0.997744    24A     -0.893309
      25A     -0.849767    26A     -0.839335    27A     -0.818723
      28A     -0.770133    29A     -0.718184    30A     -0.702370
      31A     -0.688533    32A     -0.669714    33A     -0.648181
      34A     -0.634737    35A     -0.614699    36A     -0.611906
      37A     -0.604823    38A     -0.597063    39A     -0.587192
      40A     -0.555217    41A     -0.535720    42A     -0.527572
      43A     -0.519493    44A     -0.509280    45A     -0.501149
      46A     -0.491225    47A     -0.453999    48A     -0.421997
      49A     -0.351566    50A     -0.347829    51A     -0.343378
      52A     -0.302026

  @DF-RHF Final Energy:  -628.22438508699611

   => Energetics <=

    Nuclear Repulsion Energy =            893.1596572071905484
    One-Electron Energy =               -2625.6333701328244388
    Two-Electron Energy =                1104.2493278386377824
    Total Energy =                       -628.2243850869961079
  Basis Set: (AUG-CC-PVTZ AUX)
    Blend: AUG-CC-PVTZ-RI
    Molecular point group: c1

    Geometry (in Angstrom), charge = 0, multiplicity = 1:

       Center              X                  Y                   Z               Mass
    ------------   -----------------  -----------------  -----------------  -----------------
         O           -0.040463250430     2.167643158232    -0.302136511890    15.994914619570
         N            2.481882749570     1.914908158232     0.755309488110    14.003074004430
         C            1.117370749570     0.086038158232    -0.136183511890    12.000000000000
         C           -1.442805050430     0.283425058232    -0.083204111890    12.000000000000
         C           -0.099324250430     0.933471158232    -0.167546511890    12.000000000000
         C            2.369600749570     0.625298158232     0.259655488110    12.000000000000
         C            1.055398749570    -1.238273841768    -0.610328511890    12.000000000000
         C            3.489410749570    -0.226359841768     0.263112488110    12.000000000000
         C           -1.654615250430    -0.810350841768     0.811830488110    12.000000000000
         C           -2.523606250430     0.872489158232    -0.705700511890    12.000000000000
         C            2.182477749570    -2.050046841768    -0.641329511890    12.000000000000
         C            3.404593749570    -1.534086841768    -0.198015511890    12.000000000000
         C           -2.942790250430    -1.323271841768     0.970147488110    12.000000000000
         C           -3.803165250430     0.341138158232    -0.561170511890    12.000000000000
         C           -4.015716250430    -0.757385841768     0.277544488110    12.000000000000
         H            0.103732749570    -1.623360841768    -0.966050511890     1.007825032230
         H            4.447643749570     0.171265158232     0.594294488110     1.007825032230
         H           -0.821737250430    -1.242474841768     1.360450488110     1.007825032230
         H           -2.343647250430     1.741533158232    -1.333244511890     1.007825032230
         H            2.116494749570    -3.065500841768    -1.022041511890     1.007825032230
         H            4.296118749570    -2.157430841768    -0.202240511890     1.007825032230
         H           -3.109640250430    -2.165992841768     1.636829488110     1.007825032230
         H           -4.638536250430     0.786485158232    -1.096221511890     1.007825032230
         H           -5.016287250430    -1.166544841768     0.395990488110     1.007825032230
         H            1.789679749570     2.557556158232     0.384493488110     1.007825032230
         H            3.425486749570     2.283955158232     0.754030488110     1.007825032230

  Basis Set: AUG-CC-PVTZ
    Blend: AUG-CC-PVTZ
  Basis Set: (AUG-CC-PVTZ AUX)
    Blend: AUG-CC-PVTZ-JKFIT
	 Reference Energy          =    -628.2243850869961079 [Eh]
	 Singles Energy            =      -0.0000000000000000 [Eh]
	 Same-Spin Energy          =      -0.6916127229338687 [Eh]
	 Opposite-Spin Energy      =      -2.1097590507245987 [Eh]
	 Correlation Energy        =      -2.8013717736584676 [Eh]
	 Total Energy              =    -631.0257568606546101 [Eh]

	 ================> DF-SCS-MP2 Energies <==================
	-----------------------------------------------------------
	 SCS Same-Spin Scale       =       0.3333333333333333 [-]
	 SCS Opposite-Spin Scale   =       1.2000000000000000 [-]
	 SCS Same-Spin Energy      =      -0.2305375743112895 [Eh]
	 SCS Opposite-Spin Energy  =      -2.5317108608695182 [Eh]
	 SCS Correlation Energy    =      -2.7622484351808079 [Eh]
	 SCS Total Energy          =    -630.9866335221769305 [Eh]
	-----------------------------------------------------------

  Dipole Moment: [D]
     X:     0.3484      Y:    -1.6357      Z:    -0.0975     Total:     1.6752

*** Psi4 exiting successfully. Buy a developer a beer!
