                               Psi4 1.4a2.dev612

  ==> Input File <==

--------------------------------------------------------------------------
#psi4
#
memory 32 gb

molecule  {
0 1
  O       -0.0417540     2.1858230    -0.3073980
  N        2.4805920     1.9330880     0.7500480
  C        1.1160800     0.1042180    -0.1414450
  C       -1.4416830     0.3069060    -0.0388060
  C       -0.1006150     0.9516510    -0.1728080
  C        2.3683100     0.6434780     0.2543940
  C        1.0541080    -1.2200940    -0.6155900
  C        3.4881200    -0.2081800     0.2578510
  C       -1.6559060    -0.7921710     0.8065690
  C       -2.5248970     0.8906690    -0.7109620
  C        2.1811870    -2.0318670    -0.6465910
  C        3.4033030    -1.5159070    -0.2032770
  C       -2.9440810    -1.3050920     0.9648860
  C       -3.8044560     0.3593180    -0.5664320
  C       -4.0170070    -0.7392060     0.2722830
  H        0.1024420    -1.6051810    -0.9713120
  H        4.4463530     0.1894450     0.5890330
  H       -0.8394298    -1.1615923     1.4313425
  H       -2.3449380     1.7597130    -1.3385060
  H        2.1152040    -3.0473210    -1.0273030
  H        4.2948280    -2.1392510    -0.2075020
  H       -3.1109310    -2.1478130     1.6315680
  H       -4.6398270     0.8046650    -1.1014830
  H       -5.0175780    -1.1483650     0.3907290
  H        1.7883890     2.5757360     0.3792320
  H        3.4241960     2.3021350     0.7487690
units angstrom
no_reorient  #important for SAPT in psi4, default
symmetry c1  #important for SAPT in psi4, default
}

set PROPERTIES_ORIGIN ["COM"]
properties('MP2/aug-cc-pvtz', properties = ['dipole'])
--------------------------------------------------------------------------

    Molecular point group: c1
  Charge       = 0
  Multiplicity = 1
  Basis Set: AUG-CC-PVTZ
    Blend: AUG-CC-PVTZ
  Basis Set: (AUG-CC-PVTZ AUX)
    Blend: AUG-CC-PVTZ-JKFIT

    Orbital Energies [Eh]
    ---------------------

    Doubly Occupied:

       1A    -20.541364     2A    -15.561845     3A    -11.341395
       4A    -11.298891     5A    -11.254334     6A    -11.253965
       7A    -11.253063     8A    -11.251516     9A    -11.250285
      10A    -11.248199    11A    -11.245954    12A    -11.244566
      13A    -11.240981    14A    -11.233353    15A    -11.229520
      16A     -1.374252    17A     -1.228459    18A     -1.164371
      19A     -1.138367    20A     -1.057350    21A     -1.026470
      22A     -1.021030    23A     -0.997562    24A     -0.893225
      25A     -0.849182    26A     -0.838410    27A     -0.819975
      28A     -0.770385    29A     -0.718112    30A     -0.701771
      31A     -0.688510    32A     -0.670182    33A     -0.647590
      34A     -0.634438    35A     -0.615604    36A     -0.611142
      37A     -0.604449    38A     -0.597187    39A     -0.587411
      40A     -0.554414    41A     -0.535565    42A     -0.525581
      43A     -0.520202    44A     -0.509836    45A     -0.503135
      46A     -0.490114    47A     -0.453875    48A     -0.421832
      49A     -0.352451    50A     -0.345971    51A     -0.344286
      52A     -0.301921

  @DF-RHF Final Energy:  -628.22537486745921

   => Energetics <=

    Nuclear Repulsion Energy =            893.1193923810878914
    One-Electron Energy =               -2625.5618372161188745
    Two-Electron Energy =                1104.2170699675718879
    Total Energy =                       -628.2253748674590952
  Basis Set: (AUG-CC-PVTZ AUX)
    Blend: AUG-CC-PVTZ-RI
    Molecular point group: c1

    Geometry (in Angstrom), charge = 0, multiplicity = 1:

       Center              X                  Y                   Z               Mass
    ------------   -----------------  -----------------  -----------------  -----------------
         O           -0.040526286756     2.166999744716    -0.305549596591    15.994914619570
         N            2.481819713244     1.914264744716     0.751896403409    14.003074004430
         C            1.117307713244     0.085394744716    -0.139596596591    12.000000000000
         C           -1.440455286756     0.288082744716    -0.036957596591    12.000000000000
         C           -0.099387286756     0.932827744716    -0.170959596591    12.000000000000
         C            2.369537713244     0.624654744716     0.256242403409    12.000000000000
         C            1.055335713244    -1.238917255284    -0.613741596591    12.000000000000
         C            3.489347713244    -0.227003255284     0.259699403409    12.000000000000
         C           -1.654678286756    -0.810994255284     0.808417403409    12.000000000000
         C           -2.523669286756     0.871845744716    -0.709113596591    12.000000000000
         C            2.182414713244    -2.050690255284    -0.644742596591    12.000000000000
         C            3.404530713244    -1.534730255284    -0.201428596591    12.000000000000
         C           -2.942853286756    -1.323915255284     0.966734403409    12.000000000000
         C           -3.803228286756     0.340494744716    -0.564583596591    12.000000000000
         C           -4.015779286756    -0.758029255284     0.274131403409    12.000000000000
         H            0.103669713244    -1.624004255284    -0.969463596591     1.007825032230
         H            4.447580713244     0.170621744716     0.590881403409     1.007825032230
         H           -0.838202086756    -1.180415555284     1.433190903409     1.007825032230
         H           -2.343710286756     1.740889744716    -1.336657596591     1.007825032230
         H            2.116431713244    -3.066144255284    -1.025454596591     1.007825032230
         H            4.296055713244    -2.158074255284    -0.205653596591     1.007825032230
         H           -3.109703286756    -2.166636255284     1.633416403409     1.007825032230
         H           -4.638599286756     0.785841744716    -1.099634596591     1.007825032230
         H           -5.016350286756    -1.167188255284     0.392577403409     1.007825032230
         H            1.789616713244     2.556912744716     0.381080403409     1.007825032230
         H            3.425423713244     2.283311744716     0.750617403409     1.007825032230

  Basis Set: AUG-CC-PVTZ
    Blend: AUG-CC-PVTZ
  Basis Set: (AUG-CC-PVTZ AUX)
    Blend: AUG-CC-PVTZ-JKFIT
	 Reference Energy          =    -628.2253748674592089 [Eh]
	 Singles Energy            =      -0.0000000000000000 [Eh]
	 Same-Spin Energy          =      -0.6915784193952866 [Eh]
	 Opposite-Spin Energy      =      -2.1096635070579954 [Eh]
	 Correlation Energy        =      -2.8012419264532822 [Eh]
	 Total Energy              =    -631.0266167939124671 [Eh]

	 ================> DF-SCS-MP2 Energies <==================
	-----------------------------------------------------------
	 SCS Same-Spin Scale       =       0.3333333333333333 [-]
	 SCS Opposite-Spin Scale   =       1.2000000000000000 [-]
	 SCS Same-Spin Energy      =      -0.2305261397984289 [Eh]
	 SCS Opposite-Spin Energy  =      -2.5315962084695944 [Eh]
	 SCS Correlation Energy    =      -2.7621223482680235 [Eh]
	 SCS Total Energy          =    -630.9874972157272168 [Eh]
	-----------------------------------------------------------

  Dipole Moment: [D]
     X:     0.3281      Y:    -1.6087      Z:    -0.0603     Total:     1.6429

*** Psi4 exiting successfully. Buy a developer a beer!
