                               Psi4 1.4a2.dev612

  ==> Input File <==

--------------------------------------------------------------------------
#psi4
#
memory 32 gb

molecule  {
0 1
  O       -0.0417540     2.1858230    -0.3073980
  N        2.4805920     1.9330880     0.7500480
  C        1.1160800     0.1042180    -0.1414450
  C       -1.4416830     0.3069060    -0.0388060
  C       -0.1006150     0.9516510    -0.1728080
  C        2.3683100     0.6434780     0.2543940
  C        1.0541080    -1.2200940    -0.6155900
  C        3.4881200    -0.2081800     0.2578510
  C       -1.6559060    -0.7921710     0.8065690
  C       -2.5248970     0.8906690    -0.7109620
  C        2.1811870    -2.0318670    -0.6465910
  C        3.4033030    -1.5159070    -0.2032770
  C       -2.9440810    -1.3050920     0.9648860
  C       -3.8044560     0.3593180    -0.5664320
  C       -4.0170070    -0.7392060     0.2722830
  H        0.1024420    -1.6051810    -0.9713120
  H        4.4463530     0.1894450     0.5890330
  H       -0.8722334    -1.0361868     1.5836494
  H       -2.3449380     1.7597130    -1.3385060
  H        2.1152040    -3.0473210    -1.0273030
  H        4.2948280    -2.1392510    -0.2075020
  H       -3.1109310    -2.1478130     1.6315680
  H       -4.6398270     0.8046650    -1.1014830
  H       -5.0175780    -1.1483650     0.3907290
  H        1.7883890     2.5757360     0.3792320
  H        3.4241960     2.3021350     0.7487690
units angstrom
no_reorient  #important for SAPT in psi4, default
symmetry c1  #important for SAPT in psi4, default
}

set PROPERTIES_ORIGIN ["COM"]
properties('MP2/aug-cc-pvtz', properties = ['dipole'])
--------------------------------------------------------------------------

    Molecular point group: c1
  Charge       = 0
  Multiplicity = 1
  Basis Set: AUG-CC-PVTZ
    Blend: AUG-CC-PVTZ
  Basis Set: (AUG-CC-PVTZ AUX)
    Blend: AUG-CC-PVTZ-JKFIT

    Orbital Energies [Eh]
    ---------------------

    Doubly Occupied:

       1A    -20.541172     2A    -15.561630     3A    -11.341128
       4A    -11.298518     5A    -11.256127     6A    -11.253888
       7A    -11.253355     8A    -11.251754     9A    -11.250919
      10A    -11.248612    11A    -11.246641    12A    -11.245359
      13A    -11.240538    14A    -11.232826    15A    -11.228793
      16A     -1.374121    17A     -1.228174    18A     -1.164499
      19A     -1.137868    20A     -1.057026    21A     -1.026409
      22A     -1.020498    23A     -0.997029    24A     -0.892919
      25A     -0.848655    26A     -0.836601    27A     -0.819779
      28A     -0.770019    29A     -0.717047    30A     -0.700081
      31A     -0.688167    32A     -0.669178    33A     -0.646532
      34A     -0.634126    35A     -0.614941    36A     -0.610834
      37A     -0.603909    38A     -0.595320    39A     -0.587020
      40A     -0.553211    41A     -0.535117    42A     -0.523131
      43A     -0.521493    44A     -0.510423    45A     -0.503032
      46A     -0.487499    47A     -0.453411    48A     -0.421602
      49A     -0.352992    50A     -0.345823    51A     -0.343048
      52A     -0.301482

  @DF-RHF Final Energy:  -628.21931464849490

   => Energetics <=

    Nuclear Repulsion Energy =            892.8461986837986615
    One-Electron Energy =               -2625.0424776131753788
    Two-Electron Energy =                1103.9769642808817025
    Total Energy =                       -628.2193146484949011
  Basis Set: (AUG-CC-PVTZ AUX)
    Blend: AUG-CC-PVTZ-RI
    Molecular point group: c1

    Geometry (in Angstrom), charge = 0, multiplicity = 1:

       Center              X                  Y                   Z               Mass
    ------------   -----------------  -----------------  -----------------  -----------------
         O           -0.040358539610     2.166358460994    -0.306328445491    15.994914619570
         N            2.481987460390     1.913623460994     0.751117554509    14.003074004430
         C            1.117475460390     0.084753460994    -0.140375445491    12.000000000000
         C           -1.440287539610     0.287441460994    -0.037736445491    12.000000000000
         C           -0.099219539610     0.932186460994    -0.171738445491    12.000000000000
         C            2.369705460390     0.624013460994     0.255463554509    12.000000000000
         C            1.055503460390    -1.239558539006    -0.614520445491    12.000000000000
         C            3.489515460390    -0.227644539006     0.258920554509    12.000000000000
         C           -1.654510539610    -0.811635539006     0.807638554509    12.000000000000
         C           -2.523501539610     0.871204460994    -0.709892445491    12.000000000000
         C            2.182582460390    -2.051331539006    -0.645521445491    12.000000000000
         C            3.404698460390    -1.535371539006    -0.202207445491    12.000000000000
         C           -2.942685539610    -1.324556539006     0.965955554509    12.000000000000
         C           -3.803060539610     0.339853460994    -0.565362445491    12.000000000000
         C           -4.015611539610    -0.758670539006     0.273352554509    12.000000000000
         H            0.103837460390    -1.624645539006    -0.970242445491     1.007825032230
         H            4.447748460390     0.169980460994     0.590102554509     1.007825032230
         H           -0.870837939610    -1.055651339006     1.584718954509     1.007825032230
         H           -2.343542539610     1.740248460994    -1.337436445491     1.007825032230
         H            2.116599460390    -3.066785539006    -1.026233445491     1.007825032230
         H            4.296223460390    -2.158715539006    -0.206432445491     1.007825032230
         H           -3.109535539610    -2.167277539006     1.632637554509     1.007825032230
         H           -4.638431539610     0.785200460994    -1.100413445491     1.007825032230
         H           -5.016182539610    -1.167829539006     0.391798554509     1.007825032230
         H            1.789784460390     2.556271460994     0.380301554509     1.007825032230
         H            3.425591460390     2.282670460994     0.749838554509     1.007825032230

  Basis Set: AUG-CC-PVTZ
    Blend: AUG-CC-PVTZ
  Basis Set: (AUG-CC-PVTZ AUX)
    Blend: AUG-CC-PVTZ-JKFIT
	 Reference Energy          =    -628.2193146484949011 [Eh]
	 Singles Energy            =      -0.0000000000000000 [Eh]
	 Same-Spin Energy          =      -0.6918994128283870 [Eh]
	 Opposite-Spin Energy      =      -2.1104920788998793 [Eh]
	 Correlation Energy        =      -2.8023914917282662 [Eh]
	 Total Energy              =    -631.0217061402231593 [Eh]

	 ================> DF-SCS-MP2 Energies <==================
	-----------------------------------------------------------
	 SCS Same-Spin Scale       =       0.3333333333333333 [-]
	 SCS Opposite-Spin Scale   =       1.2000000000000000 [-]
	 SCS Same-Spin Energy      =      -0.2306331376094623 [Eh]
	 SCS Opposite-Spin Energy  =      -2.5325904946798552 [Eh]
	 SCS Correlation Energy    =      -2.7632236322893173 [Eh]
	 SCS Total Energy          =    -630.9825382807841834 [Eh]
	-----------------------------------------------------------

  Dipole Moment: [D]
     X:     0.2491      Y:    -1.5387      Z:     0.0016     Total:     1.5588

*** Psi4 exiting successfully. Buy a developer a beer!
