                               Psi4 1.4a2.dev612

  ==> Input File <==

--------------------------------------------------------------------------
#psi4
#
memory 32 gb

molecule  {
0 1
  O       -0.0417540     2.1858230    -0.3073980
  N        2.4805920     1.9330880     0.7500480
  C        1.1160800     0.1042180    -0.1414450
  C       -1.4416830     0.3069060    -0.0388060
  C       -0.1006150     0.9516510    -0.1728080
  C        2.3683100     0.6434780     0.2543940
  C        1.0541080    -1.2200940    -0.6155900
  C        3.4289759    -0.3002187     0.5371910
  C       -1.6559060    -0.7921710     0.8065690
  C       -2.5248970     0.8906690    -0.7109620
  C        2.1811870    -2.0318670    -0.6465910
  C        3.4033030    -1.5159070    -0.2032770
  C       -2.9440810    -1.3050920     0.9648860
  C       -3.8044560     0.3593180    -0.5664320
  C       -4.0170070    -0.7392060     0.2722830
  H        0.1024420    -1.6051810    -0.9713120
  H        4.4463530     0.1894450     0.5890330
  H       -0.8230280    -1.2242950     1.3551890
  H       -2.3449380     1.7597130    -1.3385060
  H        2.1152040    -3.0473210    -1.0273030
  H        4.2948280    -2.1392510    -0.2075020
  H       -3.1109310    -2.1478130     1.6315680
  H       -4.6398270     0.8046650    -1.1014830
  H       -5.0175780    -1.1483650     0.3907290
  H        1.7883890     2.5757360     0.3792320
  H        3.4241960     2.3021350     0.7487690
units angstrom
no_reorient  #important for SAPT in psi4, default
symmetry c1  #important for SAPT in psi4, default
}

set PROPERTIES_ORIGIN ["COM"]
properties('MP2/aug-cc-pvtz', properties = ['dipole'])
--------------------------------------------------------------------------

    Molecular point group: c1
  Charge       = 0
  Multiplicity = 1
  Basis Set: AUG-CC-PVTZ
    Blend: AUG-CC-PVTZ
  Basis Set: (AUG-CC-PVTZ AUX)
    Blend: AUG-CC-PVTZ-JKFIT

    Orbital Energies [Eh]
    ---------------------

    Doubly Occupied:

       1A    -20.541087     2A    -15.566176     3A    -11.341627
       4A    -11.307393     5A    -11.261636     6A    -11.258914
       7A    -11.253070     8A    -11.251858     9A    -11.250758
      10A    -11.248590    11A    -11.246267    12A    -11.244884
      13A    -11.241476    14A    -11.240579    15A    -11.229474
      16A     -1.374369    17A     -1.229420    18A     -1.164840
      19A     -1.137897    20A     -1.056170    21A     -1.026606
      22A     -1.019953    23A     -0.995105    24A     -0.892082
      25A     -0.847769    26A     -0.838930    27A     -0.818072
      28A     -0.769264    29A     -0.716482    30A     -0.702795
      31A     -0.689226    32A     -0.669233    33A     -0.647828
      34A     -0.633123    35A     -0.616861    36A     -0.611994
      37A     -0.598538    38A     -0.591161    39A     -0.581925
      40A     -0.557717    41A     -0.530184    42A     -0.525557
      43A     -0.520246    44A     -0.505490    45A     -0.502617
      46A     -0.488524    47A     -0.454700    48A     -0.420431
      49A     -0.351732    50A     -0.346709    51A     -0.344893
      52A     -0.302581

  @DF-RHF Final Energy:  -628.19699678282086

   => Energetics <=

    Nuclear Repulsion Energy =            892.1656893595283009
    One-Electron Energy =               -2623.5957477122055934
    Two-Electron Energy =                1103.2330615698565452
    Total Energy =                       -628.1969967828208610
  Basis Set: (AUG-CC-PVTZ AUX)
    Blend: AUG-CC-PVTZ-RI
    Molecular point group: c1

    Geometry (in Angstrom), charge = 0, multiplicity = 1:

       Center              X                  Y                   Z               Mass
    ------------   -----------------  -----------------  -----------------  -----------------
         O           -0.037009010720     2.172924413241    -0.322168548577    15.994914619570
         N            2.485336989280     1.920189413241     0.735277451423    14.003074004430
         C            1.120824989280     0.091319413241    -0.156215548577    12.000000000000
         C           -1.436938010720     0.294007413241    -0.053576548577    12.000000000000
         C           -0.095870010720     0.938752413241    -0.187578548577    12.000000000000
         C            2.373054989280     0.630579413241     0.239623451423    12.000000000000
         C            1.058852989280    -1.232992586759    -0.630360548577    12.000000000000
         C            3.433720889280    -0.313117286759     0.522420451423    12.000000000000
         C           -1.651161010720    -0.805069586759     0.791798451423    12.000000000000
         C           -2.520152010720     0.877770413241    -0.725732548577    12.000000000000
         C            2.185931989280    -2.044765586759    -0.661361548577    12.000000000000
         C            3.408047989280    -1.528805586759    -0.218047548577    12.000000000000
         C           -2.939336010720    -1.317990586759     0.950115451423    12.000000000000
         C           -3.799711010720     0.346419413241    -0.581202548577    12.000000000000
         C           -4.012262010720    -0.752104586759     0.257512451423    12.000000000000
         H            0.107186989280    -1.618079586759    -0.986082548577     1.007825032230
         H            4.451097989280     0.176546413241     0.574262451423     1.007825032230
         H           -0.818283010720    -1.237193586759     1.340418451423     1.007825032230
         H           -2.340193010720     1.746814413241    -1.353276548577     1.007825032230
         H            2.119948989280    -3.060219586759    -1.042073548577     1.007825032230
         H            4.299572989280    -2.152149586759    -0.222272548577     1.007825032230
         H           -3.106186010720    -2.160711586759     1.616797451423     1.007825032230
         H           -4.635082010720     0.791766413241    -1.116253548577     1.007825032230
         H           -5.012833010720    -1.161263586759     0.375958451423     1.007825032230
         H            1.793133989280     2.562837413241     0.364461451423     1.007825032230
         H            3.428940989280     2.289236413241     0.733998451423     1.007825032230

  Basis Set: AUG-CC-PVTZ
    Blend: AUG-CC-PVTZ
  Basis Set: (AUG-CC-PVTZ AUX)
    Blend: AUG-CC-PVTZ-JKFIT
	 Reference Energy          =    -628.1969967828208610 [Eh]
	 Singles Energy            =      -0.0000000000000000 [Eh]
	 Same-Spin Energy          =      -0.6925209173565747 [Eh]
	 Opposite-Spin Energy      =      -2.1133112439294774 [Eh]
	 Correlation Energy        =      -2.8058321612860522 [Eh]
	 Total Energy              =    -631.0028289441069091 [Eh]

	 ================> DF-SCS-MP2 Energies <==================
	-----------------------------------------------------------
	 SCS Same-Spin Scale       =       0.3333333333333333 [-]
	 SCS Opposite-Spin Scale   =       1.2000000000000000 [-]
	 SCS Same-Spin Energy      =      -0.2308403057855249 [Eh]
	 SCS Opposite-Spin Energy  =      -2.5359734927153728 [Eh]
	 SCS Correlation Energy    =      -2.7668137985008978 [Eh]
	 SCS Total Energy          =    -630.9638105813218090 [Eh]
	-----------------------------------------------------------

  Dipole Moment: [D]
     X:     0.2045      Y:    -1.5369      Z:    -0.3081     Total:     1.5808

*** Psi4 exiting successfully. Buy a developer a beer!
