                               Psi4 1.4a2.dev612

  ==> Input File <==

--------------------------------------------------------------------------
#psi4
#
memory 32 gb

molecule  {
0 1
  O       -0.0417540     2.1858230    -0.3073980
  N        2.4805920     1.9330880     0.7500480
  C        1.1160800     0.1042180    -0.1414450
  C       -1.4416830     0.3069060    -0.0388060
  C       -0.1006150     0.9516510    -0.1728080
  C        2.3683100     0.6434780     0.2543940
  C        1.1037626    -1.1460715    -0.8491603
  C        3.4881200    -0.2081800     0.2578510
  C       -1.6559060    -0.7921710     0.8065690
  C       -2.5248970     0.8906690    -0.7109620
  C        2.1811870    -2.0318670    -0.6465910
  C        3.4033030    -1.5159070    -0.2032770
  C       -2.9440810    -1.3050920     0.9648860
  C       -3.8044560     0.3593180    -0.5664320
  C       -4.0170070    -0.7392060     0.2722830
  H        0.1024420    -1.6051810    -0.9713120
  H        4.4463530     0.1894450     0.5890330
  H       -0.8230280    -1.2242950     1.3551890
  H       -2.3449380     1.7597130    -1.3385060
  H        2.1152040    -3.0473210    -1.0273030
  H        4.2948280    -2.1392510    -0.2075020
  H       -3.1109310    -2.1478130     1.6315680
  H       -4.6398270     0.8046650    -1.1014830
  H       -5.0175780    -1.1483650     0.3907290
  H        1.7883890     2.5757360     0.3792320
  H        3.4241960     2.3021350     0.7487690
units angstrom
no_reorient  #important for SAPT in psi4, default
symmetry c1  #important for SAPT in psi4, default
}

set PROPERTIES_ORIGIN ["COM"]
properties('MP2/aug-cc-pvtz', properties = ['dipole'])
--------------------------------------------------------------------------

    Molecular point group: c1
  Charge       = 0
  Multiplicity = 1
  Basis Set: AUG-CC-PVTZ
    Blend: AUG-CC-PVTZ
  Basis Set: (AUG-CC-PVTZ AUX)
    Blend: AUG-CC-PVTZ-JKFIT

    Orbital Energies [Eh]
    ---------------------

    Doubly Occupied:

       1A    -20.543840     2A    -15.561015     3A    -11.342419
       4A    -11.297696     5A    -11.259059     6A    -11.253205
       7A    -11.253195     8A    -11.251844     9A    -11.250716
      10A    -11.248418    11A    -11.246354    12A    -11.244868
      13A    -11.244753    14A    -11.236048    15A    -11.234830
      16A     -1.375927    17A     -1.227877    18A     -1.164475
      19A     -1.135129    20A     -1.056363    21A     -1.026515
      22A     -1.020312    23A     -0.996045    24A     -0.893148
      25A     -0.849001    26A     -0.837956    27A     -0.818442
      28A     -0.769919    29A     -0.716933    30A     -0.699658
      31A     -0.685437    32A     -0.670996    33A     -0.648162
      34A     -0.634586    35A     -0.615712    36A     -0.611385
      37A     -0.599124    38A     -0.595857    39A     -0.585820
      40A     -0.554411    41A     -0.535272    42A     -0.526738
      43A     -0.517030    44A     -0.505807    45A     -0.502541
      46A     -0.490193    47A     -0.452259    48A     -0.423025
      49A     -0.351491    50A     -0.345508    51A     -0.344791
      52A     -0.300481

  @DF-RHF Final Energy:  -628.20419328125843

   => Energetics <=

    Nuclear Repulsion Energy =            891.8061698616864987
    One-Electron Energy =               -2622.9155516612986503
    Two-Electron Energy =                1102.9051885183534978
    Total Energy =                       -628.2041932812585401
  Basis Set: (AUG-CC-PVTZ AUX)
    Blend: AUG-CC-PVTZ-RI
    Molecular point group: c1

    Geometry (in Angstrom), charge = 0, multiplicity = 1:

       Center              X                  Y                   Z               Mass
    ------------   -----------------  -----------------  -----------------  -----------------
         O           -0.043633515886     2.162813324806    -0.290938608034    15.994914619570
         N            2.478712484114     1.910078324806     0.766507391966    14.003074004430
         C            1.114200484114     0.081208324806    -0.124985608034    12.000000000000
         C           -1.443562515886     0.283896324806    -0.022346608034    12.000000000000
         C           -0.102494515886     0.928641324806    -0.156348608034    12.000000000000
         C            2.366430484114     0.620468324806     0.270853391966    12.000000000000
         C            1.101883084114    -1.169081175194    -0.832700908034    12.000000000000
         C            3.486240484114    -0.231189675194     0.274310391966    12.000000000000
         C           -1.657785515886    -0.815180675194     0.823028391966    12.000000000000
         C           -2.526776515886     0.867659324806    -0.694502608034    12.000000000000
         C            2.179307484114    -2.054876675194    -0.630131608034    12.000000000000
         C            3.401423484114    -1.538916675194    -0.186817608034    12.000000000000
         C           -2.945960515886    -1.328101675194     0.981345391966    12.000000000000
         C           -3.806335515886     0.336308324806    -0.549972608034    12.000000000000
         C           -4.018886515886    -0.762215675194     0.288742391966    12.000000000000
         H            0.100562484114    -1.628190675194    -0.954852608034     1.007825032230
         H            4.444473484114     0.166435324806     0.605492391966     1.007825032230
         H           -0.824907515886    -1.247304675194     1.371648391966     1.007825032230
         H           -2.346817515886     1.736703324806    -1.322046608034     1.007825032230
         H            2.113324484114    -3.070330675194    -1.010843608034     1.007825032230
         H            4.292948484114    -2.162260675194    -0.191042608034     1.007825032230
         H           -3.112810515886    -2.170822675194     1.648027391966     1.007825032230
         H           -4.641706515886     0.781655324806    -1.085023608034     1.007825032230
         H           -5.019457515886    -1.171374675194     0.407188391966     1.007825032230
         H            1.786509484114     2.552726324806     0.395691391966     1.007825032230
         H            3.422316484114     2.279125324806     0.765228391966     1.007825032230

  Basis Set: AUG-CC-PVTZ
    Blend: AUG-CC-PVTZ
  Basis Set: (AUG-CC-PVTZ AUX)
    Blend: AUG-CC-PVTZ-JKFIT
	 Reference Energy          =    -628.2041932812584264 [Eh]
	 Singles Energy            =      -0.0000000000000000 [Eh]
	 Same-Spin Energy          =      -0.6926802862594006 [Eh]
	 Opposite-Spin Energy      =      -2.1131006550136560 [Eh]
	 Correlation Energy        =      -2.8057809412730563 [Eh]
	 Total Energy              =    -631.0099742225314685 [Eh]

	 ================> DF-SCS-MP2 Energies <==================
	-----------------------------------------------------------
	 SCS Same-Spin Scale       =       0.3333333333333333 [-]
	 SCS Opposite-Spin Scale   =       1.2000000000000000 [-]
	 SCS Same-Spin Energy      =      -0.2308934287531335 [Eh]
	 SCS Opposite-Spin Energy  =      -2.5357207860163871 [Eh]
	 SCS Correlation Energy    =      -2.7666142147695205 [Eh]
	 SCS Total Energy          =    -630.9708074960279873 [Eh]
	-----------------------------------------------------------

  Dipole Moment: [D]
     X:     0.2945      Y:    -1.5760      Z:     0.0713     Total:     1.6049

*** Psi4 exiting successfully. Buy a developer a beer!
