                               Psi4 1.4a2.dev612

  ==> Input File <==

--------------------------------------------------------------------------
#psi4
#
memory 32 gb

molecule  {
0 1
  O       -0.0417540     2.1858230    -0.3073980
  N        2.4805920     1.9330880     0.7500480
  C        1.1160800     0.1042180    -0.1414450
  C       -1.4416830     0.3069060    -0.0388060
  C       -0.1006150     0.9516510    -0.1728080
  C        2.3683100     0.6434780     0.2543940
  C        1.0541080    -1.2200940    -0.6155900
  C        3.4881200    -0.2081800     0.2578510
  C       -1.6559060    -0.7921710     0.8065690
  C       -2.5061626     0.8303974    -0.7885272
  C        2.1811870    -2.0318670    -0.6465910
  C        3.4033030    -1.5159070    -0.2032770
  C       -2.9440810    -1.3050920     0.9648860
  C       -3.8044560     0.3593180    -0.5664320
  C       -4.0170070    -0.7392060     0.2722830
  H        0.1024420    -1.6051810    -0.9713120
  H        4.4463530     0.1894450     0.5890330
  H       -0.8230280    -1.2242950     1.3551890
  H       -2.3449380     1.7597130    -1.3385060
  H        2.1152040    -3.0473210    -1.0273030
  H        4.2948280    -2.1392510    -0.2075020
  H       -3.1109310    -2.1478130     1.6315680
  H       -4.6398270     0.8046650    -1.1014830
  H       -5.0175780    -1.1483650     0.3907290
  H        1.7883890     2.5757360     0.3792320
  H        3.4241960     2.3021350     0.7487690
units angstrom
no_reorient  #important for SAPT in psi4, default
symmetry c1  #important for SAPT in psi4, default
}

set PROPERTIES_ORIGIN ["COM"]
properties('MP2/aug-cc-pvtz', properties = ['dipole'])
--------------------------------------------------------------------------

    Molecular point group: c1
  Charge       = 0
  Multiplicity = 1
  Basis Set: AUG-CC-PVTZ
    Blend: AUG-CC-PVTZ
  Basis Set: (AUG-CC-PVTZ AUX)
    Blend: AUG-CC-PVTZ-JKFIT

    Orbital Energies [Eh]
    ---------------------

    Doubly Occupied:

       1A    -20.542510     2A    -15.562116     3A    -11.341996
       4A    -11.299183     5A    -11.254629     6A    -11.254289
       7A    -11.252256     8A    -11.250991     9A    -11.250885
      10A    -11.248614    11A    -11.246506    12A    -11.245703
      13A    -11.241282    14A    -11.233670    15A    -11.229923
      16A     -1.374978    17A     -1.228743    18A     -1.163977
      19A     -1.138650    20A     -1.057673    21A     -1.026026
      22A     -1.020853    23A     -0.997898    24A     -0.893364
      25A     -0.849125    26A     -0.838754    27A     -0.820036
      28A     -0.770388    29A     -0.718075    30A     -0.702103
      31A     -0.688826    32A     -0.670401    33A     -0.647767
      34A     -0.634320    35A     -0.615942    36A     -0.611855
      37A     -0.605127    38A     -0.595862    39A     -0.587825
      40A     -0.554568    41A     -0.536076    42A     -0.526102
      43A     -0.520127    44A     -0.510245    45A     -0.500733
      46A     -0.490659    47A     -0.454158    48A     -0.422203
      49A     -0.352166    50A     -0.346022    51A     -0.344551
      52A     -0.302276

  @DF-RHF Final Energy:  -628.22287512574087

   => Energetics <=

    Nuclear Repulsion Energy =            893.1389673114995276
    One-Electron Energy =               -2625.5776692867912061
    Two-Electron Energy =                1104.2158268495509219
    Total Energy =                       -628.2228751257407566
  Basis Set: (AUG-CC-PVTZ AUX)
    Blend: AUG-CC-PVTZ-RI
    Molecular point group: c1

    Geometry (in Angstrom), charge = 0, multiplicity = 1:

       Center              X                  Y                   Z               Mass
    ------------   -----------------  -----------------  -----------------  -----------------
         O           -0.041750855297     2.170990186839    -0.300437403432    15.994914619570
         N            2.480595144703     1.918255186839     0.757008596568    14.003074004430
         C            1.116083144703     0.089385186839    -0.134484403432    12.000000000000
         C           -1.441679855297     0.292073186839    -0.031845403432    12.000000000000
         C           -0.100611855297     0.936818186839    -0.165847403432    12.000000000000
         C            2.368313144703     0.628645186839     0.261354596568    12.000000000000
         C            1.054111144703    -1.234926813161    -0.608629403432    12.000000000000
         C            3.488123144703    -0.223012813161     0.264811596568    12.000000000000
         C           -1.655902855297    -0.807003813161     0.813529596568    12.000000000000
         C           -2.506159455297     0.815564586839    -0.781566603432    12.000000000000
         C            2.181190144703    -2.046699813161    -0.639630403432    12.000000000000
         C            3.403306144703    -1.530739813161    -0.196316403432    12.000000000000
         C           -2.944077855297    -1.319924813161     0.971846596568    12.000000000000
         C           -3.804452855297     0.344485186839    -0.559471403432    12.000000000000
         C           -4.017003855297    -0.754038813161     0.279243596568    12.000000000000
         H            0.102445144703    -1.620013813161    -0.964351403432     1.007825032230
         H            4.446356144703     0.174612186839     0.595993596568     1.007825032230
         H           -0.823024855297    -1.239127813161     1.362149596568     1.007825032230
         H           -2.344934855297     1.744880186839    -1.331545403432     1.007825032230
         H            2.115207144703    -3.062153813161    -1.020342403432     1.007825032230
         H            4.294831144703    -2.154083813161    -0.200541403432     1.007825032230
         H           -3.110927855297    -2.162645813161     1.638528596568     1.007825032230
         H           -4.639823855297     0.789832186839    -1.094522403432     1.007825032230
         H           -5.017574855297    -1.163197813161     0.397689596568     1.007825032230
         H            1.788392144703     2.560903186839     0.386192596568     1.007825032230
         H            3.424199144703     2.287302186839     0.755729596568     1.007825032230

  Basis Set: AUG-CC-PVTZ
    Blend: AUG-CC-PVTZ
  Basis Set: (AUG-CC-PVTZ AUX)
    Blend: AUG-CC-PVTZ-JKFIT
	 Reference Energy          =    -628.2228751257408703 [Eh]
	 Singles Energy            =      -0.0000000000000000 [Eh]
	 Same-Spin Energy          =      -0.6917374188377614 [Eh]
	 Opposite-Spin Energy      =      -2.1101724587930812 [Eh]
	 Correlation Energy        =      -2.8019098776308429 [Eh]
	 Total Energy              =    -631.0247850033716759 [Eh]

	 ================> DF-SCS-MP2 Energies <==================
	-----------------------------------------------------------
	 SCS Same-Spin Scale       =       0.3333333333333333 [-]
	 SCS Opposite-Spin Scale   =       1.2000000000000000 [-]
	 SCS Same-Spin Energy      =      -0.2305791396125871 [Eh]
	 SCS Opposite-Spin Energy  =      -2.5322069505516973 [Eh]
	 SCS Correlation Energy    =      -2.7627860901642842 [Eh]
	 SCS Total Energy          =    -630.9856612159051110 [Eh]
	-----------------------------------------------------------

  Dipole Moment: [D]
     X:     0.3738      Y:    -1.6184      Z:    -0.0525     Total:     1.6618

*** Psi4 exiting successfully. Buy a developer a beer!
