                               Psi4 1.4a2.dev612

  ==> Input File <==

--------------------------------------------------------------------------
#psi4
#
memory 32 gb

molecule  {
0 1
  O       -0.0417540     2.1858230    -0.3073980
  N        2.4805920     1.9330880     0.7500480
  C        1.1160800     0.1042180    -0.1414450
  C       -1.4416830     0.3069060    -0.0388060
  C       -0.1006150     0.9516510    -0.1728080
  C        2.3683100     0.6434780     0.2543940
  C        1.0541080    -1.2200940    -0.6155900
  C        3.4388333    -0.2848790     0.4906344
  C       -1.6559060    -0.7921710     0.8065690
  C       -2.5248970     0.8906690    -0.7109620
  C        2.1811870    -2.0318670    -0.6465910
  C        3.4033030    -1.5159070    -0.2032770
  C       -2.9440810    -1.3050920     0.9648860
  C       -3.8044560     0.3593180    -0.5664320
  C       -4.0170070    -0.7392060     0.2722830
  H        0.1024420    -1.6051810    -0.9713120
  H        4.4463530     0.1894450     0.5890330
  H       -0.8230280    -1.2242950     1.3551890
  H       -2.3449380     1.7597130    -1.3385060
  H        2.1152040    -3.0473210    -1.0273030
  H        4.2948280    -2.1392510    -0.2075020
  H       -3.1109310    -2.1478130     1.6315680
  H       -4.6398270     0.8046650    -1.1014830
  H       -5.0175780    -1.1483650     0.3907290
  H        1.7883890     2.5757360     0.3792320
  H        3.4241960     2.3021350     0.7487690
units angstrom
no_reorient  #important for SAPT in psi4, default
symmetry c1  #important for SAPT in psi4, default
}

set PROPERTIES_ORIGIN ["COM"]
properties('MP2/aug-cc-pvtz', properties = ['dipole'])
--------------------------------------------------------------------------

    Molecular point group: c1
  Charge       = 0
  Multiplicity = 1
  Basis Set: AUG-CC-PVTZ
    Blend: AUG-CC-PVTZ
  Basis Set: (AUG-CC-PVTZ AUX)
    Blend: AUG-CC-PVTZ-JKFIT

    Orbital Energies [Eh]
    ---------------------

    Doubly Occupied:

       1A    -20.541114     2A    -15.565123     3A    -11.341534
       4A    -11.305192     5A    -11.259592     6A    -11.257429
       7A    -11.252901     8A    -11.251717     9A    -11.250576
      10A    -11.248429    11A    -11.246110    12A    -11.244726
      13A    -11.241345    14A    -11.238689    15A    -11.229476
      16A     -1.374302    17A     -1.229222    18A     -1.164671
      19A     -1.138045    20A     -1.056493    21A     -1.026529
      22A     -1.020261    23A     -0.995942    24A     -0.892347
      25A     -0.848130    26A     -0.838891    27A     -0.818627
      28A     -0.769561    29A     -0.716864    30A     -0.702566
      31A     -0.689072    32A     -0.669456    33A     -0.647779
      34A     -0.633446    35A     -0.616567    36A     -0.611752
      37A     -0.598711    38A     -0.593587    39A     -0.583549
      40A     -0.557383    41A     -0.531593    42A     -0.525615
      43A     -0.520401    44A     -0.506933    45A     -0.502506
      46A     -0.489233    47A     -0.454943    48A     -0.420752
      49A     -0.351747    50A     -0.346573    51A     -0.344761
      52A     -0.302258

  @DF-RHF Final Energy:  -628.20556036592177

   => Energetics <=

    Nuclear Repulsion Energy =            892.4726404497556587
    One-Electron Energy =               -2624.2263582083110123
    Two-Electron Energy =                1103.5481573926335841
    Total Energy =                       -628.2055603659218832
  Basis Set: (AUG-CC-PVTZ AUX)
    Blend: AUG-CC-PVTZ-RI
    Molecular point group: c1

    Geometry (in Angstrom), charge = 0, multiplicity = 1:

       Center              X                  Y                   Z               Mass
    ------------   -----------------  -----------------  -----------------  -----------------
         O           -0.037609205366     2.171990413828    -0.319333823187    15.994914619570
         N            2.484736794634     1.919255413828     0.738112176813    14.003074004430
         C            1.120224794634     0.090385413828    -0.153380823187    12.000000000000
         C           -1.437538205366     0.293073413828    -0.050741823187    12.000000000000
         C           -0.096470205366     0.937818413828    -0.184743823187    12.000000000000
         C            2.372454794634     0.629645413828     0.242458176813    12.000000000000
         C            1.058252794634    -1.233926586172    -0.627525823187    12.000000000000
         C            3.442978094634    -0.298711586172     0.478698576813    12.000000000000
         C           -1.651761205366    -0.806003586172     0.794633176813    12.000000000000
         C           -2.520752205366     0.876836413828    -0.722897823187    12.000000000000
         C            2.185331794634    -2.045699586172    -0.658526823187    12.000000000000
         C            3.407447794634    -1.529739586172    -0.215212823187    12.000000000000
         C           -2.939936205366    -1.318924586172     0.952950176813    12.000000000000
         C           -3.800311205366     0.345485413828    -0.578367823187    12.000000000000
         C           -4.012862205366    -0.753038586172     0.260347176813    12.000000000000
         H            0.106586794634    -1.619013586172    -0.983247823187     1.007825032230
         H            4.450497794634     0.175612413828     0.577097176813     1.007825032230
         H           -0.818883205366    -1.238127586172     1.343253176813     1.007825032230
         H           -2.340793205366     1.745880413828    -1.350441823187     1.007825032230
         H            2.119348794634    -3.061153586172    -1.039238823187     1.007825032230
         H            4.298972794634    -2.153083586172    -0.219437823187     1.007825032230
         H           -3.106786205366    -2.161645586172     1.619632176813     1.007825032230
         H           -4.635682205366     0.790832413828    -1.113418823187     1.007825032230
         H           -5.013433205366    -1.162197586172     0.378793176813     1.007825032230
         H            1.792533794634     2.561903413828     0.367296176813     1.007825032230
         H            3.428340794634     2.288302413828     0.736833176813     1.007825032230

  Basis Set: AUG-CC-PVTZ
    Blend: AUG-CC-PVTZ
  Basis Set: (AUG-CC-PVTZ AUX)
    Blend: AUG-CC-PVTZ-JKFIT
	 Reference Energy          =    -628.2055603659217695 [Eh]
	 Singles Energy            =      -0.0000000000000000 [Eh]
	 Same-Spin Energy          =      -0.6922606786336695 [Eh]
	 Opposite-Spin Energy      =      -2.1122552261316634 [Eh]
	 Correlation Energy        =      -2.8045159047653327 [Eh]
	 Total Energy              =    -631.0100762706871365 [Eh]

	 ================> DF-SCS-MP2 Energies <==================
	-----------------------------------------------------------
	 SCS Same-Spin Scale       =       0.3333333333333333 [-]
	 SCS Opposite-Spin Scale   =       1.2000000000000000 [-]
	 SCS Same-Spin Energy      =      -0.2307535595445565 [Eh]
	 SCS Opposite-Spin Energy  =      -2.5347062713579960 [Eh]
	 SCS Correlation Energy    =      -2.7654598309025524 [Eh]
	 SCS Total Energy          =    -630.9710201968242700 [Eh]
	-----------------------------------------------------------

  Dipole Moment: [D]
     X:     0.2571      Y:    -1.5549      Z:    -0.2657     Total:     1.5983

*** Psi4 exiting successfully. Buy a developer a beer!
