                               Psi4 1.4a2.dev612

  ==> Input File <==

--------------------------------------------------------------------------
#psi4
#
memory 32 gb

molecule  {
0 1
  O       -0.0417540     2.1858230    -0.3073980
  N        2.4805920     1.9330880     0.7500480
  C        1.1160800     0.1042180    -0.1414450
  C       -1.4416830     0.3069060    -0.0388060
  C       -0.1006150     0.9516510    -0.1728080
  C        2.3683100     0.6434780     0.2543940
  C        1.0541080    -1.2200940    -0.6155900
  C        3.4881200    -0.2081800     0.2578510
  C       -1.6559060    -0.7921710     0.8065690
  C       -2.4780610     0.7399899    -0.9048749
  C        2.1811870    -2.0318670    -0.6465910
  C        3.4033030    -1.5159070    -0.2032770
  C       -2.9440810    -1.3050920     0.9648860
  C       -3.8044560     0.3593180    -0.5664320
  C       -4.0170070    -0.7392060     0.2722830
  H        0.1024420    -1.6051810    -0.9713120
  H        4.4463530     0.1894450     0.5890330
  H       -0.8230280    -1.2242950     1.3551890
  H       -2.3449380     1.7597130    -1.3385060
  H        2.1152040    -3.0473210    -1.0273030
  H        4.2948280    -2.1392510    -0.2075020
  H       -3.1109310    -2.1478130     1.6315680
  H       -4.6398270     0.8046650    -1.1014830
  H       -5.0175780    -1.1483650     0.3907290
  H        1.7883890     2.5757360     0.3792320
  H        3.4241960     2.3021350     0.7487690
units angstrom
no_reorient  #important for SAPT in psi4, default
symmetry c1  #important for SAPT in psi4, default
}

set PROPERTIES_ORIGIN ["COM"]
properties('MP2/aug-cc-pvtz', properties = ['dipole'])
--------------------------------------------------------------------------

    Molecular point group: c1
  Charge       = 0
  Multiplicity = 1
  Basis Set: AUG-CC-PVTZ
    Blend: AUG-CC-PVTZ
  Basis Set: (AUG-CC-PVTZ AUX)
    Blend: AUG-CC-PVTZ-JKFIT

    Orbital Energies [Eh]
    ---------------------

    Doubly Occupied:

       1A    -20.544294     2A    -15.562479     3A    -11.342808
       4A    -11.299498     5A    -11.255836     6A    -11.254865
       7A    -11.254449     8A    -11.252382     9A    -11.251052
      10A    -11.250821    11A    -11.249695    12A    -11.248664
      13A    -11.241574    14A    -11.233865    15A    -11.230087
      16A     -1.376080    17A     -1.229082    18A     -1.162299
      19A     -1.138748    20A     -1.057966    21A     -1.023825
      22A     -1.019961    23A     -0.998104    24A     -0.893210
      25A     -0.848401    26A     -0.837628    27A     -0.819776
      28A     -0.769413    29A     -0.717416    30A     -0.701003
      31A     -0.689163    32A     -0.670013    33A     -0.647383
      34A     -0.632255    35A     -0.616232    36A     -0.611778
      37A     -0.605380    38A     -0.591524    39A     -0.587964
      40A     -0.554106    41A     -0.536187    42A     -0.524634
      43A     -0.519755    44A     -0.510858    45A     -0.496051
      46A     -0.488436    47A     -0.454395    48A     -0.422779
      49A     -0.352276    50A     -0.345797    51A     -0.343180
      52A     -0.302588

  @DF-RHF Final Energy:  -628.20577020306837

   => Energetics <=

    Nuclear Repulsion Energy =            892.6137734652179461
    One-Electron Energy =               -2624.5030519924980581
    Two-Electron Energy =                1103.6835083242117435
    Total Energy =                       -628.2057702030683686
  Basis Set: (AUG-CC-PVTZ AUX)
    Blend: AUG-CC-PVTZ-RI
    Molecular point group: c1

    Geometry (in Angstrom), charge = 0, multiplicity = 1:

       Center              X                  Y                   Z               Mass
    ------------   -----------------  -----------------  -----------------  -----------------
         O           -0.043461897748     2.176494893704    -0.293353256841    15.994914619570
         N            2.478884102252     1.923759893704     0.764092743159    14.003074004430
         C            1.114372102252     0.094889893704    -0.127400256841    12.000000000000
         C           -1.443390897748     0.297577893704    -0.024761256841    12.000000000000
         C           -0.102322897748     0.942322893704    -0.158763256841    12.000000000000
         C            2.366602102252     0.634149893704     0.268438743159    12.000000000000
         C            1.052400102252    -1.229422106296    -0.601545256841    12.000000000000
         C            3.486412102252    -0.217508106296     0.271895743159    12.000000000000
         C           -1.657613897748    -0.801499106296     0.820613743159    12.000000000000
         C           -2.479768897748     0.730661793704    -0.890830156841    12.000000000000
         C            2.179479102252    -2.041195106296    -0.632546256841    12.000000000000
         C            3.401595102252    -1.525235106296    -0.189232256841    12.000000000000
         C           -2.945788897748    -1.314420106296     0.978930743159    12.000000000000
         C           -3.806163897748     0.349989893704    -0.552387256841    12.000000000000
         C           -4.018714897748    -0.748534106296     0.286327743159    12.000000000000
         H            0.100734102252    -1.614509106296    -0.957267256841     1.007825032230
         H            4.444645102252     0.180116893704     0.603077743159     1.007825032230
         H           -0.824735897748    -1.233623106296     1.369233743159     1.007825032230
         H           -2.346645897748     1.750384893704    -1.324461256841     1.007825032230
         H            2.113496102252    -3.056649106296    -1.013258256841     1.007825032230
         H            4.293120102252    -2.148579106296    -0.193457256841     1.007825032230
         H           -3.112638897748    -2.157141106296     1.645612743159     1.007825032230
         H           -4.641534897748     0.795336893704    -1.087438256841     1.007825032230
         H           -5.019285897748    -1.157693106296     0.404773743159     1.007825032230
         H            1.786681102252     2.566407893704     0.393276743159     1.007825032230
         H            3.422488102252     2.292806893704     0.762813743159     1.007825032230

  Basis Set: AUG-CC-PVTZ
    Blend: AUG-CC-PVTZ
  Basis Set: (AUG-CC-PVTZ AUX)
    Blend: AUG-CC-PVTZ-JKFIT
	 Reference Energy          =    -628.2057702030683686 [Eh]
	 Singles Energy            =      -0.0000000000000000 [Eh]
	 Same-Spin Energy          =      -0.6926392006064251 [Eh]
	 Opposite-Spin Energy      =      -2.1128915869116991 [Eh]
	 Correlation Energy        =      -2.8055307875181241 [Eh]
	 Total Energy              =    -631.0113009905865056 [Eh]

	 ================> DF-SCS-MP2 Energies <==================
	-----------------------------------------------------------
	 SCS Same-Spin Scale       =       0.3333333333333333 [-]
	 SCS Opposite-Spin Scale   =       1.2000000000000000 [-]
	 SCS Same-Spin Energy      =      -0.2308797335354750 [Eh]
	 SCS Opposite-Spin Energy  =      -2.5354699042940387 [Eh]
	 SCS Correlation Energy    =      -2.7663496378295136 [Eh]
	 SCS Total Energy          =    -630.9721198408979035 [Eh]
	-----------------------------------------------------------

  Dipole Moment: [D]
     X:     0.4018      Y:    -1.6348      Z:     0.0701     Total:     1.6850

*** Psi4 exiting successfully. Buy a developer a beer!
