                               Psi4 1.4a2.dev612

  ==> Input File <==

--------------------------------------------------------------------------
#psi4
#
memory 32 gb

molecule  {
0 1
  O       -0.0417540     2.1858230    -0.3073980
  N        2.4805920     1.9330880     0.7500480
  C        1.1160800     0.1042180    -0.1414450
  C       -1.4416830     0.3069060    -0.0388060
  C       -0.1006150     0.9516510    -0.1728080
  C        2.3683100     0.6434780     0.2543940
  C        1.0541080    -1.2200940    -0.6155900
  C        3.4684053    -0.2388596     0.3509643
  C       -1.6559060    -0.7921710     0.8065690
  C       -2.5248970     0.8906690    -0.7109620
  C        2.1811870    -2.0318670    -0.6465910
  C        3.4033030    -1.5159070    -0.2032770
  C       -2.9440810    -1.3050920     0.9648860
  C       -3.8044560     0.3593180    -0.5664320
  C       -4.0170070    -0.7392060     0.2722830
  H        0.1024420    -1.6051810    -0.9713120
  H        4.4463530     0.1894450     0.5890330
  H       -0.8230280    -1.2242950     1.3551890
  H       -2.3449380     1.7597130    -1.3385060
  H        2.1152040    -3.0473210    -1.0273030
  H        4.2948280    -2.1392510    -0.2075020
  H       -3.1109310    -2.1478130     1.6315680
  H       -4.6398270     0.8046650    -1.1014830
  H       -5.0175780    -1.1483650     0.3907290
  H        1.7883890     2.5757360     0.3792320
  H        3.4241960     2.3021350     0.7487690
units angstrom
no_reorient  #important for SAPT in psi4, default
symmetry c1  #important for SAPT in psi4, default
}

set PROPERTIES_ORIGIN ["COM"]
properties('MP2/aug-cc-pvtz', properties = ['dipole'])
--------------------------------------------------------------------------

    Molecular point group: c1
  Charge       = 0
  Multiplicity = 1
  Basis Set: AUG-CC-PVTZ
    Blend: AUG-CC-PVTZ
  Basis Set: (AUG-CC-PVTZ AUX)
    Blend: AUG-CC-PVTZ-JKFIT

    Orbital Energies [Eh]
    ---------------------

    Doubly Occupied:

       1A    -20.541324     2A    -15.562798     3A    -11.341468
       4A    -11.300400     5A    -11.255394     6A    -11.254672
       7A    -11.252623     8A    -11.251488     9A    -11.250247
      10A    -11.248145    11A    -11.245851    12A    -11.244454
      13A    -11.241170    14A    -11.234648    15A    -11.229664
      16A     -1.374277    17A     -1.228784    18A     -1.164387
      19A     -1.138449    20A     -1.057257    21A     -1.026472
      22A     -1.020920    23A     -0.997437    24A     -0.893080
      25A     -0.848985    26A     -0.838859    27A     -0.819818
      28A     -0.770292    29A     -0.717928    30A     -0.702302
      31A     -0.688766    32A     -0.670122    33A     -0.647738
      34A     -0.634330    35A     -0.616012    36A     -0.611265
      37A     -0.602195    38A     -0.596916    39A     -0.586771
      40A     -0.556058    41A     -0.534601    42A     -0.526225
      43A     -0.520185    44A     -0.509449    45A     -0.502310
      46A     -0.490468    47A     -0.454784    48A     -0.421563
      49A     -0.351940    50A     -0.346360    51A     -0.344556
      52A     -0.301908

  @DF-RHF Final Energy:  -628.22222200894873

   => Energetics <=

    Nuclear Repulsion Energy =            893.0797620824259866
    One-Electron Energy =               -2625.4677344896317663
    Two-Electron Energy =                1104.1657503982569324
    Total Energy =                       -628.2222220089488474
  Basis Set: (AUG-CC-PVTZ AUX)
    Blend: AUG-CC-PVTZ-RI
    Molecular point group: c1

    Geometry (in Angstrom), charge = 0, multiplicity = 1:

       Center              X                  Y                   Z               Mass
    ------------   -----------------  -----------------  -----------------  -----------------
         O           -0.039409777126     2.169188397324    -0.310829628753    15.994914619570
         N            2.482936222874     1.916453397324     0.746616371247    14.003074004430
         C            1.118424222874     0.087583397324    -0.144876628753    12.000000000000
         C           -1.439338777126     0.290271397324    -0.042237628753    12.000000000000
         C           -0.098270777126     0.935016397324    -0.176239628753    12.000000000000
         C            2.370654222874     0.626843397324     0.250962371247    12.000000000000
         C            1.056452222874    -1.236728602676    -0.619021628753    12.000000000000
         C            3.470749522874    -0.255494202676     0.347532671247    12.000000000000
         C           -1.653561777126    -0.808805602676     0.803137371247    12.000000000000
         C           -2.522552777126     0.874034397324    -0.714393628753    12.000000000000
         C            2.183531222874    -2.048501602676    -0.650022628753    12.000000000000
         C            3.405647222874    -1.532541602676    -0.206708628753    12.000000000000
         C           -2.941736777126    -1.321726602676     0.961454371247    12.000000000000
         C           -3.802111777126     0.342683397324    -0.569863628753    12.000000000000
         C           -4.014662777126    -0.755840602676     0.268851371247    12.000000000000
         H            0.104786222874    -1.621815602676    -0.974743628753     1.007825032230
         H            4.448697222874     0.172810397324     0.585601371247     1.007825032230
         H           -0.820683777126    -1.240929602676     1.351757371247     1.007825032230
         H           -2.342593777126     1.743078397324    -1.341937628753     1.007825032230
         H            2.117548222874    -3.063955602676    -1.030734628753     1.007825032230
         H            4.297172222874    -2.155885602676    -0.210933628753     1.007825032230
         H           -3.108586777126    -2.164447602676     1.628136371247     1.007825032230
         H           -4.637482777126     0.788030397324    -1.104914628753     1.007825032230
         H           -5.015233777126    -1.164999602676     0.387297371247     1.007825032230
         H            1.790733222874     2.559101397324     0.375800371247     1.007825032230
         H            3.426540222874     2.285500397324     0.745337371247     1.007825032230

  Basis Set: AUG-CC-PVTZ
    Blend: AUG-CC-PVTZ
  Basis Set: (AUG-CC-PVTZ AUX)
    Blend: AUG-CC-PVTZ-JKFIT
	 Reference Energy          =    -628.2222220089487337 [Eh]
	 Singles Energy            =      -0.0000000000000000 [Eh]
	 Same-Spin Energy          =      -0.6917016978811611 [Eh]
	 Opposite-Spin Energy      =      -2.1100833025225656 [Eh]
	 Correlation Energy        =      -2.8017850004037266 [Eh]
	 Total Energy              =    -631.0240070093524309 [Eh]

	 ================> DF-SCS-MP2 Energies <==================
	-----------------------------------------------------------
	 SCS Same-Spin Scale       =       0.3333333333333333 [-]
	 SCS Opposite-Spin Scale   =       1.2000000000000000 [-]
	 SCS Same-Spin Energy      =      -0.2305672326270537 [Eh]
	 SCS Opposite-Spin Energy  =      -2.5320999630270786 [Eh]
	 SCS Correlation Energy    =      -2.7626671956541324 [Eh]
	 SCS Total Energy          =    -630.9848892046028368 [Eh]
	-----------------------------------------------------------

  Dipole Moment: [D]
     X:     0.3485      Y:    -1.6043      Z:    -0.1582     Total:     1.6493

*** Psi4 exiting successfully. Buy a developer a beer!
