                               Psi4 1.4a2.dev612

  ==> Input File <==

--------------------------------------------------------------------------
#psi4
#
memory 32 gb

molecule  {
0 1
  O       -0.0417540     2.1858230    -0.3073980
  N        2.4805920     1.9330880     0.7500480
  C        1.1160800     0.1042180    -0.1414450
  C       -1.4416830     0.3069060    -0.0388060
  C       -0.1006150     0.9516510    -0.1728080
  C        2.3683100     0.6434780     0.2543940
  C        1.0541080    -1.2200940    -0.6155900
  C        3.4881200    -0.2081800     0.2578510
  C       -1.6559060    -0.7921710     0.8065690
  C       -2.5248970     0.8906690    -0.7109620
  C        2.1811870    -2.0318670    -0.6465910
  C        3.4033030    -1.5159070    -0.2032770
  C       -2.9440810    -1.3050920     0.9648860
  C       -3.8044560     0.3593180    -0.5664320
  C       -4.0170070    -0.7392060     0.2722830
  H        0.1340102    -1.5567115    -1.1097106
  H        4.4463530     0.1894450     0.5890330
  H       -0.8230280    -1.2242950     1.3551890
  H       -2.3449380     1.7597130    -1.3385060
  H        2.1152040    -3.0473210    -1.0273030
  H        4.2948280    -2.1392510    -0.2075020
  H       -3.1109310    -2.1478130     1.6315680
  H       -4.6398270     0.8046650    -1.1014830
  H       -5.0175780    -1.1483650     0.3907290
  H        1.7883890     2.5757360     0.3792320
  H        3.4241960     2.3021350     0.7487690
units angstrom
no_reorient  #important for SAPT in psi4, default
symmetry c1  #important for SAPT in psi4, default
}

set PROPERTIES_ORIGIN ["COM"]
properties('MP2/aug-cc-pvtz', properties = ['dipole'])
--------------------------------------------------------------------------

    Molecular point group: c1
  Charge       = 0
  Multiplicity = 1
  Basis Set: AUG-CC-PVTZ
    Blend: AUG-CC-PVTZ
  Basis Set: (AUG-CC-PVTZ AUX)
    Blend: AUG-CC-PVTZ-JKFIT

    Orbital Energies [Eh]
    ---------------------

    Doubly Occupied:

       1A    -20.541253     2A    -15.561970     3A    -11.341250
       4A    -11.299174     5A    -11.255299     6A    -11.254624
       7A    -11.252237     8A    -11.251217     9A    -11.249832
      10A    -11.247864    11A    -11.245362    12A    -11.244098
      13A    -11.241178    14A    -11.233860    15A    -11.230114
      16A     -1.374151    17A     -1.228633    18A     -1.163959
      19A     -1.138603    20A     -1.057218    21A     -1.026162
      22A     -1.020917    23A     -0.997740    24A     -0.893151
      25A     -0.848953    26A     -0.838058    27A     -0.819935
      28A     -0.770326    29A     -0.718050    30A     -0.701069
      31A     -0.688673    32A     -0.670337    33A     -0.647466
      34A     -0.634245    35A     -0.615726    36A     -0.610789
      37A     -0.604426    38A     -0.597081    39A     -0.587391
      40A     -0.553493    41A     -0.535846    42A     -0.526494
      43A     -0.520113    44A     -0.509281    45A     -0.501916
      46A     -0.490699    47A     -0.453680    48A     -0.421946
      49A     -0.352416    50A     -0.345481    51A     -0.344094
      52A     -0.302121

  @DF-RHF Final Energy:  -628.22453745748476

   => Energetics <=

    Nuclear Repulsion Energy =            893.0586115277751560
    One-Electron Energy =               -2625.4463590895352354
    Two-Electron Energy =                1104.1632101042753220
    Total Energy =                       -628.2245374574847574
  Basis Set: (AUG-CC-PVTZ AUX)
    Blend: AUG-CC-PVTZ-RI
    Molecular point group: c1

    Geometry (in Angstrom), charge = 0, multiplicity = 1:

       Center              X                  Y                   Z               Mass
    ------------   -----------------  -----------------  -----------------  -----------------
         O           -0.040771590033     2.167072528760    -0.304452445595    15.994914619570
         N            2.481574409967     1.914337528760     0.752993554405    14.003074004430
         C            1.117062409967     0.085467528760    -0.138499445595    12.000000000000
         C           -1.440700590033     0.288155528760    -0.035860445595    12.000000000000
         C           -0.099632590033     0.932900528760    -0.169862445595    12.000000000000
         C            2.369292409967     0.624727528760     0.257339554405    12.000000000000
         C            1.055090409967    -1.238844471240    -0.612644445595    12.000000000000
         C            3.489102409967    -0.226930471240     0.260796554405    12.000000000000
         C           -1.654923590033    -0.810921471240     0.809514554405    12.000000000000
         C           -2.523914590033     0.871918528760    -0.708016445595    12.000000000000
         C            2.182169409967    -2.050617471240    -0.643645445595    12.000000000000
         C            3.404285409967    -1.534657471240    -0.200331445595    12.000000000000
         C           -2.943098590033    -1.323842471240     0.967831554405    12.000000000000
         C           -3.803473590033     0.340567528760    -0.563486445595    12.000000000000
         C           -4.016024590033    -0.757956471240     0.275228554405    12.000000000000
         H            0.134992609967    -1.575461971240    -1.106765045595     1.007825032230
         H            4.447335409967     0.170694528760     0.591978554405     1.007825032230
         H           -0.822045590033    -1.243045471240     1.358134554405     1.007825032230
         H           -2.343955590033     1.740962528760    -1.335560445595     1.007825032230
         H            2.116186409967    -3.066071471240    -1.024357445595     1.007825032230
         H            4.295810409967    -2.158001471240    -0.204556445595     1.007825032230
         H           -3.109948590033    -2.166563471240     1.634513554405     1.007825032230
         H           -4.638844590033     0.785914528760    -1.098537445595     1.007825032230
         H           -5.016595590033    -1.167115471240     0.393674554405     1.007825032230
         H            1.789371409967     2.556985528760     0.382177554405     1.007825032230
         H            3.425178409967     2.283384528760     0.751714554405     1.007825032230

  Basis Set: AUG-CC-PVTZ
    Blend: AUG-CC-PVTZ
  Basis Set: (AUG-CC-PVTZ AUX)
    Blend: AUG-CC-PVTZ-JKFIT
	 Reference Energy          =    -628.2245374574847574 [Eh]
	 Singles Energy            =      -0.0000000000000000 [Eh]
	 Same-Spin Energy          =      -0.6916321914293934 [Eh]
	 Opposite-Spin Energy      =      -2.1098050250142055 [Eh]
	 Correlation Energy        =      -2.8014372164435990 [Eh]
	 Total Energy              =    -631.0259746739283173 [Eh]

	 ================> DF-SCS-MP2 Energies <==================
	-----------------------------------------------------------
	 SCS Same-Spin Scale       =       0.3333333333333333 [-]
	 SCS Opposite-Spin Scale   =       1.2000000000000000 [-]
	 SCS Same-Spin Energy      =      -0.2305440638097978 [Eh]
	 SCS Opposite-Spin Energy  =      -2.5317660300170464 [Eh]
	 SCS Correlation Energy    =      -2.7623100938268443 [Eh]
	 SCS Total Energy          =    -630.9868475513115982 [Eh]
	-----------------------------------------------------------

  Dipole Moment: [D]
     X:     0.3972      Y:    -1.6218      Z:    -0.1718     Total:     1.6786

*** Psi4 exiting successfully. Buy a developer a beer!
