                               Psi4 1.4a2.dev612

  ==> Input File <==

--------------------------------------------------------------------------
#psi4
#
memory 32 gb

molecule  {
0 1
  O       -0.0417540     2.1858230    -0.3073980
  N        2.4805920     1.9330880     0.7500480
  C        1.1160800     0.1042180    -0.1414450
  C       -1.4416830     0.3069060    -0.0388060
  C       -0.1006150     0.9516510    -0.1728080
  C        2.3683100     0.6434780     0.2543940
  C        1.0541080    -1.2200940    -0.6155900
  C        3.4881200    -0.2081800     0.2578510
  C       -1.6559060    -0.7921710     0.8065690
  C       -2.5248970     0.8906690    -0.7109620
  C        2.1811870    -2.0318670    -0.6465910
  C        3.4033030    -1.5159070    -0.2032770
  C       -2.9440810    -1.3050920     0.9648860
  C       -3.8044560     0.3593180    -0.5664320
  C       -4.0170070    -0.7392060     0.2722830
  H        0.1129647    -1.5890245    -1.0174449
  H        4.4463530     0.1894450     0.5890330
  H       -0.8230280    -1.2242950     1.3551890
  H       -2.3449380     1.7597130    -1.3385060
  H        2.1152040    -3.0473210    -1.0273030
  H        4.2948280    -2.1392510    -0.2075020
  H       -3.1109310    -2.1478130     1.6315680
  H       -4.6398270     0.8046650    -1.1014830
  H       -5.0175780    -1.1483650     0.3907290
  H        1.7883890     2.5757360     0.3792320
  H        3.4241960     2.3021350     0.7487690
units angstrom
no_reorient  #important for SAPT in psi4, default
symmetry c1  #important for SAPT in psi4, default
}

set PROPERTIES_ORIGIN ["COM"]
properties('MP2/aug-cc-pvtz', properties = ['dipole'])
--------------------------------------------------------------------------

    Molecular point group: c1
  Charge       = 0
  Multiplicity = 1
  Basis Set: AUG-CC-PVTZ
    Blend: AUG-CC-PVTZ
  Basis Set: (AUG-CC-PVTZ AUX)
    Blend: AUG-CC-PVTZ-JKFIT

    Orbital Energies [Eh]
    ---------------------

    Doubly Occupied:

       1A    -20.541425     2A    -15.561923     3A    -11.341456
       4A    -11.299055     5A    -11.254525     6A    -11.254383
       7A    -11.252502     8A    -11.251408     9A    -11.250081
      10A    -11.248039    11A    -11.245695    12A    -11.244329
      13A    -11.241135    14A    -11.233622    15A    -11.229887
      16A     -1.374289    17A     -1.228570    18A     -1.164242
      19A     -1.138585    20A     -1.057416    21A     -1.026409
      22A     -1.021064    23A     -0.997778    24A     -0.893295
      25A     -0.849250    26A     -0.838642    27A     -0.820059
      28A     -0.770437    29A     -0.718232    30A     -0.702041
      31A     -0.688647    32A     -0.670411    33A     -0.647669
      34A     -0.634441    35A     -0.615829    36A     -0.611008
      37A     -0.604861    38A     -0.597207    39A     -0.587519
      40A     -0.554425    41A     -0.535805    42A     -0.526675
      43A     -0.519880    44A     -0.509631    45A     -0.502195
      46A     -0.490890    47A     -0.453984    48A     -0.421977
      49A     -0.352185    50A     -0.346074    51A     -0.344432
      52A     -0.302092

  @DF-RHF Final Energy:  -628.22591950009962

   => Energetics <=

    Nuclear Repulsion Energy =            893.1647902091424385
    One-Electron Energy =               -2625.6461967680888847
    Two-Electron Energy =                1104.2554870588469385
    Total Energy =                       -628.2259195000995078
  Basis Set: (AUG-CC-PVTZ AUX)
    Blend: AUG-CC-PVTZ-RI
    Molecular point group: c1

    Geometry (in Angstrom), charge = 0, multiplicity = 1:

       Center              X                  Y                   Z               Mass
    ------------   -----------------  -----------------  -----------------  -----------------
         O           -0.040663970060     2.167237767134    -0.304924262951    15.994914619570
         N            2.481682029940     1.914502767134     0.752521737049    14.003074004430
         C            1.117170029940     0.085632767134    -0.138971262951    12.000000000000
         C           -1.440592970060     0.288320767134    -0.036332262951    12.000000000000
         C           -0.099524970060     0.933065767134    -0.170334262951    12.000000000000
         C            2.369400029940     0.624892767134     0.256867737049    12.000000000000
         C            1.055198029940    -1.238679232866    -0.613116262951    12.000000000000
         C            3.489210029940    -0.226765232866     0.260324737049    12.000000000000
         C           -1.654815970060    -0.810756232866     0.809042737049    12.000000000000
         C           -2.523806970060     0.872083767134    -0.708488262951    12.000000000000
         C            2.182277029940    -2.050452232866    -0.644117262951    12.000000000000
         C            3.404393029940    -1.534492232866    -0.200803262951    12.000000000000
         C           -2.942990970060    -1.323677232866     0.967359737049    12.000000000000
         C           -3.803365970060     0.340732767134    -0.563958262951    12.000000000000
         C           -4.015916970060    -0.757791232866     0.274756737049    12.000000000000
         H            0.114054729940    -1.607609732866    -1.014971162951     1.007825032230
         H            4.447443029940     0.170859767134     0.591506737049     1.007825032230
         H           -0.821937970060    -1.242880232866     1.357662737049     1.007825032230
         H           -2.343847970060     1.741127767134    -1.336032262951     1.007825032230
         H            2.116294029940    -3.065906232866    -1.024829262951     1.007825032230
         H            4.295918029940    -2.157836232866    -0.205028262951     1.007825032230
         H           -3.109840970060    -2.166398232866     1.634041737049     1.007825032230
         H           -4.638736970060     0.786079767134    -1.099009262951     1.007825032230
         H           -5.016487970060    -1.166950232866     0.393202737049     1.007825032230
         H            1.789479029940     2.557150767134     0.381705737049     1.007825032230
         H            3.425286029940     2.283549767134     0.751242737049     1.007825032230

  Basis Set: AUG-CC-PVTZ
    Blend: AUG-CC-PVTZ
  Basis Set: (AUG-CC-PVTZ AUX)
    Blend: AUG-CC-PVTZ-JKFIT
	 Reference Energy          =    -628.2259195000996215 [Eh]
	 Singles Energy            =      -0.0000000000000000 [Eh]
	 Same-Spin Energy          =      -0.6915509155471247 [Eh]
	 Opposite-Spin Energy      =      -2.1096004390048591 [Eh]
	 Correlation Energy        =      -2.8011513545519837 [Eh]
	 Total Energy              =    -631.0270708546515834 [Eh]

	 ================> DF-SCS-MP2 Energies <==================
	-----------------------------------------------------------
	 SCS Same-Spin Scale       =       0.3333333333333333 [-]
	 SCS Opposite-Spin Scale   =       1.2000000000000000 [-]
	 SCS Same-Spin Energy      =      -0.2305169718490415 [Eh]
	 SCS Opposite-Spin Energy  =      -2.5315205268058310 [Eh]
	 SCS Correlation Energy    =      -2.7620374986548724 [Eh]
	 SCS Total Energy          =    -630.9879569987544983 [Eh]
	-----------------------------------------------------------

  Dipole Moment: [D]
     X:     0.3634      Y:    -1.6324      Z:    -0.1261     Total:     1.6771

*** Psi4 exiting successfully. Buy a developer a beer!
