                               Psi4 1.4a2.dev612

  ==> Input File <==

--------------------------------------------------------------------------
#psi4
#
memory 32 gb

molecule  {
0 1
  O       -0.0417540     2.1858230    -0.3073980
  N        2.4805920     1.9330880     0.7500480
  C        1.1160800     0.1042180    -0.1414450
  C       -1.4416830     0.3069060    -0.0388060
  C       -0.1006150     0.9516510    -0.1728080
  C        2.3683100     0.6434780     0.2543940
  C        1.0541080    -1.2200940    -0.6155900
  C        3.4881200    -0.2081800     0.2578510
  C       -1.6559060    -0.7921710     0.8065690
  C       -2.4874282     0.7701258    -0.8660923
  C        2.1811870    -2.0318670    -0.6465910
  C        3.4033030    -1.5159070    -0.2032770
  C       -2.9440810    -1.3050920     0.9648860
  C       -3.8044560     0.3593180    -0.5664320
  C       -4.0170070    -0.7392060     0.2722830
  H        0.1024420    -1.6051810    -0.9713120
  H        4.4463530     0.1894450     0.5890330
  H       -0.8230280    -1.2242950     1.3551890
  H       -2.3449380     1.7597130    -1.3385060
  H        2.1152040    -3.0473210    -1.0273030
  H        4.2948280    -2.1392510    -0.2075020
  H       -3.1109310    -2.1478130     1.6315680
  H       -4.6398270     0.8046650    -1.1014830
  H       -5.0175780    -1.1483650     0.3907290
  H        1.7883890     2.5757360     0.3792320
  H        3.4241960     2.3021350     0.7487690
units angstrom
no_reorient  #important for SAPT in psi4, default
symmetry c1  #important for SAPT in psi4, default
}

set PROPERTIES_ORIGIN ["COM"]
properties('MP2/aug-cc-pvtz', properties = ['dipole'])
--------------------------------------------------------------------------

    Molecular point group: c1
  Charge       = 0
  Multiplicity = 1
  Basis Set: AUG-CC-PVTZ
    Blend: AUG-CC-PVTZ
  Basis Set: (AUG-CC-PVTZ AUX)
    Blend: AUG-CC-PVTZ-JKFIT

    Orbital Energies [Eh]
    ---------------------

    Doubly Occupied:

       1A    -20.543658     2A    -15.562351     3A    -11.342514
       4A    -11.299384     5A    -11.254781     6A    -11.254390
       7A    -11.254025     8A    -11.251128     9A    -11.250785
      10A    -11.250207    11A    -11.248580    12A    -11.247924
      13A    -11.241463    14A    -11.233795    15A    -11.230028
      16A     -1.375686    17A     -1.228961    18A     -1.162985
      19A     -1.138718    20A     -1.057859    21A     -1.024710
      22A     -1.020364    23A     -0.998032    24A     -0.893285
      25A     -0.848681    26A     -0.838120    27A     -0.819886
      28A     -0.769827    29A     -0.717647    30A     -0.701441
      31A     -0.689042    32A     -0.670173    33A     -0.647529
      34A     -0.633162    35A     -0.616086    36A     -0.611985
      37A     -0.605327    38A     -0.593198    39A     -0.588013
      40A     -0.554254    41A     -0.536188    42A     -0.525145
      43A     -0.520068    44A     -0.510682    45A     -0.497837
      46A     -0.489529    47A     -0.454311    48A     -0.422554
      49A     -0.352235    50A     -0.345747    51A     -0.343877
      52A     -0.302479

  @DF-RHF Final Energy:  -628.21313870989502

   => Energetics <=

    Nuclear Repulsion Energy =            892.8438241685965977
    One-Electron Energy =               -2624.9726563833642103
    Two-Electron Energy =                1103.9156935048724790
    Total Energy =                       -628.2131387098950199
  Basis Set: (AUG-CC-PVTZ AUX)
    Blend: AUG-CC-PVTZ-RI
    Molecular point group: c1

    Geometry (in Angstrom), charge = 0, multiplicity = 1:

       Center              X                  Y                   Z               Mass
    ------------   -----------------  -----------------  -----------------  -----------------
         O           -0.042891550264     2.174659987356    -0.295714641067    15.994914619570
         N            2.479454449736     1.921924987356     0.761731358933    14.003074004430
         C            1.114942449736     0.093054987356    -0.129761641067    12.000000000000
         C           -1.442820550264     0.295742987356    -0.027122641067    12.000000000000
         C           -0.101752550264     0.940487987356    -0.161124641067    12.000000000000
         C            2.367172449736     0.632314987356     0.266077358933    12.000000000000
         C            1.052970449736    -1.231257012644    -0.603906641067    12.000000000000
         C            3.486982449736    -0.219343012644     0.269534358933    12.000000000000
         C           -1.657043550264    -0.803334012644     0.818252358933    12.000000000000
         C           -2.488565750264     0.758962787356    -0.854408941067    12.000000000000
         C            2.180049449736    -2.043030012644    -0.634907641067    12.000000000000
         C            3.402165449736    -1.527070012644    -0.191593641067    12.000000000000
         C           -2.945218550264    -1.316255012644     0.976569358933    12.000000000000
         C           -3.805593550264     0.348154987356    -0.554748641067    12.000000000000
         C           -4.018144550264    -0.750369012644     0.283966358933    12.000000000000
         H            0.101304449736    -1.616344012644    -0.959628641067     1.007825032230
         H            4.445215449736     0.178281987356     0.600716358933     1.007825032230
         H           -0.824165550264    -1.235458012644     1.366872358933     1.007825032230
         H           -2.346075550264     1.748549987356    -1.326822641067     1.007825032230
         H            2.114066449736    -3.058484012644    -1.015619641067     1.007825032230
         H            4.293690449736    -2.150414012644    -0.195818641067     1.007825032230
         H           -3.112068550264    -2.158976012644     1.643251358933     1.007825032230
         H           -4.640964550264     0.793501987356    -1.089799641067     1.007825032230
         H           -5.018715550264    -1.159528012644     0.402412358933     1.007825032230
         H            1.787251449736     2.564572987356     0.390915358933     1.007825032230
         H            3.423058449736     2.290971987356     0.760452358933     1.007825032230

  Basis Set: AUG-CC-PVTZ
    Blend: AUG-CC-PVTZ
  Basis Set: (AUG-CC-PVTZ AUX)
    Blend: AUG-CC-PVTZ-JKFIT
	 Reference Energy          =    -628.2131387098950199 [Eh]
	 Singles Energy            =      -0.0000000000000000 [Eh]
	 Same-Spin Energy          =      -0.6922621692868549 [Eh]
	 Opposite-Spin Energy      =      -2.1117416878426427 [Eh]
	 Correlation Energy        =      -2.8040038571294978 [Eh]
	 Total Energy              =    -631.0171425670245071 [Eh]

	 ================> DF-SCS-MP2 Energies <==================
	-----------------------------------------------------------
	 SCS Same-Spin Scale       =       0.3333333333333333 [-]
	 SCS Opposite-Spin Scale   =       1.2000000000000000 [-]
	 SCS Same-Spin Energy      =      -0.2307540564289516 [Eh]
	 SCS Opposite-Spin Energy  =      -2.5340900254111713 [Eh]
	 SCS Correlation Energy    =      -2.7648440818401232 [Eh]
	 SCS Total Energy          =    -630.9779827917351440 [Eh]
	-----------------------------------------------------------

  Dipole Moment: [D]
     X:     0.3933      Y:    -1.6240      Z:     0.0227     Total:     1.6711

*** Psi4 exiting successfully. Buy a developer a beer!
