                               Psi4 1.4a2.dev612

  ==> Input File <==

--------------------------------------------------------------------------
#psi4
#
memory 32 gb

molecule  {
0 1
  O       -0.0417540     2.1858230    -0.3073980
  N        2.4805920     1.9330880     0.7500480
  C        1.1160800     0.1042180    -0.1414450
  C       -1.4416830     0.3069060    -0.0388060
  C       -0.1006150     0.9516510    -0.1728080
  C        2.3683100     0.6434780     0.2543940
  C        1.0541080    -1.2200940    -0.6155900
  C        3.4585480    -0.2541994     0.3975210
  C       -1.6559060    -0.7921710     0.8065690
  C       -2.5248970     0.8906690    -0.7109620
  C        2.1811870    -2.0318670    -0.6465910
  C        3.4033030    -1.5159070    -0.2032770
  C       -2.9440810    -1.3050920     0.9648860
  C       -3.8044560     0.3593180    -0.5664320
  C       -4.0170070    -0.7392060     0.2722830
  H        0.1024420    -1.6051810    -0.9713120
  H        4.4463530     0.1894450     0.5890330
  H       -0.8230280    -1.2242950     1.3551890
  H       -2.3449380     1.7597130    -1.3385060
  H        2.1152040    -3.0473210    -1.0273030
  H        4.2948280    -2.1392510    -0.2075020
  H       -3.1109310    -2.1478130     1.6315680
  H       -4.6398270     0.8046650    -1.1014830
  H       -5.0175780    -1.1483650     0.3907290
  H        1.7883890     2.5757360     0.3792320
  H        3.4241960     2.3021350     0.7487690
units angstrom
no_reorient  #important for SAPT in psi4, default
symmetry c1  #important for SAPT in psi4, default
}

set PROPERTIES_ORIGIN ["COM"]
properties('MP2/aug-cc-pvtz', properties = ['dipole'])
--------------------------------------------------------------------------

    Molecular point group: c1
  Charge       = 0
  Multiplicity = 1
  Basis Set: AUG-CC-PVTZ
    Blend: AUG-CC-PVTZ
  Basis Set: (AUG-CC-PVTZ AUX)
    Blend: AUG-CC-PVTZ-JKFIT

    Orbital Energies [Eh]
    ---------------------

    Doubly Occupied:

       1A    -20.541238     2A    -15.563438     3A    -11.341459
       4A    -11.301660     5A    -11.256435     6A    -11.255311
       7A    -11.252679     8A    -11.251533     9A    -11.250323
      10A    -11.248208    11A    -11.245903    12A    -11.244512
      13A    -11.241201    14A    -11.235695    15A    -11.229583
      16A     -1.374260    17A     -1.228911    18A     -1.164447
      19A     -1.138335    20A     -1.057048    21A     -1.026470
      22A     -1.020750    23A     -0.997084    24A     -0.892863
      25A     -0.848745    26A     -0.838858    27A     -0.819519
      28A     -0.770092    29A     -0.717625    30A     -0.702333
      31A     -0.688848    32A     -0.669919    33A     -0.647738
      34A     -0.634085    35A     -0.616146    36A     -0.611387
      37A     -0.600614    38A     -0.596512    39A     -0.585963
      40A     -0.556560    41A     -0.533781    42A     -0.525958
      43A     -0.520352    44A     -0.508911    45A     -0.502348
      46A     -0.490148    47A     -0.454974    48A     -0.421316
      49A     -0.351868    50A     -0.346402    51A     -0.344596
      52A     -0.301932

  @DF-RHF Final Energy:  -628.21814610886588

   => Energetics <=

    Nuclear Repulsion Energy =            892.9319392009596186
    One-Electron Energy =               -2625.1664125087218054
    Two-Electron Energy =                1104.0163271988960787
    Total Energy =                       -628.2181461088659944
  Basis Set: (AUG-CC-PVTZ AUX)
    Blend: AUG-CC-PVTZ-RI
    Molecular point group: c1

    Geometry (in Angstrom), charge = 0, multiplicity = 1:

       Center              X                  Y                   Z               Mass
    ------------   -----------------  -----------------  -----------------  -----------------
         O           -0.038809588569     2.170122402825    -0.313664360231    15.994914619570
         N            2.483536411431     1.917387402825     0.743781639769    14.003074004430
         C            1.119024411431     0.088517402825    -0.147711360231    12.000000000000
         C           -1.438738588569     0.291205402825    -0.045072360231    12.000000000000
         C           -0.097670588569     0.935950402825    -0.179074360231    12.000000000000
         C            2.371254411431     0.627777402825     0.248127639769    12.000000000000
         C            1.057052411431    -1.235794597175    -0.621856360231    12.000000000000
         C            3.461492411431    -0.269899997175     0.391254639769    12.000000000000
         C           -1.652961588569    -0.807871597175     0.800302639769    12.000000000000
         C           -2.521952588569     0.874968402825    -0.717228360231    12.000000000000
         C            2.184131411431    -2.047567597175    -0.652857360231    12.000000000000
         C            3.406247411431    -1.531607597175    -0.209543360231    12.000000000000
         C           -2.941136588569    -1.320792597175     0.958619639769    12.000000000000
         C           -3.801511588569     0.343617402825    -0.572698360231    12.000000000000
         C           -4.014062588569    -0.754906597175     0.266016639769    12.000000000000
         H            0.105386411431    -1.620881597175    -0.977578360231     1.007825032230
         H            4.449297411431     0.173744402825     0.582766639769     1.007825032230
         H           -0.820083588569    -1.239995597175     1.348922639769     1.007825032230
         H           -2.341993588569     1.744012402825    -1.344772360231     1.007825032230
         H            2.118148411431    -3.063021597175    -1.033569360231     1.007825032230
         H            4.297772411431    -2.154951597175    -0.213768360231     1.007825032230
         H           -3.107986588569    -2.163513597175     1.625301639769     1.007825032230
         H           -4.636882588569     0.788964402825    -1.107749360231     1.007825032230
         H           -5.014633588569    -1.164065597175     0.384462639769     1.007825032230
         H            1.791333411431     2.560035402825     0.372965639769     1.007825032230
         H            3.427140411431     2.286434402825     0.742502639769     1.007825032230

  Basis Set: AUG-CC-PVTZ
    Blend: AUG-CC-PVTZ
  Basis Set: (AUG-CC-PVTZ AUX)
    Blend: AUG-CC-PVTZ-JKFIT
	 Reference Energy          =    -628.2181461088658807 [Eh]
	 Singles Energy            =      -0.0000000000000000 [Eh]
	 Same-Spin Energy          =      -0.6918458885777437 [Eh]
	 Opposite-Spin Energy      =      -2.1106294188701509 [Eh]
	 Correlation Energy        =      -2.8024753074478945 [Eh]
	 Total Energy              =    -631.0206214163138156 [Eh]

	 ================> DF-SCS-MP2 Energies <==================
	-----------------------------------------------------------
	 SCS Same-Spin Scale       =       0.3333333333333333 [-]
	 SCS Opposite-Spin Scale   =       1.2000000000000000 [-]
	 SCS Same-Spin Energy      =      -0.2306152961925812 [Eh]
	 SCS Opposite-Spin Energy  =      -2.5327553026441811 [Eh]
	 SCS Correlation Energy    =      -2.7633705988367625 [Eh]
	 SCS Total Energy          =    -630.9815167077026672 [Eh]
	-----------------------------------------------------------

  Dipole Moment: [D]
     X:     0.3294      Y:    -1.5883      Z:    -0.1907     Total:     1.6333

*** Psi4 exiting successfully. Buy a developer a beer!
