                               Psi4 1.4a2.dev612

  ==> Input File <==

--------------------------------------------------------------------------
#psi4
#
memory 32 gb

molecule  {
0 1
  O       -0.0417540     2.1858230    -0.3073980
  N        2.4805920     1.9330880     0.7500480
  C        1.1160800     0.1042180    -0.1414450
  C       -1.4416830     0.3069060    -0.0388060
  C       -0.1006150     0.9516510    -0.1728080
  C        2.3683100     0.6434780     0.2543940
  C        1.0541080    -1.2200940    -0.6155900
  C        3.4881200    -0.2081800     0.2578510
  C       -1.6559060    -0.7921710     0.8065690
  C       -2.5155298     0.8605332    -0.7497446
  C        2.1811870    -2.0318670    -0.6465910
  C        3.4033030    -1.5159070    -0.2032770
  C       -2.9440810    -1.3050920     0.9648860
  C       -3.8044560     0.3593180    -0.5664320
  C       -4.0170070    -0.7392060     0.2722830
  H        0.1024420    -1.6051810    -0.9713120
  H        4.4463530     0.1894450     0.5890330
  H       -0.8230280    -1.2242950     1.3551890
  H       -2.3449380     1.7597130    -1.3385060
  H        2.1152040    -3.0473210    -1.0273030
  H        4.2948280    -2.1392510    -0.2075020
  H       -3.1109310    -2.1478130     1.6315680
  H       -4.6398270     0.8046650    -1.1014830
  H       -5.0175780    -1.1483650     0.3907290
  H        1.7883890     2.5757360     0.3792320
  H        3.4241960     2.3021350     0.7487690
units angstrom
no_reorient  #important for SAPT in psi4, default
symmetry c1  #important for SAPT in psi4, default
}

set PROPERTIES_ORIGIN ["COM"]
properties('MP2/aug-cc-pvtz', properties = ['dipole'])
--------------------------------------------------------------------------

    Molecular point group: c1
  Charge       = 0
  Multiplicity = 1
  Basis Set: AUG-CC-PVTZ
    Blend: AUG-CC-PVTZ
  Basis Set: (AUG-CC-PVTZ AUX)
    Blend: AUG-CC-PVTZ-JKFIT

    Orbital Energies [Eh]
    ---------------------

    Doubly Occupied:

       1A    -20.541997     2A    -15.562011     3A    -11.341769
       4A    -11.299095     5A    -11.254560     6A    -11.254247
       7A    -11.252398     8A    -11.251216     9A    -11.250443
      10A    -11.248152    11A    -11.246066    12A    -11.244858
      13A    -11.241212    14A    -11.233616    15A    -11.229878
      16A     -1.374661    17A     -1.228646    18A     -1.164253
      19A     -1.138613    20A     -1.057587    21A     -1.026383
      22A     -1.021006    23A     -0.997837    24A     -0.893372
      25A     -0.849252    26A     -0.838884    27A     -0.820066
      28A     -0.770504    29A     -0.718200    30A     -0.702285
      31A     -0.688729    32A     -0.670437    33A     -0.647807
      34A     -0.634548    35A     -0.615912    36A     -0.611559
      37A     -0.604956    38A     -0.596713    39A     -0.587703
      40A     -0.554722    41A     -0.535962    42A     -0.526503
      43A     -0.519951    44A     -0.509974    45A     -0.501702
      46A     -0.490896    47A     -0.454090    48A     -0.422081
      49A     -0.352117    50A     -0.346227    51A     -0.344599
      52A     -0.302181

  @DF-RHF Final Energy:  -628.22528533181514

   => Energetics <=

    Nuclear Repulsion Energy =            893.2007075497612050
    One-Electron Energy =               -2625.7071132427622615
    Two-Electron Energy =                1104.2811203611859128
    Total Energy =                       -628.2252853318150301
  Basis Set: (AUG-CC-PVTZ AUX)
    Blend: AUG-CC-PVTZ-RI
    Molecular point group: c1

    Geometry (in Angstrom), charge = 0, multiplicity = 1:

       Center              X                  Y                   Z               Mass
    ------------   -----------------  -----------------  -----------------  -----------------
         O           -0.041180507813     2.169155286580    -0.302798787659    15.994914619570
         N            2.481165492187     1.916420286580     0.754647212341    14.003074004430
         C            1.116653492187     0.087550286580    -0.136845787659    12.000000000000
         C           -1.441109507813     0.290238286580    -0.034206787659    12.000000000000
         C           -0.100041507813     0.934983286580    -0.168208787659    12.000000000000
         C            2.368883492187     0.626810286580     0.258993212341    12.000000000000
         C            1.054681492187    -1.236761713420    -0.610990787659    12.000000000000
         C            3.488693492187    -0.224847713420     0.262450212341    12.000000000000
         C           -1.655332507813    -0.808838713420     0.811168212341    12.000000000000
         C           -2.514956307813     0.843865486580    -0.745145387659    12.000000000000
         C            2.181760492187    -2.048534713420    -0.641991787659    12.000000000000
         C            3.403876492187    -1.532574713420    -0.198677787659    12.000000000000
         C           -2.943507507813    -1.321759713420     0.969485212341    12.000000000000
         C           -3.803882507813     0.342650286580    -0.561832787659    12.000000000000
         C           -4.016433507813    -0.755873713420     0.276882212341    12.000000000000
         H            0.103015492187    -1.621848713420    -0.966712787659     1.007825032230
         H            4.446926492187     0.172777286580     0.593632212341     1.007825032230
         H           -0.822454507813    -1.240962713420     1.359788212341     1.007825032230
         H           -2.344364507813     1.743045286580    -1.333906787659     1.007825032230
         H            2.115777492187    -3.063988713420    -1.022703787659     1.007825032230
         H            4.295401492187    -2.155918713420    -0.202902787659     1.007825032230
         H           -3.110357507813    -2.164480713420     1.636167212341     1.007825032230
         H           -4.639253507813     0.787997286580    -1.096883787659     1.007825032230
         H           -5.017004507813    -1.165032713420     0.395328212341     1.007825032230
         H            1.788962492187     2.559068286580     0.383831212341     1.007825032230
         H            3.424769492187     2.285467286580     0.753368212341     1.007825032230

  Basis Set: AUG-CC-PVTZ
    Blend: AUG-CC-PVTZ
  Basis Set: (AUG-CC-PVTZ AUX)
    Blend: AUG-CC-PVTZ-JKFIT
	 Reference Energy          =    -628.2252853318151438 [Eh]
	 Singles Energy            =      -0.0000000000000000 [Eh]
	 Same-Spin Energy          =      -0.6916004954450463 [Eh]
	 Opposite-Spin Energy      =      -2.1097641410293106 [Eh]
	 Correlation Energy        =      -2.8013646364743572 [Eh]
	 Total Energy              =    -631.0266499682894619 [Eh]

	 ================> DF-SCS-MP2 Energies <==================
	-----------------------------------------------------------
	 SCS Same-Spin Scale       =       0.3333333333333333 [-]
	 SCS Opposite-Spin Scale   =       1.2000000000000000 [-]
	 SCS Same-Spin Energy      =      -0.2305334984816821 [Eh]
	 SCS Opposite-Spin Energy  =      -2.5317169692351729 [Eh]
	 SCS Correlation Energy    =      -2.7622504677168549 [Eh]
	 SCS Total Energy          =    -630.9875357995319973 [Eh]
	-----------------------------------------------------------

  Dipole Moment: [D]
     X:     0.3630      Y:    -1.6241      Z:    -0.0803     Total:     1.6661

*** Psi4 exiting successfully. Buy a developer a beer!
