                               Psi4 1.4a2.dev612

  ==> Input File <==

--------------------------------------------------------------------------
#psi4
#
memory 32 gb

molecule  {
0 1
  O       -0.0417540     2.1858230    -0.3073980
  N        2.4805920     1.9330880     0.7500480
  C        1.1160800     0.1042180    -0.1414450
  C       -1.4416830     0.3069060    -0.0388060
  C       -0.1006150     0.9516510    -0.1728080
  C        2.3683100     0.6434780     0.2543940
  C        1.0541080    -1.2200940    -0.6155900
  C        3.4881200    -0.2081800     0.2578510
  C       -1.6559060    -0.7921710     0.8065690
  C       -2.5248970     0.8906690    -0.7109620
  C        2.1811870    -2.0318670    -0.6465910
  C        3.4033030    -1.5159070    -0.2032770
  C       -2.9440810    -1.3050920     0.9648860
  C       -3.8044560     0.3593180    -0.5664320
  C       -4.0170070    -0.7392060     0.2722830
  H        0.1550556    -1.5243985    -1.2019763
  H        4.4463530     0.1894450     0.5890330
  H       -0.8230280    -1.2242950     1.3551890
  H       -2.3449380     1.7597130    -1.3385060
  H        2.1152040    -3.0473210    -1.0273030
  H        4.2948280    -2.1392510    -0.2075020
  H       -3.1109310    -2.1478130     1.6315680
  H       -4.6398270     0.8046650    -1.1014830
  H       -5.0175780    -1.1483650     0.3907290
  H        1.7883890     2.5757360     0.3792320
  H        3.4241960     2.3021350     0.7487690
units angstrom
no_reorient  #important for SAPT in psi4, default
symmetry c1  #important for SAPT in psi4, default
}

set PROPERTIES_ORIGIN ["COM"]
properties('MP2/aug-cc-pvtz', properties = ['dipole'])
--------------------------------------------------------------------------

    Molecular point group: c1
  Charge       = 0
  Multiplicity = 1
  Basis Set: AUG-CC-PVTZ
    Blend: AUG-CC-PVTZ
  Basis Set: (AUG-CC-PVTZ AUX)
    Blend: AUG-CC-PVTZ-JKFIT

    Orbital Energies [Eh]
    ---------------------

    Doubly Occupied:

       1A    -20.541117     2A    -15.562051     3A    -11.341055
       4A    -11.299350     5A    -11.256952     6A    -11.254786
       7A    -11.251918     8A    -11.250969     9A    -11.249546
      10A    -11.247634    11A    -11.244987    12A    -11.243822
      13A    -11.241336    14A    -11.234272    15A    -11.230521
      16A     -1.374039    17A     -1.228750    18A     -1.163626
      19A     -1.138627    20A     -1.056994    21A     -1.025866
      22A     -1.020699    23A     -0.997676    24A     -0.892986
      25A     -0.848439    26A     -0.837352    27A     -0.819658
      28A     -0.770225    29A     -0.717655    30A     -0.699708
      31A     -0.688713    32A     -0.670152    33A     -0.647254
      34A     -0.634084    35A     -0.615619    36A     -0.610662
      37A     -0.603037    38A     -0.596855    39A     -0.587232
      40A     -0.552516    41A     -0.535955    42A     -0.526501
      43A     -0.520027    44A     -0.508555    45A     -0.501589
      46A     -0.490451    47A     -0.453093    48A     -0.421923
      49A     -0.352575    50A     -0.344911    51A     -0.343598
      52A     -0.302189

  @DF-RHF Final Energy:  -628.22156462533667

   => Energetics <=

    Nuclear Repulsion Energy =            892.9170285850149185
    One-Electron Energy =               -2625.1769726426123270
    Two-Electron Energy =                1104.0383794322606263
    Total Energy =                       -628.2215646253366685
  Basis Set: (AUG-CC-PVTZ AUX)
    Blend: AUG-CC-PVTZ-RI
    Molecular point group: c1

    Geometry (in Angstrom), charge = 0, multiplicity = 1:

       Center              X                  Y                   Z               Mass
    ------------   -----------------  -----------------  -----------------  -----------------
         O           -0.040879209495     2.166907290386    -0.303980628238    15.994914619570
         N            2.481466790505     1.914172290386     0.753465371762    14.003074004430
         C            1.116954790505     0.085302290386    -0.138027628238    12.000000000000
         C           -1.440808209495     0.287990290386    -0.035388628238    12.000000000000
         C           -0.099740209495     0.932735290386    -0.169390628238    12.000000000000
         C            2.369184790505     0.624562290386     0.257811371762    12.000000000000
         C            1.054982790505    -1.239009709614    -0.612172628238    12.000000000000
         C            3.488994790505    -0.227095709614     0.261268371762    12.000000000000
         C           -1.655031209495    -0.811086709614     0.809986371762    12.000000000000
         C           -2.524022209495     0.871753290386    -0.707544628238    12.000000000000
         C            2.182061790505    -2.050782709614    -0.643173628238    12.000000000000
         C            3.404177790505    -1.534822709614    -0.199859628238    12.000000000000
         C           -2.943206209495    -1.324007709614     0.968303371762    12.000000000000
         C           -3.803581209495     0.340402290386    -0.563014628238    12.000000000000
         C           -4.016132209495    -0.758121709614     0.275700371762    12.000000000000
         H            0.155930390505    -1.543314209614    -1.198558928238     1.007825032230
         H            4.447227790505     0.170529290386     0.592450371762     1.007825032230
         H           -0.822153209495    -1.243210709614     1.358606371762     1.007825032230
         H           -2.344063209495     1.740797290386    -1.335088628238     1.007825032230
         H            2.116078790505    -3.066236709614    -1.023885628238     1.007825032230
         H            4.295702790505    -2.158166709614    -0.204084628238     1.007825032230
         H           -3.110056209495    -2.166728709614     1.634985371762     1.007825032230
         H           -4.638952209495     0.785749290386    -1.098065628238     1.007825032230
         H           -5.016703209495    -1.167280709614     0.394146371762     1.007825032230
         H            1.789263790505     2.556820290386     0.382649371762     1.007825032230
         H            3.425070790505     2.283219290386     0.752186371762     1.007825032230

  Basis Set: AUG-CC-PVTZ
    Blend: AUG-CC-PVTZ
  Basis Set: (AUG-CC-PVTZ AUX)
    Blend: AUG-CC-PVTZ-JKFIT
	 Reference Energy          =    -628.2215646253366685 [Eh]
	 Singles Energy            =      -0.0000000000000000 [Eh]
	 Same-Spin Energy          =      -0.6918210718479190 [Eh]
	 Opposite-Spin Energy      =      -2.1102561673971794 [Eh]
	 Correlation Energy        =      -2.8020772392450981 [Eh]
	 Total Energy              =    -631.0236418645818048 [Eh]

	 ================> DF-SCS-MP2 Energies <==================
	-----------------------------------------------------------
	 SCS Same-Spin Scale       =       0.3333333333333333 [-]
	 SCS Opposite-Spin Scale   =       1.2000000000000000 [-]
	 SCS Same-Spin Energy      =      -0.2306070239493063 [Eh]
	 SCS Opposite-Spin Energy  =      -2.5323074008766153 [Eh]
	 SCS Correlation Energy    =      -2.7629144248259214 [Eh]
	 SCS Total Energy          =    -630.9844790501625766 [Eh]
	-----------------------------------------------------------

  Dipole Moment: [D]
     X:     0.4445      Y:    -1.6066      Z:    -0.2128     Total:     1.6804

*** Psi4 exiting successfully. Buy a developer a beer!
