                               Psi4 1.4a2.dev612

  ==> Input File <==

--------------------------------------------------------------------------
#psi4
#
memory 32 gb

molecule  {
0 1
  O       -0.0417540     2.1858230    -0.3073980
  N        2.4805920     1.9330880     0.7500480
  C        1.1160800     0.1042180    -0.1414450
  C       -1.4416830     0.3069060    -0.0388060
  C       -0.1006150     0.9516510    -0.1728080
  C        2.3683100     0.6434780     0.2543940
  C        1.0938317    -1.1608760    -0.8024462
  C        3.4881200    -0.2081800     0.2578510
  C       -1.6559060    -0.7921710     0.8065690
  C       -2.5248970     0.8906690    -0.7109620
  C        2.1811870    -2.0318670    -0.6465910
  C        3.4033030    -1.5159070    -0.2032770
  C       -2.9440810    -1.3050920     0.9648860
  C       -3.8044560     0.3593180    -0.5664320
  C       -4.0170070    -0.7392060     0.2722830
  H        0.1024420    -1.6051810    -0.9713120
  H        4.4463530     0.1894450     0.5890330
  H       -0.8230280    -1.2242950     1.3551890
  H       -2.3449380     1.7597130    -1.3385060
  H        2.1152040    -3.0473210    -1.0273030
  H        4.2948280    -2.1392510    -0.2075020
  H       -3.1109310    -2.1478130     1.6315680
  H       -4.6398270     0.8046650    -1.1014830
  H       -5.0175780    -1.1483650     0.3907290
  H        1.7883890     2.5757360     0.3792320
  H        3.4241960     2.3021350     0.7487690
units angstrom
no_reorient  #important for SAPT in psi4, default
symmetry c1  #important for SAPT in psi4, default
}

set PROPERTIES_ORIGIN ["COM"]
properties('MP2/aug-cc-pvtz', properties = ['dipole'])
--------------------------------------------------------------------------

    Molecular point group: c1
  Charge       = 0
  Multiplicity = 1
  Basis Set: AUG-CC-PVTZ
    Blend: AUG-CC-PVTZ
  Basis Set: (AUG-CC-PVTZ AUX)
    Blend: AUG-CC-PVTZ-JKFIT

    Orbital Energies [Eh]
    ---------------------

    Doubly Occupied:

       1A    -20.543304     2A    -15.561197     3A    -11.342249
       4A    -11.298008     5A    -11.257356     6A    -11.253504
       7A    -11.253119     8A    -11.251819     9A    -11.250645
      10A    -11.248399    11A    -11.246304    12A    -11.244830
      13A    -11.243448    14A    -11.235029    15A    -11.232929
      16A     -1.375570    17A     -1.228002    18A     -1.164506
      19A     -1.136200    20A     -1.056666    21A     -1.026572
      22A     -1.020689    23A     -0.996623    24A     -0.893270
      25A     -0.849181    26A     -0.838199    27A     -0.819030
      28A     -0.770131    29A     -0.717315    30A     -0.700552
      31A     -0.686440    32A     -0.670887    33A     -0.648101
      34A     -0.634582    35A     -0.615771    36A     -0.611326
      37A     -0.600466    38A     -0.596699    39A     -0.586654
      40A     -0.554788    41A     -0.535519    42A     -0.526784
      43A     -0.517728    44A     -0.507189    45A     -0.502544
      46A     -0.490575    47A     -0.452924    48A     -0.422811
      49A     -0.351555    50A     -0.345766    51A     -0.344865
      52A     -0.301003

  @DF-RHF Final Energy:  -628.21200195205836

   => Energetics <=

    Nuclear Repulsion Energy =            892.1980260397093616
    One-Electron Energy =               -2623.7008008970328774
    Two-Electron Energy =                1103.2907729052651575
    Total Energy =                       -628.2120019520582446
  Basis Set: (AUG-CC-PVTZ AUX)
    Blend: AUG-CC-PVTZ-RI
    Molecular point group: c1

    Geometry (in Angstrom), charge = 0, multiplicity = 1:

       Center              X                  Y                   Z               Mass
    ------------   -----------------  -----------------  -----------------  -----------------
         O           -0.043028845992     2.163714737109    -0.293782923239    15.994914619570
         N            2.479317154008     1.910979737109     0.763663076761    14.003074004430
         C            1.114805154008     0.082109737109    -0.127829923239    12.000000000000
         C           -1.442957845992     0.284797737109    -0.025190923239    12.000000000000
         C           -0.101889845992     0.929542737109    -0.159192923239    12.000000000000
         C            2.367035154008     0.621369737109     0.268009076761    12.000000000000
         C            1.092556854008    -1.182984262891    -0.788831123239    12.000000000000
         C            3.486845154008    -0.230288262891     0.271466076761    12.000000000000
         C           -1.657180845992    -0.814279262891     0.820184076761    12.000000000000
         C           -2.526171845992     0.868560737109    -0.697346923239    12.000000000000
         C            2.179912154008    -2.053975262891    -0.632975923239    12.000000000000
         C            3.402028154008    -1.538015262891    -0.189661923239    12.000000000000
         C           -2.945355845992    -1.327200262891     0.978501076761    12.000000000000
         C           -3.805730845992     0.337209737109    -0.552816923239    12.000000000000
         C           -4.018281845992    -0.761314262891     0.285898076761    12.000000000000
         H            0.101167154008    -1.627289262891    -0.957696923239     1.007825032230
         H            4.445078154008     0.167336737109     0.602648076761     1.007825032230
         H           -0.824302845992    -1.246403262891     1.368804076761     1.007825032230
         H           -2.346212845992     1.737604737109    -1.324890923239     1.007825032230
         H            2.113929154008    -3.069429262891    -1.013687923239     1.007825032230
         H            4.293553154008    -2.161359262891    -0.193886923239     1.007825032230
         H           -3.112205845992    -2.169921262891     1.645183076761     1.007825032230
         H           -4.641101845992     0.782556737109    -1.087867923239     1.007825032230
         H           -5.018852845992    -1.170473262891     0.404344076761     1.007825032230
         H            1.787114154008     2.553627737109     0.392847076761     1.007825032230
         H            3.422921154008     2.280026737109     0.762384076761     1.007825032230

  Basis Set: AUG-CC-PVTZ
    Blend: AUG-CC-PVTZ
  Basis Set: (AUG-CC-PVTZ AUX)
    Blend: AUG-CC-PVTZ-JKFIT
	 Reference Energy          =    -628.2120019520583583 [Eh]
	 Singles Energy            =      -0.0000000000000000 [Eh]
	 Same-Spin Energy          =      -0.6922223310639849 [Eh]
	 Opposite-Spin Energy      =      -2.1117898511539135 [Eh]
	 Correlation Energy        =      -2.8040121822178983 [Eh]
	 Total Energy              =    -631.0160141342762472 [Eh]

	 ================> DF-SCS-MP2 Energies <==================
	-----------------------------------------------------------
	 SCS Same-Spin Scale       =       0.3333333333333333 [-]
	 SCS Opposite-Spin Scale   =       1.2000000000000000 [-]
	 SCS Same-Spin Energy      =      -0.2307407770213283 [Eh]
	 SCS Opposite-Spin Energy  =      -2.5341478213846962 [Eh]
	 SCS Correlation Energy    =      -2.7648885984060243 [Eh]
	 SCS Total Energy          =    -630.9768905504644181 [Eh]
	-----------------------------------------------------------

  Dipole Moment: [D]
     X:     0.2869      Y:    -1.5942      Z:     0.0268     Total:     1.6201

*** Psi4 exiting successfully. Buy a developer a beer!
