                               Psi4 1.4a2.dev612

  ==> Input File <==

--------------------------------------------------------------------------
#psi4
#
memory 32 gb

molecule  {
0 1
  O       -0.0417540     2.1858230    -0.3073980
  N        2.4805920     1.9330880     0.7500480
  C        1.1160800     0.1042180    -0.1414450
  C       -1.4416830     0.3069060    -0.0388060
  C       -0.1006150     0.9516510    -0.1728080
  C        2.3683100     0.6434780     0.2543940
  C        1.1136935    -1.1312670    -0.8958744
  C        3.4881200    -0.2081800     0.2578510
  C       -1.6559060    -0.7921710     0.8065690
  C       -2.5248970     0.8906690    -0.7109620
  C        2.1811870    -2.0318670    -0.6465910
  C        3.4033030    -1.5159070    -0.2032770
  C       -2.9440810    -1.3050920     0.9648860
  C       -3.8044560     0.3593180    -0.5664320
  C       -4.0170070    -0.7392060     0.2722830
  H        0.1024420    -1.6051810    -0.9713120
  H        4.4463530     0.1894450     0.5890330
  H       -0.8230280    -1.2242950     1.3551890
  H       -2.3449380     1.7597130    -1.3385060
  H        2.1152040    -3.0473210    -1.0273030
  H        4.2948280    -2.1392510    -0.2075020
  H       -3.1109310    -2.1478130     1.6315680
  H       -4.6398270     0.8046650    -1.1014830
  H       -5.0175780    -1.1483650     0.3907290
  H        1.7883890     2.5757360     0.3792320
  H        3.4241960     2.3021350     0.7487690
units angstrom
no_reorient  #important for SAPT in psi4, default
symmetry c1  #important for SAPT in psi4, default
}

set PROPERTIES_ORIGIN ["COM"]
properties('MP2/aug-cc-pvtz', properties = ['dipole'])
--------------------------------------------------------------------------

    Molecular point group: c1
  Charge       = 0
  Multiplicity = 1
  Basis Set: AUG-CC-PVTZ
    Blend: AUG-CC-PVTZ
  Basis Set: (AUG-CC-PVTZ AUX)
    Blend: AUG-CC-PVTZ-JKFIT

    Orbital Energies [Eh]
    ---------------------

    Doubly Occupied:

       1A    -20.544407     2A    -15.560844     3A    -11.342589
       4A    -11.297378     5A    -11.261045     6A    -11.253255
       7A    -11.252907     8A    -11.251846     9A    -11.250773
      10A    -11.248416    11A    -11.246381    12A    -11.246302
      13A    -11.244882    14A    -11.237355    15A    -11.237142
      16A     -1.376302    17A     -1.227772    18A     -1.164424
      19A     -1.133906    20A     -1.056033    21A     -1.026440
      22A     -1.019816    23A     -0.995364    24A     -0.892983
      25A     -0.848765    26A     -0.837693    27A     -0.817760
      28A     -0.769685    29A     -0.716571    30A     -0.698652
      31A     -0.684310    32A     -0.671097    33A     -0.648217
      34A     -0.634592    35A     -0.615657    36A     -0.611460
      37A     -0.598379    38A     -0.594233    39A     -0.584662
      40A     -0.553928    41A     -0.534943    42A     -0.526671
      43A     -0.516244    44A     -0.504083    45A     -0.502498
      46A     -0.489612    47A     -0.451453    48A     -0.423231
      49A     -0.351479    50A     -0.345316    51A     -0.344575
      52A     -0.299882

  @DF-RHF Final Energy:  -628.19463955443939

   => Energetics <=

    Nuclear Repulsion Energy =            891.3623112023000203
    One-Electron Energy =               -2622.0254871626707427
    Two-Electron Energy =                1102.4685364059312178
    Total Energy =                       -628.1946395544393908
  Basis Set: (AUG-CC-PVTZ AUX)
    Blend: AUG-CC-PVTZ-RI
    Molecular point group: c1

    Geometry (in Angstrom), charge = 0, multiplicity = 1:

       Center              X                  Y                   Z               Mass
    ------------   -----------------  -----------------  -----------------  -----------------
         O           -0.044238185779     2.161911912503    -0.288094292828    15.994914619570
         N            2.478107814221     1.909176912503     0.769351707172    14.003074004430
         C            1.113595814221     0.080306912503    -0.122141292828    12.000000000000
         C           -1.444167185779     0.282994912503    -0.019502292828    12.000000000000
         C           -0.103099185779     0.927739912503    -0.153504292828    12.000000000000
         C            2.365825814221     0.619566912503     0.273697707172    12.000000000000
         C            1.111209314221    -1.155178087497    -0.876570692828    12.000000000000
         C            3.485635814221    -0.232091087497     0.277154707172    12.000000000000
         C           -1.658390185779    -0.816082087497     0.825872707172    12.000000000000
         C           -2.527381185779     0.866757912503    -0.691658292828    12.000000000000
         C            2.178702814221    -2.055778087497    -0.627287292828    12.000000000000
         C            3.400818814221    -1.539818087497    -0.183973292828    12.000000000000
         C           -2.946565185779    -1.329003087497     0.984189707172    12.000000000000
         C           -3.806940185779     0.335406912503    -0.547128292828    12.000000000000
         C           -4.019491185779    -0.763117087497     0.291586707172    12.000000000000
         H            0.099957814221    -1.629092087497    -0.952008292828     1.007825032230
         H            4.443868814221     0.165533912503     0.608336707172     1.007825032230
         H           -0.825512185779    -1.248206087497     1.374492707172     1.007825032230
         H           -2.347422185779     1.735801912503    -1.319202292828     1.007825032230
         H            2.112719814221    -3.071232087497    -1.007999292828     1.007825032230
         H            4.292343814221    -2.163162087497    -0.188198292828     1.007825032230
         H           -3.113415185779    -2.171724087497     1.650871707172     1.007825032230
         H           -4.642311185779     0.780753912503    -1.082179292828     1.007825032230
         H           -5.020062185779    -1.172276087497     0.410032707172     1.007825032230
         H            1.785904814221     2.551824912503     0.398535707172     1.007825032230
         H            3.421711814221     2.278223912503     0.768072707172     1.007825032230

  Basis Set: AUG-CC-PVTZ
    Blend: AUG-CC-PVTZ
  Basis Set: (AUG-CC-PVTZ AUX)
    Blend: AUG-CC-PVTZ-JKFIT
	 Reference Energy          =    -628.1946395544393908 [Eh]
	 Singles Energy            =      -0.0000000000000000 [Eh]
	 Same-Spin Energy          =      -0.6932437484549223 [Eh]
	 Opposite-Spin Energy      =      -2.1146936517472872 [Eh]
	 Correlation Energy        =      -2.8079374002022095 [Eh]
	 Total Energy              =    -631.0025769546416541 [Eh]

	 ================> DF-SCS-MP2 Energies <==================
	-----------------------------------------------------------
	 SCS Same-Spin Scale       =       0.3333333333333333 [-]
	 SCS Opposite-Spin Scale   =       1.2000000000000000 [-]
	 SCS Same-Spin Energy      =      -0.2310812494849741 [Eh]
	 SCS Opposite-Spin Energy  =      -2.5376323820967444 [Eh]
	 SCS Correlation Energy    =      -2.7687136315817185 [Eh]
	 SCS Total Energy          =    -630.9633531860210951 [Eh]
	-----------------------------------------------------------

  Dipole Moment: [D]
     X:     0.3111      Y:    -1.5547      Z:     0.1212     Total:     1.5901

*** Psi4 exiting successfully. Buy a developer a beer!
