                               Psi4 1.4a2.dev612

  ==> Input File <==

--------------------------------------------------------------------------
#psi4
#
memory 32 gb

molecule  {
0 1
  O       -0.0417540     2.1858230    -0.3073980
  N        2.4805920     1.9330880     0.7500480
  C        1.1160800     0.1042180    -0.1414450
  C       -1.4416830     0.3069060    -0.0388060
  C       -0.1006150     0.9516510    -0.1728080
  C        2.3683100     0.6434780     0.2543940
  C        1.0541080    -1.2200940    -0.6155900
  C        3.4881200    -0.2081800     0.2578510
  C       -1.6559060    -0.7921710     0.8065690
  C       -2.5248970     0.8906690    -0.7109620
  C        2.1811870    -2.0318670    -0.6465910
  C        3.4033030    -1.5159070    -0.2032770
  C       -2.9440810    -1.3050920     0.9648860
  C       -3.8044560     0.3593180    -0.5664320
  C       -4.0170070    -0.7392060     0.2722830
  H        0.1024420    -1.6051810    -0.9713120
  H        4.4463530     0.1894450     0.5890330
  H       -0.8558316    -1.0988896     1.5074959
  H       -2.3449380     1.7597130    -1.3385060
  H        2.1152040    -3.0473210    -1.0273030
  H        4.2948280    -2.1392510    -0.2075020
  H       -3.1109310    -2.1478130     1.6315680
  H       -4.6398270     0.8046650    -1.1014830
  H       -5.0175780    -1.1483650     0.3907290
  H        1.7883890     2.5757360     0.3792320
  H        3.4241960     2.3021350     0.7487690
units angstrom
no_reorient  #important for SAPT in psi4, default
symmetry c1  #important for SAPT in psi4, default
}

set PROPERTIES_ORIGIN ["COM"]
properties('MP2/aug-cc-pvtz', properties = ['dipole'])
--------------------------------------------------------------------------

    Molecular point group: c1
  Charge       = 0
  Multiplicity = 1
  Basis Set: AUG-CC-PVTZ
    Blend: AUG-CC-PVTZ
  Basis Set: (AUG-CC-PVTZ AUX)
    Blend: AUG-CC-PVTZ-JKFIT

    Orbital Energies [Eh]
    ---------------------

    Doubly Occupied:

       1A    -20.541245     2A    -15.561751     3A    -11.341249
       4A    -11.298724     5A    -11.254243     6A    -11.254131
       7A    -11.253678     8A    -11.251604     9A    -11.250532
      10A    -11.248367    11A    -11.246219    12A    -11.244878
      13A    -11.240774    14A    -11.233105    15A    -11.229170
      16A     -1.374169    17A     -1.228331    18A     -1.164412
      19A     -1.138132    20A     -1.057187    21A     -1.026428
      22A     -1.020819    23A     -0.997310    24A     -0.893075
      25A     -0.848956    26A     -0.837624    27A     -0.819881
      28A     -0.770219    29A     -0.717687    30A     -0.700995
      31A     -0.688352    32A     -0.669755    33A     -0.647163
      34A     -0.634297    35A     -0.615275    36A     -0.611037
      37A     -0.604178    38A     -0.596569    39A     -0.587226
      40A     -0.553861    41A     -0.535333    42A     -0.524313
      43A     -0.520836    44A     -0.510130    45A     -0.503334
      46A     -0.488982    47A     -0.453667    48A     -0.421701
      49A     -0.352768    50A     -0.345784    51A     -0.343779
      52A     -0.301718

  @DF-RHF Final Energy:  -628.22320911349425

   => Energetics <=

    Nuclear Repulsion Energy =            892.9991517546186515
    One-Electron Energy =               -2625.3348183244279426
    Two-Electron Energy =                1104.1124574563150418
    Total Energy =                       -628.2232091134942493
  Basis Set: (AUG-CC-PVTZ AUX)
    Blend: AUG-CC-PVTZ-RI
    Molecular point group: c1

    Geometry (in Angstrom), charge = 0, multiplicity = 1:

       Center              X                  Y                   Z               Mass
    ------------   -----------------  -----------------  -----------------  -----------------
         O           -0.040442413183     2.166679103111    -0.305939020785    15.994914619570
         N            2.481903586817     1.913944103111     0.751506979215    14.003074004430
         C            1.117391586817     0.085074103111    -0.139986020785    12.000000000000
         C           -1.440371413183     0.287762103111    -0.037347020785    12.000000000000
         C           -0.099303413183     0.932507103111    -0.171349020785    12.000000000000
         C            2.369621586817     0.624334103111     0.255852979215    12.000000000000
         C            1.055419586817    -1.239237896889    -0.614131020785    12.000000000000
         C            3.489431586817    -0.227323896889     0.259309979215    12.000000000000
         C           -1.654594413183    -0.811314896889     0.808027979215    12.000000000000
         C           -2.523585413183     0.871525103111    -0.709503020785    12.000000000000
         C            2.182498586817    -2.051010896889    -0.645132020785    12.000000000000
         C            3.404614586817    -1.535050896889    -0.201818020785    12.000000000000
         C           -2.942769413183    -1.324235896889     0.966344979215    12.000000000000
         C           -3.803144413183     0.340174103111    -0.564973020785    12.000000000000
         C           -4.015695413183    -0.758349896889     0.273741979215    12.000000000000
         H            0.103753586817    -1.624324896889    -0.969853020785     1.007825032230
         H            4.447664586817     0.170301103111     0.590491979215     1.007825032230
         H           -0.854520013183    -1.118033496889     1.508954879215     1.007825032230
         H           -2.343626413183     1.740569103111    -1.337047020785     1.007825032230
         H            2.116515586817    -3.066464896889    -1.025844020785     1.007825032230
         H            4.296139586817    -2.158394896889    -0.206043020785     1.007825032230
         H           -3.109619413183    -2.166956896889     1.633026979215     1.007825032230
         H           -4.638515413183     0.785521103111    -1.100024020785     1.007825032230
         H           -5.016266413183    -1.167508896889     0.392187979215     1.007825032230
         H            1.789700586817     2.556592103111     0.380690979215     1.007825032230
         H            3.425507586817     2.282991103111     0.750227979215     1.007825032230

  Basis Set: AUG-CC-PVTZ
    Blend: AUG-CC-PVTZ
  Basis Set: (AUG-CC-PVTZ AUX)
    Blend: AUG-CC-PVTZ-JKFIT
	 Reference Energy          =    -628.2232091134942493 [Eh]
	 Singles Energy            =      -0.0000000000000000 [Eh]
	 Same-Spin Energy          =      -0.6916968748386841 [Eh]
	 Opposite-Spin Energy      =      -2.1099642703835406 [Eh]
	 Correlation Energy        =      -2.8016611452222246 [Eh]
	 Total Energy              =    -631.0248702587164189 [Eh]

	 ================> DF-SCS-MP2 Energies <==================
	-----------------------------------------------------------
	 SCS Same-Spin Scale       =       0.3333333333333333 [-]
	 SCS Opposite-Spin Scale   =       1.2000000000000000 [-]
	 SCS Same-Spin Energy      =      -0.2305656249462280 [Eh]
	 SCS Opposite-Spin Energy  =      -2.5319571244602486 [Eh]
	 SCS Correlation Energy    =      -2.7625227494064766 [Eh]
	 SCS Total Energy          =    -630.9857318629007068 [Eh]
	-----------------------------------------------------------

  Dipole Moment: [D]
     X:     0.2938      Y:    -1.5762      Z:    -0.0257     Total:     1.6035

*** Psi4 exiting successfully. Buy a developer a beer!
