                               Psi4 1.4a2.dev612

  ==> Input File <==

--------------------------------------------------------------------------
#psi4
#
memory 32 gb

molecule  {
0 1
  O       -0.0417540     2.1858230    -0.3073980
  N        2.4805920     1.9330880     0.7500480
  C        1.1160800     0.1042180    -0.1414450
  C       -1.4416830     0.3069060    -0.0388060
  C       -0.1006150     0.9516510    -0.1728080
  C        2.3683100     0.6434780     0.2543940
  C        1.0541080    -1.2200940    -0.6155900
  C        3.4881200    -0.2081800     0.2578510
  C       -1.6559060    -0.7921710     0.8065690
  C       -2.5248970     0.8906690    -0.7109620
  C        2.1811870    -2.0318670    -0.6465910
  C        3.4033030    -1.5159070    -0.2032770
  C       -2.9440810    -1.3050920     0.9648860
  C       -3.8044560     0.3593180    -0.5664320
  C       -4.0170070    -0.7392060     0.2722830
  H        0.1024420    -1.6051810    -0.9713120
  H        4.4463530     0.1894450     0.5890330
  H       -0.8640325    -1.0675382     1.5455726
  H       -2.3449380     1.7597130    -1.3385060
  H        2.1152040    -3.0473210    -1.0273030
  H        4.2948280    -2.1392510    -0.2075020
  H       -3.1109310    -2.1478130     1.6315680
  H       -4.6398270     0.8046650    -1.1014830
  H       -5.0175780    -1.1483650     0.3907290
  H        1.7883890     2.5757360     0.3792320
  H        3.4241960     2.3021350     0.7487690
units angstrom
no_reorient  #important for SAPT in psi4, default
symmetry c1  #important for SAPT in psi4, default
}

set PROPERTIES_ORIGIN ["COM"]
properties('MP2/aug-cc-pvtz', properties = ['dipole'])
--------------------------------------------------------------------------

    Molecular point group: c1
  Charge       = 0
  Multiplicity = 1
  Basis Set: AUG-CC-PVTZ
    Blend: AUG-CC-PVTZ
  Basis Set: (AUG-CC-PVTZ AUX)
    Blend: AUG-CC-PVTZ-JKFIT

    Orbital Energies [Eh]
    ---------------------

    Doubly Occupied:

       1A    -20.541202     2A    -15.561694     3A    -11.341185
       4A    -11.298626     5A    -11.255101     6A    -11.254014
       7A    -11.253521     8A    -11.251671     9A    -11.250708
      10A    -11.248480    11A    -11.246410    12A    -11.245098
      13A    -11.240660    14A    -11.232969    15A    -11.228984
      16A     -1.374140    17A     -1.228256    18A     -1.164449
      19A     -1.138003    20A     -1.057105    21A     -1.026414
      22A     -1.020670    23A     -0.997173    24A     -0.892997
      25A     -0.848812    26A     -0.837136    27A     -0.819830
      28A     -0.770122    29A     -0.717386    30A     -0.700550
      31A     -0.688263    32A     -0.669480    33A     -0.646869
      34A     -0.634215    35A     -0.615105    36A     -0.610947
      37A     -0.604043    38A     -0.596026    39A     -0.587126
      40A     -0.553548    41A     -0.535223    42A     -0.523700
      43A     -0.521172    44A     -0.510285    45A     -0.503237
      46A     -0.488291    47A     -0.453545    48A     -0.421648
      49A     -0.352892    50A     -0.345780    51A     -0.343435
      52A     -0.301604

  @DF-RHF Final Energy:  -628.22149779181325

   => Energetics <=

    Nuclear Repulsion Energy =            892.9265161231226102
    One-Electron Energy =               -2625.1964329020988771
    Two-Electron Energy =                1104.0484189871631315
    Total Energy =                       -628.2214977918131353
  Basis Set: (AUG-CC-PVTZ AUX)
    Blend: AUG-CC-PVTZ-RI
    Molecular point group: c1

    Geometry (in Angstrom), charge = 0, multiplicity = 1:

       Center              X                  Y                   Z               Mass
    ------------   -----------------  -----------------  -----------------  -----------------
         O           -0.040400476397     2.166518782052    -0.306133732882    15.994914619570
         N            2.481945523603     1.913783782052     0.751312267118    14.003074004430
         C            1.117433523603     0.084913782052    -0.140180732882    12.000000000000
         C           -1.440329476397     0.287601782052    -0.037541732882    12.000000000000
         C           -0.099261476397     0.932346782052    -0.171543732882    12.000000000000
         C            2.369663523603     0.624173782052     0.255658267118    12.000000000000
         C            1.055461523603    -1.239398217948    -0.614325732882    12.000000000000
         C            3.489473523603    -0.227484217948     0.259115267118    12.000000000000
         C           -1.654552476397    -0.811475217948     0.807833267118    12.000000000000
         C           -2.523543476397     0.871364782052    -0.709697732882    12.000000000000
         C            2.182540523603    -2.051171217948    -0.645326732882    12.000000000000
         C            3.404656523603    -1.535211217948    -0.202012732882    12.000000000000
         C           -2.942727476397    -1.324396217948     0.966150267118    12.000000000000
         C           -3.803102476397     0.340013782052    -0.565167732882    12.000000000000
         C           -4.015653476397    -0.758510217948     0.273547267118    12.000000000000
         H            0.103795523603    -1.624485217948    -0.970047732882     1.007825032230
         H            4.447706523603     0.170140782052     0.590297267118     1.007825032230
         H           -0.862678976397    -1.086842417948     1.546836867118     1.007825032230
         H           -2.343584476397     1.740408782052    -1.337241732882     1.007825032230
         H            2.116557523603    -3.066625217948    -1.026038732882     1.007825032230
         H            4.296181523603    -2.158555217948    -0.206237732882     1.007825032230
         H           -3.109577476397    -2.167117217948     1.632832267118     1.007825032230
         H           -4.638473476397     0.785360782052    -1.100218732882     1.007825032230
         H           -5.016224476397    -1.167669217948     0.391993267118     1.007825032230
         H            1.789742523603     2.556431782052     0.380496267118     1.007825032230
         H            3.425549523603     2.282830782052     0.750033267118     1.007825032230

  Basis Set: AUG-CC-PVTZ
    Blend: AUG-CC-PVTZ
  Basis Set: (AUG-CC-PVTZ AUX)
    Blend: AUG-CC-PVTZ-JKFIT
	 Reference Energy          =    -628.2214977918132490 [Eh]
	 Singles Energy            =      -0.0000000000000000 [Eh]
	 Same-Spin Energy          =      -0.6917883493915007 [Eh]
	 Opposite-Spin Energy      =      -2.1102003245374719 [Eh]
	 Correlation Energy        =      -2.8019886739289728 [Eh]
	 Total Energy              =    -631.0234864657421667 [Eh]

	 ================> DF-SCS-MP2 Energies <==================
	-----------------------------------------------------------
	 SCS Same-Spin Scale       =       0.3333333333333333 [-]
	 SCS Opposite-Spin Scale   =       1.2000000000000000 [-]
	 SCS Same-Spin Energy      =      -0.2305961164638335 [Eh]
	 SCS Opposite-Spin Energy  =      -2.5322403894449663 [Eh]
	 SCS Correlation Energy    =      -2.7628365059087998 [Eh]
	 SCS Total Energy          =    -630.9843342977220573 [Eh]
	-----------------------------------------------------------

  Dipole Moment: [D]
     X:     0.2727      Y:    -1.5580      Z:    -0.0111     Total:     1.5818

*** Psi4 exiting successfully. Buy a developer a beer!
