                               Psi4 1.4a2.dev612

  ==> Input File <==

--------------------------------------------------------------------------
#psi4
#
memory 32 gb

molecule  {
0 1
  O       -0.0417540     2.1858230    -0.3073980
  N        2.4805920     1.9330880     0.7500480
  C        1.1160800     0.1042180    -0.1414450
  C       -1.4416830     0.3069060    -0.0388060
  C       -0.1006150     0.9516510    -0.1728080
  C        2.3683100     0.6434780     0.2543940
  C        1.0541080    -1.2200940    -0.6155900
  C        3.4881200    -0.2081800     0.2578510
  C       -1.6559060    -0.7921710     0.8065690
  C       -2.4967954     0.8002616    -0.8273097
  C        2.1811870    -2.0318670    -0.6465910
  C        3.4033030    -1.5159070    -0.2032770
  C       -2.9440810    -1.3050920     0.9648860
  C       -3.8044560     0.3593180    -0.5664320
  C       -4.0170070    -0.7392060     0.2722830
  H        0.1024420    -1.6051810    -0.9713120
  H        4.4463530     0.1894450     0.5890330
  H       -0.8230280    -1.2242950     1.3551890
  H       -2.3449380     1.7597130    -1.3385060
  H        2.1152040    -3.0473210    -1.0273030
  H        4.2948280    -2.1392510    -0.2075020
  H       -3.1109310    -2.1478130     1.6315680
  H       -4.6398270     0.8046650    -1.1014830
  H       -5.0175780    -1.1483650     0.3907290
  H        1.7883890     2.5757360     0.3792320
  H        3.4241960     2.3021350     0.7487690
units angstrom
no_reorient  #important for SAPT in psi4, default
symmetry c1  #important for SAPT in psi4, default
}

set PROPERTIES_ORIGIN ["COM"]
properties('MP2/aug-cc-pvtz', properties = ['dipole'])
--------------------------------------------------------------------------

    Molecular point group: c1
  Charge       = 0
  Multiplicity = 1
  Basis Set: AUG-CC-PVTZ
    Blend: AUG-CC-PVTZ
  Basis Set: (AUG-CC-PVTZ AUX)
    Blend: AUG-CC-PVTZ-JKFIT

    Orbital Energies [Eh]
    ---------------------

    Doubly Occupied:

       1A    -20.543063     2A    -15.562230     3A    -11.342244
       4A    -11.299279     5A    -11.254703     6A    -11.254336
       7A    -11.252705     8A    -11.251292     9A    -11.250560
      10A    -11.249470    11A    -11.247196    12A    -11.246912
      13A    -11.241366    14A    -11.233730    15A    -11.229973
      16A     -1.375318    17A     -1.228848    18A     -1.163550
      19A     -1.138685    20A     -1.057763    21A     -1.025461
      22A     -1.020646    23A     -0.997963    24A     -0.893336
      25A     -0.848929    26A     -0.838498    27A     -0.819974
      28A     -0.770158    29A     -0.717879    30A     -0.701816
      31A     -0.688930    32A     -0.670308    33A     -0.647666
      34A     -0.633857    35A     -0.615993    36A     -0.612005
      37A     -0.605246    38A     -0.594680    39A     -0.587937
      40A     -0.554410    41A     -0.536152    42A     -0.525643
      43A     -0.520177    44A     -0.510479    45A     -0.499430
      46A     -0.490225    47A     -0.454232    48A     -0.422361
      49A     -0.352201    50A     -0.345830    51A     -0.344337
      52A     -0.302375

  @DF-RHF Final Energy:  -628.21883288214167

   => Energetics <=

    Nuclear Repulsion Energy =            893.0195286714788381
    One-Electron Energy =               -2625.3320081388187646
    Two-Electron Energy =                1104.0936465851982575
    Total Energy =                       -628.2188328821416690
  Basis Set: (AUG-CC-PVTZ AUX)
    Blend: AUG-CC-PVTZ-RI
    Molecular point group: c1

    Geometry (in Angstrom), charge = 0, multiplicity = 1:

       Center              X                  Y                   Z               Mass
    ------------   -----------------  -----------------  -----------------  -----------------
         O           -0.042321202781     2.172825087098    -0.298076025294    15.994914619570
         N            2.480024797219     1.920090087098     0.759369974706    14.003074004430
         C            1.115512797219     0.091220087098    -0.132123025294    12.000000000000
         C           -1.442250202781     0.293908087098    -0.029484025294    12.000000000000
         C           -0.101182202781     0.938653087098    -0.163486025294    12.000000000000
         C            2.367742797219     0.630480087098     0.263715974706    12.000000000000
         C            1.053540797219    -1.233091912902    -0.606268025294    12.000000000000
         C            3.487552797219    -0.221177912902     0.267172974706    12.000000000000
         C           -1.656473202781    -0.805168912902     0.815890974706    12.000000000000
         C           -2.497362602781     0.787263687098    -0.817987725294    12.000000000000
         C            2.180619797219    -2.044864912902    -0.637269025294    12.000000000000
         C            3.402735797219    -1.528904912902    -0.193955025294    12.000000000000
         C           -2.944648202781    -1.318089912902     0.974207974706    12.000000000000
         C           -3.805023202781     0.346320087098    -0.557110025294    12.000000000000
         C           -4.017574202781    -0.752203912902     0.281604974706    12.000000000000
         H            0.101874797219    -1.618178912902    -0.961990025294     1.007825032230
         H            4.445785797219     0.176447087098     0.598354974706     1.007825032230
         H           -0.823595202781    -1.237292912902     1.364510974706     1.007825032230
         H           -2.345505202781     1.746715087098    -1.329184025294     1.007825032230
         H            2.114636797219    -3.060318912902    -1.017981025294     1.007825032230
         H            4.294260797219    -2.152248912902    -0.198180025294     1.007825032230
         H           -3.111498202781    -2.160810912902     1.640889974706     1.007825032230
         H           -4.640394202781     0.791667087098    -1.092161025294     1.007825032230
         H           -5.018145202781    -1.161362912902     0.400050974706     1.007825032230
         H            1.787821797219     2.562738087098     0.388553974706     1.007825032230
         H            3.423628797219     2.289137087098     0.758090974706     1.007825032230

  Basis Set: AUG-CC-PVTZ
    Blend: AUG-CC-PVTZ
  Basis Set: (AUG-CC-PVTZ AUX)
    Blend: AUG-CC-PVTZ-JKFIT
	 Reference Energy          =    -628.2188328821416690 [Eh]
	 Singles Energy            =      -0.0000000000000000 [Eh]
	 Same-Spin Energy          =      -0.6919595105361498 [Eh]
	 Opposite-Spin Energy      =      -2.1108317926484608 [Eh]
	 Correlation Energy        =      -2.8027913031846108 [Eh]
	 Total Energy              =    -631.0216241853262318 [Eh]

	 ================> DF-SCS-MP2 Energies <==================
	-----------------------------------------------------------
	 SCS Same-Spin Scale       =       0.3333333333333333 [-]
	 SCS Opposite-Spin Scale   =       1.2000000000000000 [-]
	 SCS Same-Spin Energy      =      -0.2306531701787166 [Eh]
	 SCS Opposite-Spin Energy  =      -2.5329981511781527 [Eh]
	 SCS Correlation Energy    =      -2.7636513213568694 [Eh]
	 SCS Total Energy          =    -630.9824842034985295 [Eh]
	-----------------------------------------------------------

  Dipole Moment: [D]
     X:     0.3839      Y:    -1.6184      Z:    -0.0182     Total:     1.6634

*** Psi4 exiting successfully. Buy a developer a beer!
