                               Psi4 1.4a2.dev612

  ==> Input File <==

--------------------------------------------------------------------------
#psi4
#
memory 32 gb

molecule  {
0 1
  O       -0.0417540     2.1858230    -0.3073980
  N        2.4805920     1.9330880     0.7500480
  C        1.1160800     0.1042180    -0.1414450
  C       -1.4416830     0.3069060    -0.0388060
  C       -0.1006150     0.9516510    -0.1728080
  C        2.3683100     0.6434780     0.2543940
  C        1.0541080    -1.2200940    -0.6155900
  C        3.4881200    -0.2081800     0.2578510
  C       -1.6559060    -0.7921710     0.8065690
  C       -2.5248970     0.8906690    -0.7109620
  C        2.1811870    -2.0318670    -0.6465910
  C        3.4033030    -1.5159070    -0.2032770
  C       -2.9440810    -1.3050920     0.9648860
  C       -3.8044560     0.3593180    -0.5664320
  C       -4.0170070    -0.7392060     0.2722830
  H        0.1234874    -1.5728680    -1.0635777
  H        4.4463530     0.1894450     0.5890330
  H       -0.8230280    -1.2242950     1.3551890
  H       -2.3449380     1.7597130    -1.3385060
  H        2.1152040    -3.0473210    -1.0273030
  H        4.2948280    -2.1392510    -0.2075020
  H       -3.1109310    -2.1478130     1.6315680
  H       -4.6398270     0.8046650    -1.1014830
  H       -5.0175780    -1.1483650     0.3907290
  H        1.7883890     2.5757360     0.3792320
  H        3.4241960     2.3021350     0.7487690
units angstrom
no_reorient  #important for SAPT in psi4, default
symmetry c1  #important for SAPT in psi4, default
}

set PROPERTIES_ORIGIN ["COM"]
properties('MP2/aug-cc-pvtz', properties = ['dipole'])
--------------------------------------------------------------------------

    Molecular point group: c1
  Charge       = 0
  Multiplicity = 1
  Basis Set: AUG-CC-PVTZ
    Blend: AUG-CC-PVTZ
  Basis Set: (AUG-CC-PVTZ AUX)
    Blend: AUG-CC-PVTZ-JKFIT

    Orbital Energies [Eh]
    ---------------------

    Doubly Occupied:

       1A    -20.541335     2A    -15.561942     3A    -11.341352
       4A    -11.299108     5A    -11.254747     6A    -11.254566
       7A    -11.252376     8A    -11.251320     9A    -11.249961
      10A    -11.247958    11A    -11.245533    12A    -11.244219
      13A    -11.241143    14A    -11.233719    15A    -11.229978
      16A     -1.374217    17A     -1.228595    18A     -1.164107
      19A     -1.138594    20A     -1.057321    21A     -1.026292
      22A     -1.021000    23A     -0.997764    24A     -0.893227
      25A     -0.849134    26A     -0.838367    27A     -0.820017
      28A     -0.770380    29A     -0.718173    30A     -0.701610
      31A     -0.688658    32A     -0.670388    33A     -0.647569
      34A     -0.634339    35A     -0.615778    36A     -0.610887
      37A     -0.604765    38A     -0.597159    39A     -0.587458
      40A     -0.553967    41A     -0.535817    42A     -0.526561
      43A     -0.520033    44A     -0.509502    45A     -0.502061
      46A     -0.490801    47A     -0.453868    48A     -0.421961
      49A     -0.352310    50A     -0.345779    51A     -0.344281
      52A     -0.302102

  @DF-RHF Final Energy:  -628.22541193867596

   => Energetics <=

    Nuclear Repulsion Energy =            893.1163067445929755
    One-Electron Energy =               -2625.5552397942151401
    Two-Electron Energy =                1104.2135211109462034
    Total Energy =                       -628.2254119386759612
  Basis Set: (AUG-CC-PVTZ AUX)
    Blend: AUG-CC-PVTZ-RI
    Molecular point group: c1

    Geometry (in Angstrom), charge = 0, multiplicity = 1:

       Center              X                  Y                   Z               Mass
    ------------   -----------------  -----------------  -----------------  -----------------
         O           -0.040717779791     2.167155147947    -0.304688354529    15.994914619570
         N            2.481628220209     1.914420147947     0.752757645471    14.003074004430
         C            1.117116220209     0.085550147947    -0.138735354529    12.000000000000
         C           -1.440646779791     0.288238147947    -0.036096354529    12.000000000000
         C           -0.099578779791     0.932983147947    -0.170098354529    12.000000000000
         C            2.369346220209     0.624810147947     0.257103645471    12.000000000000
         C            1.055144220209    -1.238761852053    -0.612880354529    12.000000000000
         C            3.489156220209    -0.226847852053     0.260560645471    12.000000000000
         C           -1.654869779791    -0.810838852053     0.809278645471    12.000000000000
         C           -2.523860779791     0.872001147947    -0.708252354529    12.000000000000
         C            2.182223220209    -2.050534852053    -0.643881354529    12.000000000000
         C            3.404339220209    -1.534574852053    -0.200567354529    12.000000000000
         C           -2.943044779791    -1.323759852053     0.967595645471    12.000000000000
         C           -3.803419779791     0.340650147947    -0.563722354529    12.000000000000
         C           -4.015970779791    -0.757873852053     0.274992645471    12.000000000000
         H            0.124523620209    -1.591535852053    -1.060868054529     1.007825032230
         H            4.447389220209     0.170777147947     0.591742645471     1.007825032230
         H           -0.821991779791    -1.242962852053     1.357898645471     1.007825032230
         H           -2.343901779791     1.741045147947    -1.335796354529     1.007825032230
         H            2.116240220209    -3.065988852053    -1.024593354529     1.007825032230
         H            4.295864220209    -2.157918852053    -0.204792354529     1.007825032230
         H           -3.109894779791    -2.166480852053     1.634277645471     1.007825032230
         H           -4.638790779791     0.785997147947    -1.098773354529     1.007825032230
         H           -5.016541779791    -1.167032852053     0.393438645471     1.007825032230
         H            1.789425220209     2.557068147947     0.381941645471     1.007825032230
         H            3.425232220209     2.283467147947     0.751478645471     1.007825032230

  Basis Set: AUG-CC-PVTZ
    Blend: AUG-CC-PVTZ
  Basis Set: (AUG-CC-PVTZ AUX)
    Blend: AUG-CC-PVTZ-JKFIT
	 Reference Energy          =    -628.2254119386759612 [Eh]
	 Singles Energy            =      -0.0000000000000000 [Eh]
	 Same-Spin Energy          =      -0.6915775099691481 [Eh]
	 Opposite-Spin Energy      =      -2.1096723788090364 [Eh]
	 Correlation Energy        =      -2.8012498887781847 [Eh]
	 Total Energy              =    -631.0266618274541770 [Eh]

	 ================> DF-SCS-MP2 Energies <==================
	-----------------------------------------------------------
	 SCS Same-Spin Scale       =       0.3333333333333333 [-]
	 SCS Opposite-Spin Scale   =       1.2000000000000000 [-]
	 SCS Same-Spin Energy      =      -0.2305258366563827 [Eh]
	 SCS Opposite-Spin Energy  =      -2.5316068545708434 [Eh]
	 SCS Correlation Energy    =      -2.7621326912272259 [Eh]
	 SCS Total Energy          =    -630.9875446299031410 [Eh]
	-----------------------------------------------------------

  Dipole Moment: [D]
     X:     0.3786      Y:    -1.6277      Z:    -0.1495     Total:     1.6778

*** Psi4 exiting successfully. Buy a developer a beer!
