                               Psi4 1.4a2.dev612

  ==> Input File <==

--------------------------------------------------------------------------
#psi4
#
memory 32 gb

molecule  {
0 1
  O       -0.0417540     2.1858230    -0.3073980
  N        2.4805920     1.9330880     0.7500480
  C        1.1160800     0.1042180    -0.1414450
  C       -1.4465087     0.2963038    -0.1381252
  C       -0.1006150     0.9516510    -0.1728080
  C        2.3683100     0.6434780     0.2543940
  C        1.0541080    -1.2200940    -0.6155900
  C        3.4881200    -0.2081800     0.2578510
  C       -1.6559060    -0.7921710     0.8065690
  C       -2.5248970     0.8906690    -0.7109620
  C        2.1811870    -2.0318670    -0.6465910
  C        3.4033030    -1.5159070    -0.2032770
  C       -2.9440810    -1.3050920     0.9648860
  C       -3.8044560     0.3593180    -0.5664320
  C       -4.0170070    -0.7392060     0.2722830
  H        0.1024420    -1.6051810    -0.9713120
  H        4.4463530     0.1894450     0.5890330
  H       -0.8230280    -1.2242950     1.3551890
  H       -2.3449380     1.7597130    -1.3385060
  H        2.1152040    -3.0473210    -1.0273030
  H        4.2948280    -2.1392510    -0.2075020
  H       -3.1109310    -2.1478130     1.6315680
  H       -4.6398270     0.8046650    -1.1014830
  H       -5.0175780    -1.1483650     0.3907290
  H        1.7883890     2.5757360     0.3792320
  H        3.4241960     2.3021350     0.7487690
units angstrom
no_reorient  #important for SAPT in psi4, default
symmetry c1  #important for SAPT in psi4, default
}

set PROPERTIES_ORIGIN ["COM"]
properties('MP2/aug-cc-pvtz', properties = ['dipole'])
--------------------------------------------------------------------------

    Molecular point group: c1
  Charge       = 0
  Multiplicity = 1
  Basis Set: AUG-CC-PVTZ
    Blend: AUG-CC-PVTZ
  Basis Set: (AUG-CC-PVTZ AUX)
    Blend: AUG-CC-PVTZ-JKFIT

    Orbital Energies [Eh]
    ---------------------

    Doubly Occupied:

       1A    -20.541070     2A    -15.561874     3A    -11.341641
       4A    -11.298928     5A    -11.257809     6A    -11.254513
       7A    -11.254049     8A    -11.251917     9A    -11.250218
      10A    -11.245814    11A    -11.245009    12A    -11.243398
      13A    -11.241180    14A    -11.233483    15A    -11.229790
      16A     -1.373929    17A     -1.228494    18A     -1.163893
      19A     -1.138583    20A     -1.056509    21A     -1.031753
      22A     -1.016655    23A     -0.997700    24A     -0.893117
      25A     -0.850242    26A     -0.839752    27A     -0.817297
      28A     -0.769535    29A     -0.718066    30A     -0.702426
      31A     -0.688432    32A     -0.669175    33A     -0.648455
      34A     -0.634897    35A     -0.613682    36A     -0.612706
      37A     -0.604784    38A     -0.596455    39A     -0.586690
      40A     -0.555576    41A     -0.535640    42A     -0.528482
      43A     -0.519392    44A     -0.509201    45A     -0.498925
      46A     -0.491204    47A     -0.453969    48A     -0.421742
      49A     -0.352445    50A     -0.349817    51A     -0.340537
      52A     -0.301957

  @DF-RHF Final Energy:  -628.21984893817773

   => Energetics <=

    Nuclear Repulsion Energy =            893.0713208639683671
    One-Electron Energy =               -2625.4567243412898279
    Two-Electron Energy =                1104.1655545391438409
    Total Energy =                       -628.2198489381776199
  Basis Set: (AUG-CC-PVTZ AUX)
    Blend: AUG-CC-PVTZ-RI
    Molecular point group: c1

    Geometry (in Angstrom), charge = 0, multiplicity = 1:

       Center              X                  Y                   Z               Mass
    ------------   -----------------  -----------------  -----------------  -----------------
         O           -0.040316334442     2.167965930144    -0.299112851894    15.994914619570
         N            2.482029665558     1.915230930144     0.758333148106    14.003074004430
         C            1.117517665558     0.086360930144    -0.133159851894    12.000000000000
         C           -1.445071034442     0.278446730144    -0.129840051894    12.000000000000
         C           -0.099177334442     0.933793930144    -0.164522851894    12.000000000000
         C            2.369747665558     0.625620930144     0.262679148106    12.000000000000
         C            1.055545665558    -1.237951069856    -0.607304851894    12.000000000000
         C            3.489557665558    -0.226037069856     0.266136148106    12.000000000000
         C           -1.654468334442    -0.810028069856     0.814854148106    12.000000000000
         C           -2.523459334442     0.872811930144    -0.702676851894    12.000000000000
         C            2.182624665558    -2.049724069856    -0.638305851894    12.000000000000
         C            3.404740665558    -1.533764069856    -0.194991851894    12.000000000000
         C           -2.942643334442    -1.322949069856     0.973171148106    12.000000000000
         C           -3.803018334442     0.341460930144    -0.558146851894    12.000000000000
         C           -4.015569334442    -0.757063069856     0.280568148106    12.000000000000
         H            0.103879665558    -1.623038069856    -0.963026851894     1.007825032230
         H            4.447790665558     0.171587930144     0.597318148106     1.007825032230
         H           -0.821590334442    -1.242152069856     1.363474148106     1.007825032230
         H           -2.343500334442     1.741855930144    -1.330220851894     1.007825032230
         H            2.116641665558    -3.065178069856    -1.019017851894     1.007825032230
         H            4.296265665558    -2.157108069856    -0.199216851894     1.007825032230
         H           -3.109493334442    -2.165670069856     1.639853148106     1.007825032230
         H           -4.638389334442     0.786807930144    -1.093197851894     1.007825032230
         H           -5.016140334442    -1.166222069856     0.399014148106     1.007825032230
         H            1.789826665558     2.557878930144     0.387517148106     1.007825032230
         H            3.425633665558     2.284277930144     0.757054148106     1.007825032230

  Basis Set: AUG-CC-PVTZ
    Blend: AUG-CC-PVTZ
  Basis Set: (AUG-CC-PVTZ AUX)
    Blend: AUG-CC-PVTZ-JKFIT
	 Reference Energy          =    -628.2198489381777335 [Eh]
	 Singles Energy            =      -0.0000000000000000 [Eh]
	 Same-Spin Energy          =      -0.6916714366473579 [Eh]
	 Opposite-Spin Energy      =      -2.1101415877222478 [Eh]
	 Correlation Energy        =      -2.8018130243696056 [Eh]
	 Total Energy              =    -631.0216619625473413 [Eh]

	 ================> DF-SCS-MP2 Energies <==================
	-----------------------------------------------------------
	 SCS Same-Spin Scale       =       0.3333333333333333 [-]
	 SCS Opposite-Spin Scale   =       1.2000000000000000 [-]
	 SCS Same-Spin Energy      =      -0.2305571455491193 [Eh]
	 SCS Opposite-Spin Energy  =      -2.5321699052666973 [Eh]
	 SCS Correlation Energy    =      -2.7627270508158164 [Eh]
	 SCS Total Energy          =    -630.9825759889935171 [Eh]
	-----------------------------------------------------------

  Dipole Moment: [D]
     X:     0.3433      Y:    -1.6348      Z:    -0.0933     Total:     1.6730

*** Psi4 exiting successfully. Buy a developer a beer!
