                               Psi4 1.3.2 release

  ==> Input File <==

--------------------------------------------------------------------------
#psi4
#
memory 32 gb

molecule  {
0 1
 Br       -1.3836610    -0.1471480    -0.0001220
  O        0.8234410     1.5925820     0.0002040
  C        1.4591744    -0.7608686    -0.2992300
  C        2.9264930    -0.3526980    -0.0006480
  C        0.5406660     0.4304600     0.0002430
  H        1.1964500    -1.3653870     0.8759120
  H        1.1952150    -1.3675680    -0.8724330
  H        3.1657420     0.2413720    -0.8848640
  H        3.1669300     0.2432120     0.8819950
  H        3.5587740    -1.2437650    -0.0001660
units angstrom
no_reorient  #important for SAPT in psi4, default
symmetry c1  #important for SAPT in psi4, default
}

set PROPERTIES_ORIGIN ["COM"]
properties('MP2/aug-cc-pvtz', properties = ['dipole'])
--------------------------------------------------------------------------

    Molecular point group: c1
  Charge       = 0
  Multiplicity = 1
  Basis Set: AUG-CC-PVTZ
    Blend: AUG-CC-PVTZ
  Basis Set: (AUG-CC-PVTZ AUX)
    Blend: AUG-CC-PVTZ-JKFIT

    Orbital Energies [Eh]
    ---------------------

    Doubly Occupied:

       1A   -490.025254     2A    -65.165166     3A    -58.520351
       4A    -58.519123     5A    -58.519000     6A    -20.603322
       7A    -11.418163     8A    -11.286929     9A    -11.249697
      10A     -9.837808    11A     -7.448815    12A     -7.443009
      13A     -7.442490    14A     -3.192245    15A     -3.189445
      16A     -3.188736    17A     -3.181313    18A     -3.181295
      19A     -1.444803    20A     -1.096559    21A     -1.022650
      22A     -0.918817    23A     -0.792341    24A     -0.698898
      25A     -0.648787    26A     -0.630594    27A     -0.591425
      28A     -0.573105    29A     -0.555208    30A     -0.463441
      31A     -0.427469    32A     -0.422084    33A     -0.415911

  @DF-RHF Final Energy: -2763.81981154433834

   => Energetics <=

    Nuclear Repulsion Energy =            305.9204981305928186
    One-Electron Energy =               -4451.2521101757074575
    Two-Electron Energy =                1381.5118005007759621
    Total Energy =                      -2763.8198115443383358
  Basis Set: (AUG-CC-PVTZ AUX)
    Blend: AUG-CC-PVTZ-RI
    Molecular point group: c1

    Geometry (in Angstrom), charge = 0, multiplicity = 1:

       Center              X                  Y                   Z               Mass
    ------------   -----------------  -----------------  -----------------  -----------------
         BR          -1.203229216711    -0.162916729742     0.026369170435    78.918337600000
         O            1.003872783289     1.576813270258     0.026695170435    15.994914619570
         C            1.639606183289    -0.776637329742    -0.272738829565    12.000000000000
         C            3.106924783289    -0.368466729742     0.025843170435    12.000000000000
         C            0.721097783289     0.414691270258     0.026734170435    12.000000000000
         H            1.376881783289    -1.381155729742     0.902403170435     1.007825032230
         H            1.375646783289    -1.383336729742    -0.845941829565     1.007825032230
         H            3.346173783289     0.225603270258    -0.858372829565     1.007825032230
         H            3.347361783289     0.227443270258     0.908486170435     1.007825032230
         H            3.739205783289    -1.259533729742     0.026325170435     1.007825032230

  Basis Set: AUG-CC-PVTZ
    Blend: AUG-CC-PVTZ
  Basis Set: (AUG-CC-PVTZ AUX)
    Blend: AUG-CC-PVTZ-JKFIT
	 Reference Energy          =   -2763.8198115443383358 [Eh]
	 Singles Energy            =      -0.0000000000000000 [Eh]
	 Same-Spin Energy          =      -0.2822877006912968 [Eh]
	 Opposite-Spin Energy      =      -0.8352354301878768 [Eh]
	 Correlation Energy        =      -1.1175231308791735 [Eh]
	 Total Energy              =   -2764.9373346752176985 [Eh]

	 ================> DF-SCS-MP2 Energies <==================
	-----------------------------------------------------------
	 SCS Same-Spin Scale       =       0.3333333333333333 [-]
	 SCS Opposite-Spin Scale   =       1.2000000000000000 [-]
	 SCS Same-Spin Energy      =      -0.0940959002304323 [Eh]
	 SCS Opposite-Spin Energy  =      -1.0022825162254521 [Eh]
	 SCS Correlation Energy    =      -1.0963784164558843 [Eh]
	 SCS Total Energy          =   -2764.9161899607943269 [Eh]
	-----------------------------------------------------------

  Dipole Moment: [D]
     X:     2.3193      Y:    -1.9750      Z:    -0.1116     Total:     3.0484

*** Psi4 exiting successfully. Buy a developer a beer!
