                               Psi4 1.3.2 release

  ==> Input File <==

--------------------------------------------------------------------------
#psi4
#
memory 32 gb

molecule  {
0 1
 Br       -1.3836610    -0.1471480    -0.0001220
  O        0.8234410     1.5925820     0.0002040
  C        1.4591605    -0.7608603    -0.2492300
  C        2.9264930    -0.3526980    -0.0006480
  C        0.5406660     0.4304600     0.0002430
  H        1.1964500    -1.3653870     0.8759120
  H        1.1952150    -1.3675680    -0.8724330
  H        3.1657420     0.2413720    -0.8848640
  H        3.1669300     0.2432120     0.8819950
  H        3.5587740    -1.2437650    -0.0001660
units angstrom
no_reorient  #important for SAPT in psi4, default
symmetry c1  #important for SAPT in psi4, default
}

set PROPERTIES_ORIGIN ["COM"]
properties('MP2/aug-cc-pvtz', properties = ['dipole'])
--------------------------------------------------------------------------

    Molecular point group: c1
  Charge       = 0
  Multiplicity = 1
  Basis Set: AUG-CC-PVTZ
    Blend: AUG-CC-PVTZ
  Basis Set: (AUG-CC-PVTZ AUX)
    Blend: AUG-CC-PVTZ-JKFIT

    Orbital Energies [Eh]
    ---------------------

    Doubly Occupied:

       1A   -490.025307     2A    -65.165224     3A    -58.520405
       4A    -58.519185     5A    -58.519062     6A    -20.603501
       7A    -11.416686     8A    -11.283669     9A    -11.247440
      10A     -9.837868    11A     -7.448860    12A     -7.443082
      13A     -7.442564    14A     -3.192283    15A     -3.189495
      16A     -3.188785    17A     -3.181400    18A     -3.181383
      19A     -1.444854    20A     -1.096486    21A     -1.022814
      22A     -0.916344    23A     -0.785258    24A     -0.696698
      25A     -0.650117    26A     -0.634445    27A     -0.585493
      28A     -0.571422    29A     -0.556995    30A     -0.473959
      31A     -0.427902    32A     -0.422471    33A     -0.417271

  @DF-RHF Final Energy: -2763.84961356245412

   => Energetics <=

    Nuclear Repulsion Energy =            306.1019986564656392
    One-Electron Energy =               -4451.6857674724196841
    Two-Electron Energy =                1381.7341552534994662
    Total Energy =                      -2763.8496135624541239
  Basis Set: (AUG-CC-PVTZ AUX)
    Blend: AUG-CC-PVTZ-RI
    Molecular point group: c1

    Geometry (in Angstrom), charge = 0, multiplicity = 1:

       Center              X                  Y                   Z               Mass
    ------------   -----------------  -----------------  -----------------  -----------------
         BR          -1.203227989810    -0.162917462352     0.021955860337    78.918337600000
         O            1.003874010190     1.576812537648     0.022281860337    15.994914619570
         C            1.639593510190    -0.776629762352    -0.227152139663    12.000000000000
         C            3.106926010190    -0.368467462352     0.021429860337    12.000000000000
         C            0.721099010190     0.414690537648     0.022320860337    12.000000000000
         H            1.376883010190    -1.381156462352     0.897989860337     1.007825032230
         H            1.375648010190    -1.383337462352    -0.850355139663     1.007825032230
         H            3.346175010190     0.225602537648    -0.862786139663     1.007825032230
         H            3.347363010190     0.227442537648     0.904072860337     1.007825032230
         H            3.739207010190    -1.259534462352     0.021911860337     1.007825032230

  Basis Set: AUG-CC-PVTZ
    Blend: AUG-CC-PVTZ
  Basis Set: (AUG-CC-PVTZ AUX)
    Blend: AUG-CC-PVTZ-JKFIT
	 Reference Energy          =   -2763.8496135624541239 [Eh]
	 Singles Energy            =      -0.0000000000000000 [Eh]
	 Same-Spin Energy          =      -0.2818890146956605 [Eh]
	 Opposite-Spin Energy      =      -0.8337521582160956 [Eh]
	 Correlation Energy        =      -1.1156411729117561 [Eh]
	 Total Energy              =   -2764.9652547353657610 [Eh]

	 ================> DF-SCS-MP2 Energies <==================
	-----------------------------------------------------------
	 SCS Same-Spin Scale       =       0.3333333333333333 [-]
	 SCS Opposite-Spin Scale   =       1.2000000000000000 [-]
	 SCS Same-Spin Energy      =      -0.0939630048985535 [Eh]
	 SCS Opposite-Spin Energy  =      -1.0005025898593147 [Eh]
	 SCS Correlation Energy    =      -1.0944655947578683 [Eh]
	 SCS Total Energy          =   -2764.9440791572119451 [Eh]
	-----------------------------------------------------------

  Dipole Moment: [D]
     X:     2.2955      Y:    -1.9830      Z:    -0.0961     Total:     3.0349

*** Psi4 exiting successfully. Buy a developer a beer!
