                               Psi4 1.3.2 release

  ==> Input File <==

--------------------------------------------------------------------------
#psi4
#
memory 32 gb

molecule  {
0 1
 Br       -1.3836610    -0.1471480    -0.0001220
  O        0.8234410     1.5925820     0.0002040
  C        1.4591327    -0.7608438    -0.1492300
  C        2.9264930    -0.3526980    -0.0006480
  C        0.5406660     0.4304600     0.0002430
  H        1.1964500    -1.3653870     0.8759120
  H        1.1952150    -1.3675680    -0.8724330
  H        3.1657420     0.2413720    -0.8848640
  H        3.1669300     0.2432120     0.8819950
  H        3.5587740    -1.2437650    -0.0001660
units angstrom
no_reorient  #important for SAPT in psi4, default
symmetry c1  #important for SAPT in psi4, default
}

set PROPERTIES_ORIGIN ["COM"]
properties('MP2/aug-cc-pvtz', properties = ['dipole'])
--------------------------------------------------------------------------

    Molecular point group: c1
  Charge       = 0
  Multiplicity = 1
  Basis Set: AUG-CC-PVTZ
    Blend: AUG-CC-PVTZ
  Basis Set: (AUG-CC-PVTZ AUX)
    Blend: AUG-CC-PVTZ-JKFIT

    Orbital Energies [Eh]
    ---------------------

    Doubly Occupied:

       1A   -490.025385     2A    -65.165311     3A    -58.520485
       4A    -58.519277     5A    -58.519153     6A    -20.603753
       7A    -11.414441     8A    -11.278875     9A    -11.244035
      10A     -9.837957    11A     -7.448926    12A     -7.443189
      13A     -7.442673    14A     -3.192337    15A     -3.189567
      16A     -3.188857    17A     -3.181530    18A     -3.181513
      19A     -1.444908    20A     -1.096493    21A     -1.023064
      22A     -0.913251    23A     -0.772700    24A     -0.690252
      25A     -0.654868    26A     -0.640411    27A     -0.575463
      28A     -0.566008    29A     -0.558023    30A     -0.496266
      31A     -0.428593    32A     -0.422842    33A     -0.418933

  @DF-RHF Final Energy: -2763.89256964172273

   => Energetics <=

    Nuclear Repulsion Energy =            306.3679112611817459
    One-Electron Energy =               -4452.3222830352815436
    Two-Electron Energy =                1382.0618021323773519
    Total Energy =                      -2763.8925696417227300
  Basis Set: (AUG-CC-PVTZ AUX)
    Blend: AUG-CC-PVTZ-RI
    Molecular point group: c1

    Geometry (in Angstrom), charge = 0, multiplicity = 1:

       Center              X                  Y                   Z               Mass
    ------------   -----------------  -----------------  -----------------  -----------------
         BR          -1.203225536010    -0.162918918744     0.013129240140    78.918337600000
         O            1.003876463990     1.576811081256     0.013455240140    15.994914619570
         C            1.639568163990    -0.776614718744    -0.135978759860    12.000000000000
         C            3.106928463990    -0.368468918744     0.012603240140    12.000000000000
         C            0.721101463990     0.414689081256     0.013494240140    12.000000000000
         H            1.376885463990    -1.381157918744     0.889163240140     1.007825032230
         H            1.375650463990    -1.383338918744    -0.859181759860     1.007825032230
         H            3.346177463990     0.225601081256    -0.871612759860     1.007825032230
         H            3.347365463990     0.227441081256     0.895246240140     1.007825032230
         H            3.739209463990    -1.259535918744     0.013085240140     1.007825032230

  Basis Set: AUG-CC-PVTZ
    Blend: AUG-CC-PVTZ
  Basis Set: (AUG-CC-PVTZ AUX)
    Blend: AUG-CC-PVTZ-JKFIT
	 Reference Energy          =   -2763.8925696417227300 [Eh]
	 Singles Energy            =      -0.0000000000000000 [Eh]
	 Same-Spin Energy          =      -0.2813239571129345 [Eh]
	 Opposite-Spin Energy      =      -0.8316123753807322 [Eh]
	 Correlation Energy        =      -1.1129363324936667 [Eh]
	 Total Energy              =   -2765.0055059742162484 [Eh]

	 ================> DF-SCS-MP2 Energies <==================
	-----------------------------------------------------------
	 SCS Same-Spin Scale       =       0.3333333333333333 [-]
	 SCS Opposite-Spin Scale   =       1.2000000000000000 [-]
	 SCS Same-Spin Energy      =      -0.0937746523709782 [Eh]
	 SCS Opposite-Spin Energy  =      -0.9979348504568786 [Eh]
	 SCS Correlation Energy    =      -1.0917095028278567 [Eh]
	 SCS Total Energy          =   -2764.9842791445507828 [Eh]
	-----------------------------------------------------------

  Dipole Moment: [D]
     X:     2.2579      Y:    -1.9985      Z:    -0.0592     Total:     3.0159

*** Psi4 exiting successfully. Buy a developer a beer!
