                               Psi4 1.3.2 release

  ==> Input File <==

--------------------------------------------------------------------------
#psi4
#
memory 32 gb

molecule  {
0 1
 Br       -1.3836610    -0.1471480    -0.0001220
  O        0.8234410     1.5925820     0.0002040
  C        1.4591466    -0.7608521    -0.1992300
  C        2.9264930    -0.3526980    -0.0006480
  C        0.5406660     0.4304600     0.0002430
  H        1.1964500    -1.3653870     0.8759120
  H        1.1952150    -1.3675680    -0.8724330
  H        3.1657420     0.2413720    -0.8848640
  H        3.1669300     0.2432120     0.8819950
  H        3.5587740    -1.2437650    -0.0001660
units angstrom
no_reorient  #important for SAPT in psi4, default
symmetry c1  #important for SAPT in psi4, default
}

set PROPERTIES_ORIGIN ["COM"]
properties('MP2/aug-cc-pvtz', properties = ['dipole'])
--------------------------------------------------------------------------

    Molecular point group: c1
  Charge       = 0
  Multiplicity = 1
  Basis Set: AUG-CC-PVTZ
    Blend: AUG-CC-PVTZ
  Basis Set: (AUG-CC-PVTZ AUX)
    Blend: AUG-CC-PVTZ-JKFIT

    Orbital Energies [Eh]
    ---------------------

    Doubly Occupied:

       1A   -490.025351     2A    -65.165272     3A    -58.520450
       4A    -58.519236     5A    -58.519112     6A    -20.603644
       7A    -11.415437     8A    -11.280978     9A    -11.245542
      10A     -9.837918    11A     -7.448897    12A     -7.443142
      13A     -7.442625    14A     -3.192313    15A     -3.189535
      16A     -3.188825    17A     -3.181473    18A     -3.181456
      19A     -1.444888    20A     -1.096473    21A     -1.022953
      22A     -0.914524    23A     -0.778512    24A     -0.693803
      25A     -0.652052    26A     -0.637845    27A     -0.579780
      28A     -0.569094    29A     -0.558250    30A     -0.485027
      31A     -0.428281    32A     -0.422709    33A     -0.418241

  @DF-RHF Final Energy: -2763.87385353959962

   => Energetics <=

    Nuclear Repulsion Energy =            306.2512767318493161
    One-Electron Energy =               -4452.0429829220965985
    Two-Electron Energy =                1381.9178526506475464
    Total Energy =                      -2763.8738535395996223
  Basis Set: (AUG-CC-PVTZ AUX)
    Blend: AUG-CC-PVTZ-RI
    Molecular point group: c1

    Geometry (in Angstrom), charge = 0, multiplicity = 1:

       Center              X                  Y                   Z               Mass
    ------------   -----------------  -----------------  -----------------  -----------------
         BR          -1.203226762910    -0.162918186135     0.017542550239    78.918337600000
         O            1.003875237090     1.576811813865     0.017868550239    15.994914619570
         C            1.639580837090    -0.776622286135    -0.181565449761    12.000000000000
         C            3.106927237090    -0.368468186135     0.017016550239    12.000000000000
         C            0.721100237090     0.414689813865     0.017907550239    12.000000000000
         H            1.376884237090    -1.381157186135     0.893576550239     1.007825032230
         H            1.375649237090    -1.383338186135    -0.854768449761     1.007825032230
         H            3.346176237090     0.225601813865    -0.867199449761     1.007825032230
         H            3.347364237090     0.227441813865     0.899659550239     1.007825032230
         H            3.739208237090    -1.259535186135     0.017498550239     1.007825032230

  Basis Set: AUG-CC-PVTZ
    Blend: AUG-CC-PVTZ
  Basis Set: (AUG-CC-PVTZ AUX)
    Blend: AUG-CC-PVTZ-JKFIT
	 Reference Energy          =   -2763.8738535395996223 [Eh]
	 Singles Energy            =      -0.0000000000000000 [Eh]
	 Same-Spin Energy          =      -0.2815688816420556 [Eh]
	 Opposite-Spin Energy      =      -0.8325433627024945 [Eh]
	 Correlation Energy        =      -1.1141122443445501 [Eh]
	 Total Energy              =   -2764.9879657839442189 [Eh]

	 ================> DF-SCS-MP2 Energies <==================
	-----------------------------------------------------------
	 SCS Same-Spin Scale       =       0.3333333333333333 [-]
	 SCS Opposite-Spin Scale   =       1.2000000000000000 [-]
	 SCS Same-Spin Energy      =      -0.0938562938806852 [Eh]
	 SCS Opposite-Spin Energy  =      -0.9990520352429934 [Eh]
	 SCS Correlation Energy    =      -1.0929083291236785 [Eh]
	 SCS Total Energy          =   -2764.9667618687230970 [Eh]
	-----------------------------------------------------------

  Dipole Moment: [D]
     X:     2.2748      Y:    -1.9911      Z:    -0.0784     Total:     3.0241

*** Psi4 exiting successfully. Buy a developer a beer!
