                               Psi4 1.3.2 release

  ==> Input File <==

--------------------------------------------------------------------------
#psi4
#
memory 32 gb

molecule  {
0 1
 Br       -1.3836610    -0.1471480    -0.0001220
  O        0.8234410     1.5925820     0.0002040
  C        1.4591049    -0.7608273    -0.0492300
  C        2.9264930    -0.3526980    -0.0006480
  C        0.5406660     0.4304600     0.0002430
  H        1.1964500    -1.3653870     0.8759120
  H        1.1952150    -1.3675680    -0.8724330
  H        3.1657420     0.2413720    -0.8848640
  H        3.1669300     0.2432120     0.8819950
  H        3.5587740    -1.2437650    -0.0001660
units angstrom
no_reorient  #important for SAPT in psi4, default
symmetry c1  #important for SAPT in psi4, default
}

set PROPERTIES_ORIGIN ["COM"]
properties('MP2/aug-cc-pvtz', properties = ['dipole'])
--------------------------------------------------------------------------

    Molecular point group: c1
  Charge       = 0
  Multiplicity = 1
  Basis Set: AUG-CC-PVTZ
    Blend: AUG-CC-PVTZ
  Basis Set: (AUG-CC-PVTZ AUX)
    Blend: AUG-CC-PVTZ-JKFIT

    Orbital Energies [Eh]
    ---------------------

    Doubly Occupied:

       1A   -490.025426     2A    -65.165355     3A    -58.520527
       4A    -58.519324     5A    -58.519200     6A    -20.603879
       7A    -11.413279     8A    -11.276461     9A    -11.242281
      10A     -9.838002    11A     -7.448961    12A     -7.443244
      13A     -7.442729    14A     -3.192365    15A     -3.189604
      16A     -3.188894    17A     -3.181597    18A     -3.181580
      19A     -1.444928    20A     -1.096545    21A     -1.023192
      22A     -0.911961    23A     -0.765548    24A     -0.682664
      25A     -0.661917    26A     -0.642842    27A     -0.571696
      28A     -0.564590    29A     -0.547088    30A     -0.516809
      31A     -0.428967    32A     -0.422935    33A     -0.419680

  @DF-RHF Final Energy: -2763.91377015329681

   => Energetics <=

    Nuclear Repulsion Energy =            306.5016110379060592
    One-Electron Energy =               -4452.6426246656519652
    Two-Electron Energy =                1382.2272434744495513
    Total Energy =                      -2763.9137701532968094
  Basis Set: (AUG-CC-PVTZ AUX)
    Blend: AUG-CC-PVTZ-RI
    Molecular point group: c1

    Geometry (in Angstrom), charge = 0, multiplicity = 1:

       Center              X                  Y                   Z               Mass
    ------------   -----------------  -----------------  -----------------  -----------------
         BR          -1.203223082210    -0.162920375136     0.004302619943    78.918337600000
         O            1.003878917790     1.576809624864     0.004628619943    15.994914619570
         C            1.639542817790    -0.776599675136    -0.044805380057    12.000000000000
         C            3.106930917790    -0.368470375136     0.003776619943    12.000000000000
         C            0.721103917790     0.414687624864     0.004667619943    12.000000000000
         H            1.376887917790    -1.381159375136     0.880336619943     1.007825032230
         H            1.375652917790    -1.383340375136    -0.868008380057     1.007825032230
         H            3.346179917790     0.225599624864    -0.880439380057     1.007825032230
         H            3.347367917790     0.227439624864     0.886419619943     1.007825032230
         H            3.739211917790    -1.259537375136     0.004258619943     1.007825032230

  Basis Set: AUG-CC-PVTZ
    Blend: AUG-CC-PVTZ
  Basis Set: (AUG-CC-PVTZ AUX)
    Blend: AUG-CC-PVTZ-JKFIT
	 Reference Energy          =   -2763.9137701532968094 [Eh]
	 Singles Energy            =      -0.0000000000000000 [Eh]
	 Same-Spin Energy          =      -0.2810485528677135 [Eh]
	 Opposite-Spin Energy      =      -0.8305663610240352 [Eh]
	 Correlation Energy        =      -1.1116149138917488 [Eh]
	 Total Energy              =   -2765.0253850671883811 [Eh]

	 ================> DF-SCS-MP2 Energies <==================
	-----------------------------------------------------------
	 SCS Same-Spin Scale       =       0.3333333333333333 [-]
	 SCS Opposite-Spin Scale   =       1.2000000000000000 [-]
	 SCS Same-Spin Energy      =      -0.0936828509559045 [Eh]
	 SCS Opposite-Spin Energy  =      -0.9966796332288422 [Eh]
	 SCS Correlation Energy    =      -1.0903624841847468 [Eh]
	 SCS Total Energy          =   -2765.0041326374816890 [Eh]
	-----------------------------------------------------------

  Dipole Moment: [D]
     X:     2.2379      Y:    -2.0078      Z:    -0.0193     Total:     3.0067

*** Psi4 exiting successfully. Buy a developer a beer!
