                               Psi4 1.3.2 release

  ==> Input File <==

--------------------------------------------------------------------------
#psi4
#
memory 32 gb

molecule  {
0 1
 Br       -1.3836610    -0.1471480    -0.0001220
  O        0.8234410     1.5925820     0.0002040
  C        1.4591188    -0.7608355    -0.0992300
  C        2.9264930    -0.3526980    -0.0006480
  C        0.5406660     0.4304600     0.0002430
  H        1.1964500    -1.3653870     0.8759120
  H        1.1952150    -1.3675680    -0.8724330
  H        3.1657420     0.2413720    -0.8848640
  H        3.1669300     0.2432120     0.8819950
  H        3.5587740    -1.2437650    -0.0001660
units angstrom
no_reorient  #important for SAPT in psi4, default
symmetry c1  #important for SAPT in psi4, default
}

set PROPERTIES_ORIGIN ["COM"]
properties('MP2/aug-cc-pvtz', properties = ['dipole'])
--------------------------------------------------------------------------

    Molecular point group: c1
  Charge       = 0
  Multiplicity = 1
  Basis Set: AUG-CC-PVTZ
    Blend: AUG-CC-PVTZ
  Basis Set: (AUG-CC-PVTZ AUX)
    Blend: AUG-CC-PVTZ-JKFIT

    Orbital Energies [Eh]
    ---------------------

    Doubly Occupied:

       1A   -490.025411     2A    -65.165338     3A    -58.520511
       4A    -58.519306     5A    -58.519182     6A    -20.603831
       7A    -11.413718     8A    -11.277368     9A    -11.242942
      10A     -9.837985    11A     -7.448948    12A     -7.443224
      13A     -7.442708    14A     -3.192355    15A     -3.189590
      16A     -3.188880    17A     -3.181572    18A     -3.181554
      19A     -1.444921    20A     -1.096523    21A     -1.023144
      22A     -0.912424    23A     -0.768283    24A     -0.686297
      25A     -0.658435    26A     -0.642017    27A     -0.572988
      28A     -0.564489    29A     -0.553812    30A     -0.507196
      31A     -0.428825    32A     -0.422908    33A     -0.419404

  @DF-RHF Final Energy: -2763.90584575258936

   => Energetics <=

    Nuclear Repulsion Energy =            306.4514748101310602
    One-Electron Energy =               -4452.5224606530509845
    Two-Electron Energy =                1382.1651400903306239
    Total Energy =                      -2763.9058457525893573
  Basis Set: (AUG-CC-PVTZ AUX)
    Blend: AUG-CC-PVTZ-RI
    Molecular point group: c1

    Geometry (in Angstrom), charge = 0, multiplicity = 1:

       Center              X                  Y                   Z               Mass
    ------------   -----------------  -----------------  -----------------  -----------------
         BR          -1.203224309110    -0.162919651354     0.008715930042    78.918337600000
         O            1.003877690890     1.576810348646     0.009041930042    15.994914619570
         C            1.639555490890    -0.776607151354    -0.090392069958    12.000000000000
         C            3.106929690890    -0.368469651354     0.008189930042    12.000000000000
         C            0.721102690890     0.414688348646     0.009080930042    12.000000000000
         H            1.376886690890    -1.381158651354     0.884749930042     1.007825032230
         H            1.375651690890    -1.383339651354    -0.863595069958     1.007825032230
         H            3.346178690890     0.225600348646    -0.876026069958     1.007825032230
         H            3.347366690890     0.227440348646     0.890832930042     1.007825032230
         H            3.739210690890    -1.259536651354     0.008671930042     1.007825032230

  Basis Set: AUG-CC-PVTZ
    Blend: AUG-CC-PVTZ
  Basis Set: (AUG-CC-PVTZ AUX)
    Blend: AUG-CC-PVTZ-JKFIT
	 Reference Energy          =   -2763.9058457525893573 [Eh]
	 Singles Energy            =      -0.0000000000000000 [Eh]
	 Same-Spin Energy          =      -0.2811513209564984 [Eh]
	 Opposite-Spin Energy      =      -0.8309558584041696 [Eh]
	 Correlation Energy        =      -1.1121071793606681 [Eh]
	 Total Energy              =   -2765.0179529319498215 [Eh]

	 ================> DF-SCS-MP2 Energies <==================
	-----------------------------------------------------------
	 SCS Same-Spin Scale       =       0.3333333333333333 [-]
	 SCS Opposite-Spin Scale   =       1.2000000000000000 [-]
	 SCS Same-Spin Energy      =      -0.0937171069854995 [Eh]
	 SCS Opposite-Spin Energy  =      -0.9971470300850035 [Eh]
	 SCS Correlation Energy    =      -1.0908641370705030 [Eh]
	 SCS Total Energy          =   -2764.9967098896599964 [Eh]
	-----------------------------------------------------------

  Dipole Moment: [D]
     X:     2.2455      Y:    -2.0042      Z:    -0.0394     Total:     3.0101

*** Psi4 exiting successfully. Buy a developer a beer!
