                               Psi4 1.3.2 release

  ==> Input File <==

--------------------------------------------------------------------------
#psi4
#
memory 32 gb

molecule  {
0 1
  N        2.3228640    -0.0000190    -0.0807740
  N       -1.9067410     0.0000080     0.0117080
  C        0.9299840    -0.0000240    -0.0024660
  C        0.1996340     1.1955560    -0.0090950
  C        0.1996160    -1.1955790    -0.0091200
  C       -1.2971083     0.9702750     0.0049564
  C       -1.1907490    -1.1395810     0.0038230
  H        0.7091300     2.1568960    -0.0157440
  H        0.7090670    -2.1569450    -0.0157620
  H       -1.7697200     2.0619740     0.0063330
  H       -1.7697630    -2.0619320     0.0061490
  H        2.7609080    -0.8358400     0.2906890
  H        2.7608480     0.8359780     0.2902720
units angstrom
no_reorient  #important for SAPT in psi4, default
symmetry c1  #important for SAPT in psi4, default
}

set PROPERTIES_ORIGIN ["COM"]
properties('MP2/aug-cc-pvtz', properties = ['dipole'])
--------------------------------------------------------------------------

    Molecular point group: c1
  Charge       = 0
  Multiplicity = 1
  Basis Set: AUG-CC-PVTZ
    Blend: AUG-CC-PVTZ
  Basis Set: (AUG-CC-PVTZ AUX)
    Blend: AUG-CC-PVTZ-JKFIT

    Orbital Energies [Eh]
    ---------------------

    Doubly Occupied:

       1A    -15.580564     2A    -15.540993     3A    -11.296321
       4A    -11.280529     5A    -11.272842     6A    -11.239579
       7A    -11.231125     8A     -1.319707     9A     -1.233183
      10A     -1.065786    11A     -1.008439    12A     -0.878799
      13A     -0.820921    14A     -0.717944    15A     -0.713744
      16A     -0.654098    17A     -0.632034    18A     -0.612996
      19A     -0.574916    20A     -0.573065    21A     -0.514317
      22A     -0.507949    23A     -0.392101    24A     -0.363196
      25A     -0.322085

  @DF-RHF Final Energy:  -301.78040685400293

   => Energetics <=

    Nuclear Repulsion Energy =            275.8957807590390985
    One-Electron Energy =                -954.6579146655661816
    Two-Electron Energy =                 376.9817270525241497
    Total Energy =                       -301.7804068540029334
  Basis Set: (AUG-CC-PVTZ AUX)
    Blend: AUG-CC-PVTZ-RI
    Molecular point group: c1

    Geometry (in Angstrom), charge = 0, multiplicity = 1:

       Center              X                  Y                   Z               Mass
    ------------   -----------------  -----------------  -----------------  -----------------
         N            2.372297774512     0.021588560491    -0.074994059260    14.003074004430
         N           -1.857307225488     0.021615560491     0.017487940740    14.003074004430
         C            0.979417774512     0.021583560491     0.003313940740    12.000000000000
         C            0.249067774512     1.217163560491    -0.003315059260    12.000000000000
         C            0.249049774512    -1.173971439509    -0.003340059260    12.000000000000
         C           -1.247674525488     0.991882560491     0.010736340740    12.000000000000
         C           -1.141315225488    -1.117973439509     0.009602940740    12.000000000000
         H            0.758563774512     2.178503560491    -0.009964059260     1.007825032230
         H            0.758500774512    -2.135337439509    -0.009982059260     1.007825032230
         H           -1.720286225488     2.083581560491     0.012112940740     1.007825032230
         H           -1.720329225488    -2.040324439509     0.011928940740     1.007825032230
         H            2.810341774512    -0.814232439509     0.296468940740     1.007825032230
         H            2.810281774512     0.857585560491     0.296051940740     1.007825032230

  Basis Set: AUG-CC-PVTZ
    Blend: AUG-CC-PVTZ
  Basis Set: (AUG-CC-PVTZ AUX)
    Blend: AUG-CC-PVTZ-JKFIT
	 Reference Energy          =    -301.7804068540029334 [Eh]
	 Singles Energy            =      -0.0000000000000000 [Eh]
	 Same-Spin Energy          =      -0.3261345778939373 [Eh]
	 Opposite-Spin Energy      =      -1.0112372987600162 [Eh]
	 Correlation Energy        =      -1.3373718766539535 [Eh]
	 Total Energy              =    -303.1177787306568803 [Eh]

	 ================> DF-SCS-MP2 Energies <==================
	-----------------------------------------------------------
	 SCS Same-Spin Scale       =       0.3333333333333333 [-]
	 SCS Opposite-Spin Scale   =       1.2000000000000000 [-]
	 SCS Same-Spin Energy      =      -0.1087115259646458 [Eh]
	 SCS Opposite-Spin Energy  =      -1.2134847585120194 [Eh]
	 SCS Correlation Energy    =      -1.3221962844766653 [Eh]
	 SCS Total Energy          =    -303.1026031384795942 [Eh]
	-----------------------------------------------------------

  Dipole Moment: [D]
     X:     3.2920      Y:    -0.3537      Z:     0.9782     Total:     3.4524

*** Psi4 exiting successfully. Buy a developer a beer!
