                               Psi4 1.3.2 release

  ==> Input File <==

--------------------------------------------------------------------------
#psi4
#
memory 32 gb

molecule  {
0 1
  N        2.3228640    -0.0000190    -0.0807740
  N       -1.9067410     0.0000080     0.0117080
  C        0.7302993    -0.0000247     0.0087603
  C        0.1996340     1.1955560    -0.0090950
  C        0.1996160    -1.1955790    -0.0091200
  C       -1.1907070     1.1396190     0.0037780
  C       -1.1907490    -1.1395810     0.0038230
  H        0.7091300     2.1568960    -0.0157440
  H        0.7090670    -2.1569450    -0.0157620
  H       -1.7697200     2.0619740     0.0063330
  H       -1.7697630    -2.0619320     0.0061490
  H        2.7609080    -0.8358400     0.2906890
  H        2.7608480     0.8359780     0.2902720
units angstrom
no_reorient  #important for SAPT in psi4, default
symmetry c1  #important for SAPT in psi4, default
}

set PROPERTIES_ORIGIN ["COM"]
properties('MP2/aug-cc-pvtz', properties = ['dipole'])
--------------------------------------------------------------------------

    Molecular point group: c1
  Charge       = 0
  Multiplicity = 1
  Basis Set: AUG-CC-PVTZ
    Blend: AUG-CC-PVTZ
  Basis Set: (AUG-CC-PVTZ AUX)
    Blend: AUG-CC-PVTZ-JKFIT

    Orbital Energies [Eh]
    ---------------------

    Doubly Occupied:

       1A    -15.563168     2A    -15.559653     3A    -11.291352
       4A    -11.282366     5A    -11.282351     6A    -11.233111
       7A    -11.233067     8A     -1.267372     9A     -1.173237
      10A     -1.070185    11A     -1.050611    12A     -0.875079
      13A     -0.841719    14A     -0.712127    15A     -0.694210
      16A     -0.657823    17A     -0.638211    18A     -0.603226
      19A     -0.569526    20A     -0.542514    21A     -0.537757
      22A     -0.456851    23A     -0.417398    24A     -0.358771
      25A     -0.357653

  @DF-RHF Final Energy:  -301.79266828298751

   => Energetics <=

    Nuclear Repulsion Energy =            275.3011908968983334
    One-Electron Energy =                -953.6490424080458297
    Two-Electron Energy =                 376.5551832281599900
    Total Energy =                       -301.7926682829875062
  Basis Set: (AUG-CC-PVTZ AUX)
    Blend: AUG-CC-PVTZ-RI
    Molecular point group: c1

    Geometry (in Angstrom), charge = 0, multiplicity = 1:

       Center              X                  Y                   Z               Mass
    ------------   -----------------  -----------------  -----------------  -----------------
         N            2.384199570640    -0.000017528398    -0.076276045737    14.003074004430
         N           -1.845405429360     0.000009471602     0.016205954263    14.003074004430
         C            0.791634870640    -0.000023228398     0.013258254263    12.000000000000
         C            0.260969570640     1.195557471602    -0.004597045737    12.000000000000
         C            0.260951570640    -1.195577528398    -0.004622045737    12.000000000000
         C           -1.129371429360     1.139620471602     0.008275954263    12.000000000000
         C           -1.129413429360    -1.139579528398     0.008320954263    12.000000000000
         H            0.770465570640     2.156897471602    -0.011246045737     1.007825032230
         H            0.770402570640    -2.156943528398    -0.011264045737     1.007825032230
         H           -1.708384429360     2.061975471602     0.010830954263     1.007825032230
         H           -1.708427429360    -2.061930528398     0.010646954263     1.007825032230
         H            2.822243570640    -0.835838528398     0.295186954263     1.007825032230
         H            2.822183570640     0.835979471602     0.294769954263     1.007825032230

  Basis Set: AUG-CC-PVTZ
    Blend: AUG-CC-PVTZ
  Basis Set: (AUG-CC-PVTZ AUX)
    Blend: AUG-CC-PVTZ-JKFIT
	 Reference Energy          =    -301.7926682829875062 [Eh]
	 Singles Energy            =      -0.0000000000000000 [Eh]
	 Same-Spin Energy          =      -0.3287019465003042 [Eh]
	 Opposite-Spin Energy      =      -1.0150745347540160 [Eh]
	 Correlation Energy        =      -1.3437764812543200 [Eh]
	 Total Energy              =    -303.1364447642418440 [Eh]

	 ================> DF-SCS-MP2 Energies <==================
	-----------------------------------------------------------
	 SCS Same-Spin Scale       =       0.3333333333333333 [-]
	 SCS Opposite-Spin Scale   =       1.2000000000000000 [-]
	 SCS Same-Spin Energy      =      -0.1095673155001014 [Eh]
	 SCS Opposite-Spin Energy  =      -1.2180894417048191 [Eh]
	 SCS Correlation Energy    =      -1.3276567572049205 [Eh]
	 SCS Total Energy          =    -303.1203250401924265 [Eh]
	-----------------------------------------------------------

  Dipole Moment: [D]
     X:     2.2444      Y:     0.0002      Z:     1.0105     Total:     2.4613

*** Psi4 exiting successfully. Buy a developer a beer!
