                               Psi4 1.3.2 release

  ==> Input File <==

--------------------------------------------------------------------------
#psi4
#
memory 32 gb

molecule  {
0 1
  N        2.3228640    -0.0000190    -0.0807740
  N       -1.9067410     0.0000080     0.0117080
  C        1.0298263    -0.0000236    -0.0080792
  C        0.1996340     1.1955560    -0.0090950
  C        0.1996160    -1.1955790    -0.0091200
  C       -1.1907070     1.1396190     0.0037780
  C       -1.1907490    -1.1395810     0.0038230
  H        0.7091300     2.1568960    -0.0157440
  H        0.7090670    -2.1569450    -0.0157620
  H       -1.7697200     2.0619740     0.0063330
  H       -1.7697630    -2.0619320     0.0061490
  H        2.7609080    -0.8358400     0.2906890
  H        2.7608480     0.8359780     0.2902720
units angstrom
no_reorient  #important for SAPT in psi4, default
symmetry c1  #important for SAPT in psi4, default
}

set PROPERTIES_ORIGIN ["COM"]
properties('MP2/aug-cc-pvtz', properties = ['dipole'])
--------------------------------------------------------------------------

    Molecular point group: c1
  Charge       = 0
  Multiplicity = 1
  Basis Set: AUG-CC-PVTZ
    Blend: AUG-CC-PVTZ
  Basis Set: (AUG-CC-PVTZ AUX)
    Blend: AUG-CC-PVTZ-JKFIT

    Orbital Energies [Eh]
    ---------------------

    Doubly Occupied:

       1A    -15.600013     2A    -15.542024     3A    -11.311714
       4A    -11.271037     5A    -11.271022     6A    -11.230858
       7A    -11.230847     8A     -1.287043     9A     -1.230930
      10A     -1.036708    11A     -1.018122    12A     -0.850391
      13A     -0.847359    14A     -0.733924    15A     -0.727736
      16A     -0.653800    17A     -0.617028    18A     -0.615486
      19A     -0.580326    20A     -0.567027    21A     -0.497217
      22A     -0.489184    23A     -0.408587    24A     -0.342898
      25A     -0.319709

  @DF-RHF Final Energy:  -301.82207202614217

   => Energetics <=

    Nuclear Repulsion Energy =            273.1584632369701922
    One-Electron Energy =                -949.3990864352547305
    Two-Electron Energy =                 374.4185511721423723
    Total Energy =                       -301.8220720261421661
  Basis Set: (AUG-CC-PVTZ AUX)
    Blend: AUG-CC-PVTZ-RI
    Molecular point group: c1

    Geometry (in Angstrom), charge = 0, multiplicity = 1:

       Center              X                  Y                   Z               Mass
    ------------   -----------------  -----------------  -----------------  -----------------
         N            2.345983668467    -0.000017668744    -0.074127535971    14.003074004430
         N           -1.883621331533     0.000009331256     0.018354464029    14.003074004430
         C            1.052945968467    -0.000022268744    -0.001432735971    12.000000000000
         C            0.222753668467     1.195557331256    -0.002448535971    12.000000000000
         C            0.222735668467    -1.195577668744    -0.002473535971    12.000000000000
         C           -1.167587331533     1.139620331256     0.010424464029    12.000000000000
         C           -1.167629331533    -1.139579668744     0.010469464029    12.000000000000
         H            0.732249668467     2.156897331256    -0.009097535971     1.007825032230
         H            0.732186668467    -2.156943668744    -0.009115535971     1.007825032230
         H           -1.746600331533     2.061975331256     0.012979464029     1.007825032230
         H           -1.746643331533    -2.061930668744     0.012795464029     1.007825032230
         H            2.784027668467    -0.835838668744     0.297335464029     1.007825032230
         H            2.783967668467     0.835979331256     0.296918464029     1.007825032230

  Basis Set: AUG-CC-PVTZ
    Blend: AUG-CC-PVTZ
  Basis Set: (AUG-CC-PVTZ AUX)
    Blend: AUG-CC-PVTZ-JKFIT
	 Reference Energy          =    -301.8220720261421661 [Eh]
	 Singles Energy            =      -0.0000000000000000 [Eh]
	 Same-Spin Energy          =      -0.3286502840427390 [Eh]
	 Opposite-Spin Energy      =      -1.0137034181418518 [Eh]
	 Correlation Energy        =      -1.3423537021845908 [Eh]
	 Total Energy              =    -303.1644257283267621 [Eh]

	 ================> DF-SCS-MP2 Energies <==================
	-----------------------------------------------------------
	 SCS Same-Spin Scale       =       0.3333333333333333 [-]
	 SCS Opposite-Spin Scale   =       1.2000000000000000 [-]
	 SCS Same-Spin Energy      =      -0.1095500946809130 [Eh]
	 SCS Opposite-Spin Energy  =      -1.2164441017702221 [Eh]
	 SCS Correlation Energy    =      -1.3259941964511350 [Eh]
	 SCS Total Energy          =    -303.1480662225932861 [Eh]
	-----------------------------------------------------------

  Dipole Moment: [D]
     X:     4.3861      Y:     0.0002      Z:     0.9493     Total:     4.4877

*** Psi4 exiting successfully. Buy a developer a beer!
