                               Psi4 1.3.2 release

  ==> Input File <==

--------------------------------------------------------------------------
#psi4
#
memory 32 gb

molecule  {
0 1
  N        2.3227063    -0.0243472    -0.0797947
  N       -1.9067410     0.0000080     0.0117080
  C        0.9299840    -0.0000240    -0.0024660
  C        0.1789243     1.1826642    -0.0074165
  C        0.1996160    -1.1955790    -0.0091200
  C       -1.1907070     1.1396190     0.0037780
  C       -1.1907490    -1.1395810     0.0038230
  H        0.7091300     2.1568960    -0.0157440
  H        0.7090670    -2.1569450    -0.0157620
  H       -1.7697200     2.0619740     0.0063330
  H       -1.7697630    -2.0619320     0.0061490
  H        2.7609080    -0.8358400     0.2906890
  H        2.7608480     0.8359780     0.2902720
units angstrom
no_reorient  #important for SAPT in psi4, default
symmetry c1  #important for SAPT in psi4, default
}

set PROPERTIES_ORIGIN ["COM"]
properties('MP2/aug-cc-pvtz', properties = ['dipole'])
--------------------------------------------------------------------------

    Molecular point group: c1
  Charge       = 0
  Multiplicity = 1
  Basis Set: AUG-CC-PVTZ
    Blend: AUG-CC-PVTZ
  Basis Set: (AUG-CC-PVTZ AUX)
    Blend: AUG-CC-PVTZ-JKFIT

    Orbital Energies [Eh]
    ---------------------

    Doubly Occupied:

       1A    -15.586341     2A    -15.550274     3A    -11.303446
       4A    -11.273998     5A    -11.271973     6A    -11.232276
       7A    -11.230964     8A     -1.256463     9A     -1.224725
      10A     -1.052845    11A     -1.029462    12A     -0.855999
      13A     -0.844717    14A     -0.721387    15A     -0.709416
      16A     -0.650658    17A     -0.625224    18A     -0.608057
      19A     -0.589254    20A     -0.556571    21A     -0.506854
      22A     -0.487358    23A     -0.413963    24A     -0.349695
      25A     -0.334824

  @DF-RHF Final Energy:  -301.83562604964840

   => Energetics <=

    Nuclear Repulsion Energy =            274.0090019213200208
    One-Electron Energy =                -951.1557702356424215
    Two-Electron Energy =                 375.3111422646739470
    Total Energy =                       -301.8356260496483969
  Basis Set: (AUG-CC-PVTZ AUX)
    Blend: AUG-CC-PVTZ-RI
    Molecular point group: c1

    Geometry (in Angstrom), charge = 0, multiplicity = 1:

       Center              X                  Y                   Z               Mass
    ------------   -----------------  -----------------  -----------------  -----------------
         N            2.361230376322    -0.019078886641    -0.074224368627    14.003074004430
         N           -1.868216923678     0.005276313359     0.017278331373    14.003074004430
         C            0.968508076322     0.005244313359     0.003104331373    12.000000000000
         C            0.217448376322     1.187932513359    -0.001846168627    12.000000000000
         C            0.238140076322    -1.190310686641    -0.003549668627    12.000000000000
         C           -1.152182923678     1.144887313359     0.009348331373    12.000000000000
         C           -1.152224923678    -1.134312686641     0.009393331373    12.000000000000
         H            0.747654076322     2.162164313359    -0.010173668627     1.007825032230
         H            0.747591076322    -2.151676686641    -0.010191668627     1.007825032230
         H           -1.731195923678     2.067242313359     0.011903331373     1.007825032230
         H           -1.731238923678    -2.056663686641     0.011719331373     1.007825032230
         H            2.799432076322    -0.830571686641     0.296259331373     1.007825032230
         H            2.799372076322     0.841246313359     0.295842331373     1.007825032230

  Basis Set: AUG-CC-PVTZ
    Blend: AUG-CC-PVTZ
  Basis Set: (AUG-CC-PVTZ AUX)
    Blend: AUG-CC-PVTZ-JKFIT
	 Reference Energy          =    -301.8356260496483969 [Eh]
	 Singles Energy            =      -0.0000000000000000 [Eh]
	 Same-Spin Energy          =      -0.3282070509237072 [Eh]
	 Opposite-Spin Energy      =      -1.0131988005523649 [Eh]
	 Correlation Energy        =      -1.3414058514760721 [Eh]
	 Total Energy              =    -303.1770319011244510 [Eh]

	 ================> DF-SCS-MP2 Energies <==================
	-----------------------------------------------------------
	 SCS Same-Spin Scale       =       0.3333333333333333 [-]
	 SCS Opposite-Spin Scale   =       1.2000000000000000 [-]
	 SCS Same-Spin Energy      =      -0.1094023503079024 [Eh]
	 SCS Opposite-Spin Energy  =      -1.2158385606628379 [Eh]
	 SCS Correlation Energy    =      -1.3252409109707404 [Eh]
	 SCS Total Energy          =    -303.1608669606191597 [Eh]
	-----------------------------------------------------------

  Dipole Moment: [D]
     X:     3.6121      Y:     0.0107      Z:     0.9745     Total:     3.7412

*** Psi4 exiting successfully. Buy a developer a beer!
