                               Psi4 1.4a3.dev225

  ==> Input File <==

--------------------------------------------------------------------------
#psi4
#
memory 32 gb

molecule  {
0 1
  N        2.3220460    -0.0000010    -0.0807810
  N       -1.9068710     0.0000000     0.0099480
  C        0.9306030     0.0000000    -0.0018200
  C        0.1994710     1.1952220    -0.0074850
  C        0.1994710    -1.1952220    -0.0074870
  C       -1.1908010     1.1392150     0.0036550
  C       -1.1908010    -1.1392150     0.0036580
  H        0.7083710     2.1567710    -0.0146740
  H        0.7083720    -2.1567700    -0.0146820
  H       -1.7689000     2.0620960     0.0068010
  H       -1.7689000    -2.0620960     0.0067980
  H        2.7548735    -0.8201996     0.2770426
  H        2.7635810     0.8367080     0.2842220
units angstrom
no_reorient  #important for SAPT in psi4, default
symmetry c1  #important for SAPT in psi4, default
}

set PROPERTIES_ORIGIN ["COM"]
properties('MP2/aug-cc-pvtz', properties = ['dipole'])
--------------------------------------------------------------------------

    Molecular point group: c1
  Charge       = 0
  Multiplicity = 1
  Basis Set: AUG-CC-PVTZ
    Blend: AUG-CC-PVTZ
  Basis Set: (AUG-CC-PVTZ AUX)
    Blend: AUG-CC-PVTZ-JKFIT

    Orbital Energies [Eh]
    ---------------------

    Doubly Occupied:

       1A    -15.583299     2A    -15.550900     3A    -11.303113
       4A    -11.274693     5A    -11.274652     6A    -11.231606
       7A    -11.231530     8A     -1.256590     9A     -1.225989
      10A     -1.052601    11A     -1.027677    12A     -0.857789
      13A     -0.843539    14A     -0.720033    15A     -0.712897
      16A     -0.654372    17A     -0.624609    18A     -0.608084
      19A     -0.590150    20A     -0.555581    21A     -0.510537
      22A     -0.486943    23A     -0.413976    24A     -0.347368
      25A     -0.334936

  @DF-RHF Final Energy:  -301.83767571618932

   => Energetics <=

    Nuclear Repulsion Energy =            273.8310783769141494
    One-Electron Energy =                -950.7905765671206382
    Two-Electron Energy =                 375.1218224740171081
    Total Energy =                       -301.8376757161893238
  Basis Set: (AUG-CC-PVTZ AUX)
    Blend: AUG-CC-PVTZ-RI
    Molecular point group: c1

    Geometry (in Angstrom), charge = 0, multiplicity = 1:

       Center              X                  Y                   Z               Mass
    ------------   -----------------  -----------------  -----------------  -----------------
         N            2.358057312440    -0.000177757426    -0.074871024284    14.003074004430
         N           -1.870859687560    -0.000176757426     0.015857975716    14.003074004430
         C            0.966614312440    -0.000176757426     0.004089975716    12.000000000000
         C            0.235482312440     1.195045242574    -0.001575024284    12.000000000000
         C            0.235482312440    -1.195398757426    -0.001577024284    12.000000000000
         C           -1.154789687560     1.139038242574     0.009564975716    12.000000000000
         C           -1.154789687560    -1.139391757426     0.009567975716    12.000000000000
         H            0.744382312440     2.156594242574    -0.008764024284     1.007825032230
         H            0.744383312440    -2.156946757426    -0.008772024284     1.007825032230
         H           -1.732888687560     2.061919242574     0.012710975716     1.007825032230
         H           -1.732888687560    -2.062272757426     0.012707975716     1.007825032230
         H            2.790884812440    -0.820376357426     0.282952575716     1.007825032230
         H            2.799592312440     0.836531242574     0.290131975716     1.007825032230

  Basis Set: AUG-CC-PVTZ
    Blend: AUG-CC-PVTZ
  Basis Set: (AUG-CC-PVTZ AUX)
    Blend: AUG-CC-PVTZ-JKFIT
	 Reference Energy          =    -301.8376757161893238 [Eh]
	 Singles Energy            =      -0.0000000000000000 [Eh]
	 Same-Spin Energy          =      -0.3279966542797506 [Eh]
	 Opposite-Spin Energy      =      -1.0127664344826997 [Eh]
	 Correlation Energy        =      -1.3407630887624502 [Eh]
	 Total Energy              =    -303.1784388049517815 [Eh]

	 ================> DF-SCS-MP2 Energies <==================
	-----------------------------------------------------------
	 SCS Same-Spin Scale       =       0.3333333333333333 [-]
	 SCS Opposite-Spin Scale   =       1.2000000000000000 [-]
	 SCS Same-Spin Energy      =      -0.1093322180932502 [Eh]
	 SCS Opposite-Spin Energy  =      -1.2153197213792395 [Eh]
	 SCS Correlation Energy    =      -1.3246519394724896 [Eh]
	 SCS Total Energy          =    -303.1623276556618407 [Eh]
	-----------------------------------------------------------

  Dipole Moment: [D]
     X:     3.6112      Y:     0.0105      Z:     0.9610     Total:     3.7369

*** Psi4 exiting successfully. Buy a developer a beer!
