                               Psi4 1.3.2 release

  ==> Input File <==

--------------------------------------------------------------------------
#psi4
#
memory 32 gb

molecule  {
0 1
  N        2.3228640    -0.0000190    -0.0807740
  N       -1.9067410     0.0000080     0.0117080
  C        0.9299840    -0.0000240    -0.0024660
  C        0.1996340     1.1955560    -0.0090950
  C        0.1996160    -1.1955790    -0.0091200
  C       -1.1907070     1.1396190     0.0037780
  C       -1.1907490    -1.1395810     0.0038230
  H        0.7091300     2.1568960    -0.0157440
  H        0.7090670    -2.1569450    -0.0157620
  H       -1.7697200     2.0619740     0.0063330
  H       -1.7697630    -2.0619320     0.0061490
  H        2.7497125    -0.8457363     0.2812020
  H        2.7496523     0.8458688     0.2807805
units angstrom
no_reorient  #important for SAPT in psi4, default
symmetry c1  #important for SAPT in psi4, default
}

set PROPERTIES_ORIGIN ["COM"]
properties('MP2/aug-cc-pvtz', properties = ['dipole'])
--------------------------------------------------------------------------

    Molecular point group: c1
  Charge       = 0
  Multiplicity = 1
  Basis Set: AUG-CC-PVTZ
    Blend: AUG-CC-PVTZ
  Basis Set: (AUG-CC-PVTZ AUX)
    Blend: AUG-CC-PVTZ-JKFIT

    Orbital Energies [Eh]
    ---------------------

    Doubly Occupied:

       1A    -15.585358     2A    -15.550901     3A    -11.302805
       4A    -11.274817     5A    -11.274801     6A    -11.231613
       7A    -11.231596     8A     -1.255648     9A     -1.224282
      10A     -1.051269    11A     -1.027733    12A     -0.857894
      13A     -0.841819    14A     -0.717346    15A     -0.712653
      16A     -0.654281    17A     -0.624041    18A     -0.606602
      19A     -0.590282    20A     -0.555381    21A     -0.510631
      22A     -0.486578    23A     -0.413944    24A     -0.347463
      25A     -0.334741

  @DF-RHF Final Energy:  -301.83713330300310

   => Energetics <=

    Nuclear Repulsion Energy =            273.7278011918155585
    One-Electron Energy =                -950.6009120112701112
    Two-Electron Energy =                 375.0359775164513962
    Total Energy =                       -301.8371333030030996
  Basis Set: (AUG-CC-PVTZ AUX)
    Blend: AUG-CC-PVTZ-RI
    Molecular point group: c1

    Geometry (in Angstrom), charge = 0, multiplicity = 1:

       Center              X                  Y                   Z               Mass
    ------------   -----------------  -----------------  -----------------  -----------------
         N            2.358962230951    -0.000017558774    -0.074640346219    14.003074004430
         N           -1.870642769049     0.000009441226     0.017841653781    14.003074004430
         C            0.966082230951    -0.000022558774     0.003667653781    12.000000000000
         C            0.235732230951     1.195557441226    -0.002961346219    12.000000000000
         C            0.235714230951    -1.195577558774    -0.002986346219    12.000000000000
         C           -1.154608769049     1.139620441226     0.009911653781    12.000000000000
         C           -1.154650769049    -1.139579558774     0.009956653781    12.000000000000
         H            0.745228230951     2.156897441226    -0.009610346219     1.007825032230
         H            0.745165230951    -2.156943558774    -0.009628346219     1.007825032230
         H           -1.733621769049     2.061975441226     0.012466653781     1.007825032230
         H           -1.733664769049    -2.061930558774     0.012282653781     1.007825032230
         H            2.785810730951    -0.845734858774     0.287335653781     1.007825032230
         H            2.785750530951     0.845870241226     0.286914153781     1.007825032230

  Basis Set: AUG-CC-PVTZ
    Blend: AUG-CC-PVTZ
  Basis Set: (AUG-CC-PVTZ AUX)
    Blend: AUG-CC-PVTZ-JKFIT
	 Reference Energy          =    -301.8371333030030996 [Eh]
	 Singles Energy            =      -0.0000000000000000 [Eh]
	 Same-Spin Energy          =      -0.3281339864227490 [Eh]
	 Opposite-Spin Energy      =      -1.0131474372326699 [Eh]
	 Correlation Energy        =      -1.3412814236554189 [Eh]
	 Total Energy              =    -303.1784147266585023 [Eh]

	 ================> DF-SCS-MP2 Energies <==================
	-----------------------------------------------------------
	 SCS Same-Spin Scale       =       0.3333333333333333 [-]
	 SCS Opposite-Spin Scale   =       1.2000000000000000 [-]
	 SCS Same-Spin Energy      =      -0.1093779954742497 [Eh]
	 SCS Opposite-Spin Energy  =      -1.2157769246792038 [Eh]
	 SCS Correlation Energy    =      -1.3251549201534536 [Eh]
	 SCS Total Energy          =    -303.1622882231565654 [Eh]
	-----------------------------------------------------------

  Dipole Moment: [D]
     X:     3.5935      Y:     0.0002      Z:     0.9542     Total:     3.7180

*** Psi4 exiting successfully. Buy a developer a beer!
