                               Psi4 1.3.2 release

  ==> Input File <==

--------------------------------------------------------------------------
#psi4
#
memory 32 gb

molecule  {
0 1
  N        2.3228640    -0.0000190    -0.0807740
  N       -1.9067410     0.0000080     0.0117080
  C        0.9915558     0.0398369    -0.0027903
  C        0.1996340     1.1955560    -0.0090950
  C        0.1996160    -1.1955790    -0.0091200
  C       -1.1907070     1.1396190     0.0037780
  C       -1.1907490    -1.1395810     0.0038230
  H        0.7587456     2.1289137    -0.0156280
  H        0.7090670    -2.1569450    -0.0157620
  H       -1.7697200     2.0619740     0.0063330
  H       -1.7697630    -2.0619320     0.0061490
  H        2.7609080    -0.8358400     0.2906890
  H        2.7608480     0.8359780     0.2902720
units angstrom
no_reorient  #important for SAPT in psi4, default
symmetry c1  #important for SAPT in psi4, default
}

set PROPERTIES_ORIGIN ["COM"]
properties('MP2/aug-cc-pvtz', properties = ['dipole'])
--------------------------------------------------------------------------

    Molecular point group: c1
  Charge       = 0
  Multiplicity = 1
  Basis Set: AUG-CC-PVTZ
    Blend: AUG-CC-PVTZ
  Basis Set: (AUG-CC-PVTZ AUX)
    Blend: AUG-CC-PVTZ-JKFIT

    Orbital Energies [Eh]
    ---------------------

    Doubly Occupied:

       1A    -15.594118     2A    -15.546499     3A    -11.307270
       4A    -11.275480     5A    -11.270621     6A    -11.233467
       7A    -11.228968     8A     -1.269996     9A     -1.232151
      10A     -1.044649    11A     -1.020400    12A     -0.856000
      13A     -0.841978    14A     -0.727766    15A     -0.719456
      16A     -0.656149    17A     -0.622102    18A     -0.611402
      19A     -0.583898    20A     -0.560723    21A     -0.495815
      22A     -0.494014    23A     -0.411779    24A     -0.345592
      25A     -0.325391

  @DF-RHF Final Energy:  -301.82877581663968

   => Energetics <=

    Nuclear Repulsion Energy =            273.3693237768089830
    One-Electron Energy =                -949.8448341916254094
    Two-Electron Energy =                 374.6467345981767494
    Total Energy =                       -301.8287758166396770
  Basis Set: (AUG-CC-PVTZ AUX)
    Blend: AUG-CC-PVTZ-RI
    Molecular point group: c1

    Geometry (in Angstrom), charge = 0, multiplicity = 1:

       Center              X                  Y                   Z               Mass
    ------------   -----------------  -----------------  -----------------  -----------------
         N            2.350334850556    -0.004803526374    -0.074803576515    14.003074004430
         N           -1.879270149444    -0.004776526374     0.017678423485    14.003074004430
         C            1.019026650556     0.035052373626     0.003180123485    12.000000000000
         C            0.227104850556     1.190771473626    -0.003124576515    12.000000000000
         C            0.227086850556    -1.200363526374    -0.003149576515    12.000000000000
         C           -1.163236149444     1.134834473626     0.009748423485    12.000000000000
         C           -1.163278149444    -1.144365526374     0.009793423485    12.000000000000
         H            0.786216450556     2.124129173626    -0.009657576515     1.007825032230
         H            0.736537850556    -2.161729526374    -0.009791576515     1.007825032230
         H           -1.742249149444     2.057189473626     0.012303423485     1.007825032230
         H           -1.742292149444    -2.066716526374     0.012119423485     1.007825032230
         H            2.788378850556    -0.840624526374     0.296659423485     1.007825032230
         H            2.788318850556     0.831193473626     0.296242423485     1.007825032230

  Basis Set: AUG-CC-PVTZ
    Blend: AUG-CC-PVTZ
  Basis Set: (AUG-CC-PVTZ AUX)
    Blend: AUG-CC-PVTZ-JKFIT
	 Reference Energy          =    -301.8287758166396770 [Eh]
	 Singles Energy            =      -0.0000000000000000 [Eh]
	 Same-Spin Energy          =      -0.3284764835490174 [Eh]
	 Opposite-Spin Energy      =      -1.0136459818420926 [Eh]
	 Correlation Energy        =      -1.3421224653911099 [Eh]
	 Total Energy              =    -303.1708982820308051 [Eh]

	 ================> DF-SCS-MP2 Energies <==================
	-----------------------------------------------------------
	 SCS Same-Spin Scale       =       0.3333333333333333 [-]
	 SCS Opposite-Spin Scale   =       1.2000000000000000 [-]
	 SCS Same-Spin Energy      =      -0.1094921611830058 [Eh]
	 SCS Opposite-Spin Energy  =      -1.2163751782105112 [Eh]
	 SCS Correlation Energy    =      -1.3258673393935170 [Eh]
	 SCS Total Energy          =    -303.1546431560332167 [Eh]
	-----------------------------------------------------------

  Dipole Moment: [D]
     X:     4.0690      Y:    -0.0049      Z:     0.9610     Total:     4.1810

*** Psi4 exiting successfully. Buy a developer a beer!
