                               Psi4 1.3.2 release

  ==> Input File <==

--------------------------------------------------------------------------
#psi4
#
memory 32 gb

molecule  {
0 1
  N        2.3221241     0.0486300    -0.0787908
  N       -1.9067410     0.0000080     0.0117080
  C        0.9299840    -0.0000240    -0.0024660
  C        0.1996340     1.1955560    -0.0090950
  C        0.1584262    -1.1694346    -0.0057609
  C       -1.1907070     1.1396190     0.0037780
  C       -1.1907490    -1.1395810     0.0038230
  H        0.7091300     2.1568960    -0.0157440
  H        0.7090670    -2.1569450    -0.0157620
  H       -1.7697200     2.0619740     0.0063330
  H       -1.7697630    -2.0619320     0.0061490
  H        2.7609080    -0.8358400     0.2906890
  H        2.7608480     0.8359780     0.2902720
units angstrom
no_reorient  #important for SAPT in psi4, default
symmetry c1  #important for SAPT in psi4, default
}

set PROPERTIES_ORIGIN ["COM"]
properties('MP2/aug-cc-pvtz', properties = ['dipole'])
--------------------------------------------------------------------------

    Molecular point group: c1
  Charge       = 0
  Multiplicity = 1
  Basis Set: AUG-CC-PVTZ
    Blend: AUG-CC-PVTZ
  Basis Set: (AUG-CC-PVTZ AUX)
    Blend: AUG-CC-PVTZ-JKFIT

    Orbital Energies [Eh]
    ---------------------

    Doubly Occupied:

       1A    -15.587443     2A    -15.549549     3A    -11.304008
       4A    -11.273261     5A    -11.269125     6A    -11.232928
       7A    -11.230286     8A     -1.257568     9A     -1.225524
      10A     -1.054372    11A     -1.031186    12A     -0.855012
      13A     -0.846832    14A     -0.726031    15A     -0.706916
      16A     -0.648166    17A     -0.628908    18A     -0.606541
      19A     -0.587594    20A     -0.557911    21A     -0.502676
      22A     -0.488144    23A     -0.413737    24A     -0.352138
      25A     -0.334499

  @DF-RHF Final Energy:  -301.83048300112341

   => Energetics <=

    Nuclear Repulsion Energy =            274.3457407427536623
    One-Electron Energy =                -951.8117387166250865
    Two-Electron Energy =                 375.6355149727480693
    Total Energy =                       -301.8304830011234117
  Basis Set: (AUG-CC-PVTZ AUX)
    Blend: AUG-CC-PVTZ-RI
    Molecular point group: c1

    Geometry (in Angstrom), charge = 0, multiplicity = 1:

       Center              X                  Y                   Z               Mass
    ------------   -----------------  -----------------  -----------------  -----------------
         N            2.363347861867     0.038052588330    -0.073584357607    14.003074004430
         N           -1.865517238133    -0.010569411670     0.016914442393    14.003074004430
         C            0.971207761867    -0.010601411670     0.002740442393    12.000000000000
         C            0.240857761867     1.184978588330    -0.003888557607    12.000000000000
         C            0.199649961867    -1.180012011670    -0.000554457607    12.000000000000
         C           -1.149483238133     1.129041588330     0.008984442393    12.000000000000
         C           -1.149525238133    -1.150158411670     0.009029442393    12.000000000000
         H            0.750353761867     2.146318588330    -0.010537557607     1.007825032230
         H            0.750290761867    -2.167522411670    -0.010555557607     1.007825032230
         H           -1.728496238133     2.051396588330     0.011539442393     1.007825032230
         H           -1.728539238133    -2.072509411670     0.011355442393     1.007825032230
         H            2.802131761867    -0.846417411670     0.295895442393     1.007825032230
         H            2.802071761867     0.825400588330     0.295478442393     1.007825032230

  Basis Set: AUG-CC-PVTZ
    Blend: AUG-CC-PVTZ
  Basis Set: (AUG-CC-PVTZ AUX)
    Blend: AUG-CC-PVTZ-JKFIT
	 Reference Energy          =    -301.8304830011234117 [Eh]
	 Singles Energy            =      -0.0000000000000000 [Eh]
	 Same-Spin Energy          =      -0.3283579596214002 [Eh]
	 Opposite-Spin Energy      =      -1.0134413175804653 [Eh]
	 Correlation Energy        =      -1.3417992772018654 [Eh]
	 Total Energy              =    -303.1722822783252695 [Eh]

	 ================> DF-SCS-MP2 Energies <==================
	-----------------------------------------------------------
	 SCS Same-Spin Scale       =       0.3333333333333333 [-]
	 SCS Opposite-Spin Scale   =       1.2000000000000000 [-]
	 SCS Same-Spin Energy      =      -0.1094526532071334 [Eh]
	 SCS Opposite-Spin Energy  =      -1.2161295810965582 [Eh]
	 SCS Correlation Energy    =      -1.3255822343036916 [Eh]
	 SCS Total Energy          =    -303.1560652354270928 [Eh]
	-----------------------------------------------------------

  Dipole Moment: [D]
     X:     3.6243      Y:    -0.0177      Z:     0.9722     Total:     3.7525

*** Psi4 exiting successfully. Buy a developer a beer!
