                               Psi4 1.3.2 release

  ==> Input File <==

--------------------------------------------------------------------------
#psi4
#
memory 32 gb

molecule  {
0 1
  N        2.3228640    -0.0000190    -0.0807740
  N       -1.9067410     0.0000080     0.0117080
  C        0.9299840    -0.0000240    -0.0024660
  C        0.1996340     1.1955560    -0.0090950
  C        0.1996160    -1.1955790    -0.0091200
  C       -1.1907070     1.1396190     0.0037780
  C       -1.1907490    -1.1395810     0.0038230
  H        0.7091300     2.1568960    -0.0157440
  H        0.7090670    -2.1569450    -0.0157620
  H       -1.7697200     2.0619740     0.0063330
  H       -1.8229307    -2.1466265     0.0063626
  H        2.7609080    -0.8358400     0.2906890
  H        2.7608480     0.8359780     0.2902720
units angstrom
no_reorient  #important for SAPT in psi4, default
symmetry c1  #important for SAPT in psi4, default
}

set PROPERTIES_ORIGIN ["COM"]
properties('MP2/aug-cc-pvtz', properties = ['dipole'])
--------------------------------------------------------------------------

    Molecular point group: c1
  Charge       = 0
  Multiplicity = 1
  Basis Set: AUG-CC-PVTZ
    Blend: AUG-CC-PVTZ
  Basis Set: (AUG-CC-PVTZ AUX)
    Blend: AUG-CC-PVTZ-JKFIT

    Orbital Energies [Eh]
    ---------------------

    Doubly Occupied:

       1A    -15.585762     2A    -15.552330     3A    -11.303881
       4A    -11.286073     5A    -11.275839     6A    -11.232876
       7A    -11.232245     8A     -1.256179     9A     -1.224739
      10A     -1.052436    11A     -1.025944    12A     -0.855332
      13A     -0.839651    14A     -0.713515    15A     -0.710394
      16A     -0.652505    17A     -0.622723    18A     -0.604432
      19A     -0.584012    20A     -0.556029    21A     -0.505075
      22A     -0.487451    23A     -0.413525    24A     -0.348060
      25A     -0.335813

  @DF-RHF Final Energy:  -301.82981147092437

   => Energetics <=

    Nuclear Repulsion Energy =            273.2222684577228620
    One-Electron Energy =                -949.5905131413448999
    Two-Electron Energy =                 374.5384332126976688
    Total Energy =                       -301.8298114709243691
  Basis Set: (AUG-CC-PVTZ AUX)
    Blend: AUG-CC-PVTZ-RI
    Molecular point group: c1

    Geometry (in Angstrom), charge = 0, multiplicity = 1:

       Center              X                  Y                   Z               Mass
    ------------   -----------------  -----------------  -----------------  -----------------
         N            2.359292016229     0.000889925358    -0.074845998974    14.003074004430
         N           -1.870312983771     0.000916925358     0.017636001026    14.003074004430
         C            0.966412016229     0.000884925358     0.003462001026    12.000000000000
         C            0.236062016229     1.196464925358    -0.003166998974    12.000000000000
         C            0.236044016229    -1.194670074642    -0.003191998974    12.000000000000
         C           -1.154278983771     1.140527925358     0.009706001026    12.000000000000
         C           -1.154320983771    -1.138672074642     0.009751001026    12.000000000000
         H            0.745558016229     2.157804925358    -0.009815998974     1.007825032230
         H            0.745495016229    -2.156036074642    -0.009833998974     1.007825032230
         H           -1.733291983771     2.062882925358     0.012261001026     1.007825032230
         H           -1.786502683771    -2.145717574642     0.012290601026     1.007825032230
         H            2.797336016229    -0.834931074642     0.296617001026     1.007825032230
         H            2.797276016229     0.836886925358     0.296200001026     1.007825032230

  Basis Set: AUG-CC-PVTZ
    Blend: AUG-CC-PVTZ
  Basis Set: (AUG-CC-PVTZ AUX)
    Blend: AUG-CC-PVTZ-JKFIT
	 Reference Energy          =    -301.8298114709243691 [Eh]
	 Singles Energy            =      -0.0000000000000000 [Eh]
	 Same-Spin Energy          =      -0.3283829030215000 [Eh]
	 Opposite-Spin Energy      =      -1.0141148536599496 [Eh]
	 Correlation Energy        =      -1.3424977566814495 [Eh]
	 Total Energy              =    -303.1723092276058082 [Eh]

	 ================> DF-SCS-MP2 Energies <==================
	-----------------------------------------------------------
	 SCS Same-Spin Scale       =       0.3333333333333333 [-]
	 SCS Opposite-Spin Scale   =       1.2000000000000000 [-]
	 SCS Same-Spin Energy      =      -0.1094609676738333 [Eh]
	 SCS Opposite-Spin Energy  =      -1.2169378243919395 [Eh]
	 SCS Correlation Energy    =      -1.3263987920657729 [Eh]
	 SCS Total Energy          =    -303.1562102629901574 [Eh]
	-----------------------------------------------------------

  Dipole Moment: [D]
     X:     3.6134      Y:     0.0573      Z:     0.9767     Total:     3.7435

*** Psi4 exiting successfully. Buy a developer a beer!
