                               Psi4 1.4a3.dev225

  ==> Input File <==

--------------------------------------------------------------------------
#psi4
#
memory 32 gb

molecule  {
0 1
  N        2.3220460    -0.0000010    -0.0807810
  N       -1.9068710     0.0000000     0.0099480
  C        0.8806833     0.0000000     0.0010128
  C        0.1994710     1.1952220    -0.0074850
  C        0.1994710    -1.1952220    -0.0074870
  C       -1.1908010     1.1392150     0.0036550
  C       -1.1908010    -1.1392150     0.0036580
  H        0.7083710     2.1567710    -0.0146740
  H        0.7083720    -2.1567700    -0.0146820
  H       -1.7689000     2.0620960     0.0068010
  H       -1.7689000    -2.0620960     0.0067980
  H        2.7635820    -0.8367020     0.2842420
  H        2.7635810     0.8367080     0.2842220
units angstrom
no_reorient  #important for SAPT in psi4, default
symmetry c1  #important for SAPT in psi4, default
}

set PROPERTIES_ORIGIN ["COM"]
properties('MP2/aug-cc-pvtz', properties = ['dipole'])
--------------------------------------------------------------------------

    Molecular point group: c1
  Charge       = 0
  Multiplicity = 1
  Basis Set: AUG-CC-PVTZ
    Blend: AUG-CC-PVTZ
  Basis Set: (AUG-CC-PVTZ AUX)
    Blend: AUG-CC-PVTZ-JKFIT

    Orbital Energies [Eh]
    ---------------------

    Doubly Occupied:

       1A    -15.578637     2A    -15.554504     3A    -11.299152
       4A    -11.276453     5A    -11.276438     6A    -11.231775
       7A    -11.231754     8A     -1.255296     9A     -1.210371
      10A     -1.057919    11A     -1.032729    12A     -0.861764
      13A     -0.841864    14A     -0.714247    15A     -0.703956
      16A     -0.654905    17A     -0.626509    18A     -0.597340
      19A     -0.594736    20A     -0.554398    21A     -0.519090
      22A     -0.479120    23A     -0.415791    24A     -0.349686
      25A     -0.341828

  @DF-RHF Final Energy:  -301.83456913361817

   => Energetics <=

    Nuclear Repulsion Energy =            274.0709524285236967
    One-Electron Energy =                -951.2905170451194863
    Two-Electron Energy =                 375.3849954829776152
    Total Energy =                       -301.8345691336181744
  Basis Set: (AUG-CC-PVTZ AUX)
    Blend: AUG-CC-PVTZ-RI
    Molecular point group: c1

    Geometry (in Angstrom), charge = 0, multiplicity = 1:

       Center              X                  Y                   Z               Mass
    ------------   -----------------  -----------------  -----------------  -----------------
         N            2.364333126496    -0.000000926124    -0.075309599263    14.003074004430
         N           -1.864583873504     0.000000073876     0.015419400737    14.003074004430
         C            0.922970426496     0.000000073876     0.006484200737    12.000000000000
         C            0.241758126496     1.195222073876    -0.002013599263    12.000000000000
         C            0.241758126496    -1.195221926124    -0.002015599263    12.000000000000
         C           -1.148513873504     1.139215073876     0.009126400737    12.000000000000
         C           -1.148513873504    -1.139214926124     0.009129400737    12.000000000000
         H            0.750658126496     2.156771073876    -0.009202599263     1.007825032230
         H            0.750659126496    -2.156769926124    -0.009210599263     1.007825032230
         H           -1.726612873504     2.062096073876     0.012272400737     1.007825032230
         H           -1.726612873504    -2.062095926124     0.012269400737     1.007825032230
         H            2.805869126496    -0.836701926124     0.289713400737     1.007825032230
         H            2.805868126496     0.836708073876     0.289693400737     1.007825032230

  Basis Set: AUG-CC-PVTZ
    Blend: AUG-CC-PVTZ
  Basis Set: (AUG-CC-PVTZ AUX)
    Blend: AUG-CC-PVTZ-JKFIT
	 Reference Energy          =    -301.8345691336181744 [Eh]
	 Singles Energy            =      -0.0000000000000000 [Eh]
	 Same-Spin Energy          =      -0.3279988945307226 [Eh]
	 Opposite-Spin Energy      =      -1.0131245937294959 [Eh]
	 Correlation Energy        =      -1.3411234882602185 [Eh]
	 Total Energy              =    -303.1756926218783974 [Eh]

	 ================> DF-SCS-MP2 Energies <==================
	-----------------------------------------------------------
	 SCS Same-Spin Scale       =       0.3333333333333333 [-]
	 SCS Opposite-Spin Scale   =       1.2000000000000000 [-]
	 SCS Same-Spin Energy      =      -0.1093329648435742 [Eh]
	 SCS Opposite-Spin Energy  =      -1.2157495124753950 [Eh]
	 SCS Correlation Energy    =      -1.3250824773189691 [Eh]
	 SCS Total Energy          =    -303.1596516109371464 [Eh]
	-----------------------------------------------------------

  Dipole Moment: [D]
     X:     3.2539      Y:     0.0000      Z:     0.9755     Total:     3.3970

*** Psi4 exiting successfully. Buy a developer a beer!
