                               Psi4 1.3.2 release

  ==> Input File <==

--------------------------------------------------------------------------
#psi4
#
memory 32 gb

molecule  {
0 1
  N        2.3228640    -0.0000190    -0.0807740
  N       -1.9067410     0.0000080     0.0117080
  C        0.9299840    -0.0000240    -0.0024660
  C        0.1996340     1.1955560    -0.0090950
  C        0.1996160    -1.1955790    -0.0091200
  C       -1.1907070     1.1396190     0.0037780
  C       -1.1907490    -1.1395810     0.0038230
  H        0.7091300     2.1568960    -0.0157440
  H        0.7090670    -2.1569450    -0.0157620
  H       -1.7697200     2.0619740     0.0063330
  H       -1.7165953    -1.9772375     0.0059354
  H        2.7609080    -0.8358400     0.2906890
  H        2.7608480     0.8359780     0.2902720
units angstrom
no_reorient  #important for SAPT in psi4, default
symmetry c1  #important for SAPT in psi4, default
}

set PROPERTIES_ORIGIN ["COM"]
properties('MP2/aug-cc-pvtz', properties = ['dipole'])
--------------------------------------------------------------------------

    Molecular point group: c1
  Charge       = 0
  Multiplicity = 1
  Basis Set: AUG-CC-PVTZ
    Blend: AUG-CC-PVTZ
  Basis Set: (AUG-CC-PVTZ AUX)
    Blend: AUG-CC-PVTZ-JKFIT

    Orbital Energies [Eh]
    ---------------------

    Doubly Occupied:

       1A    -15.584854     2A    -15.550201     3A    -11.302497
       4A    -11.274009     5A    -11.262863     6A    -11.231447
       7A    -11.230943     8A     -1.255336     9A     -1.224003
      10A     -1.051049    11A     -1.030990    12A     -0.863704
      13A     -0.844943    14A     -0.726127    15A     -0.709933
      16A     -0.657277    17A     -0.623916    18A     -0.611981
      19A     -0.593378    20A     -0.554876    21A     -0.514523
      22A     -0.486205    23A     -0.414453    24A     -0.347080
      25A     -0.334581

  @DF-RHF Final Energy:  -301.83150916596617

   => Energetics <=

    Nuclear Repulsion Energy =            274.2227485693543372
    One-Electron Energy =                -951.5461755562691906
    Two-Electron Energy =                 375.4919178209487427
    Total Energy =                       -301.8315091659661675
  Basis Set: (AUG-CC-PVTZ AUX)
    Blend: AUG-CC-PVTZ-RI
    Molecular point group: c1

    Geometry (in Angstrom), charge = 0, multiplicity = 1:

       Center              X                  Y                   Z               Mass
    ------------   -----------------  -----------------  -----------------  -----------------
         N            2.358152580315    -0.000925160776    -0.074841421317    14.003074004430
         N           -1.871452419685    -0.000898160776     0.017640578683    14.003074004430
         C            0.965272580315    -0.000930160776     0.003466578683    12.000000000000
         C            0.234922580315     1.194649839224    -0.003162421317    12.000000000000
         C            0.234904580315    -1.196485160776    -0.003187421317    12.000000000000
         C           -1.155418419685     1.138712839224     0.009710578683    12.000000000000
         C           -1.155460419685    -1.140487160776     0.009755578683    12.000000000000
         H            0.744418580315     2.155989839224    -0.009811421317     1.007825032230
         H            0.744355580315    -2.157851160776    -0.009829421317     1.007825032230
         H           -1.734431419685     2.061067839224     0.012265578683     1.007825032230
         H           -1.681306719685    -1.978143660776     0.011867978683     1.007825032230
         H            2.796196580315    -0.836746160776     0.296621578683     1.007825032230
         H            2.796136580315     0.835071839224     0.296204578683     1.007825032230

  Basis Set: AUG-CC-PVTZ
    Blend: AUG-CC-PVTZ
  Basis Set: (AUG-CC-PVTZ AUX)
    Blend: AUG-CC-PVTZ-JKFIT
	 Reference Energy          =    -301.8315091659661675 [Eh]
	 Singles Energy            =      -0.0000000000000000 [Eh]
	 Same-Spin Energy          =      -0.3279477323197562 [Eh]
	 Opposite-Spin Energy      =      -1.0126081837853795 [Eh]
	 Correlation Energy        =      -1.3405559161051357 [Eh]
	 Total Energy              =    -303.1720650820712990 [Eh]

	 ================> DF-SCS-MP2 Energies <==================
	-----------------------------------------------------------
	 SCS Same-Spin Scale       =       0.3333333333333333 [-]
	 SCS Opposite-Spin Scale   =       1.2000000000000000 [-]
	 SCS Same-Spin Energy      =      -0.1093159107732521 [Eh]
	 SCS Opposite-Spin Energy  =      -1.2151298205424554 [Eh]
	 SCS Correlation Energy    =      -1.3244457313157074 [Eh]
	 SCS Total Energy          =    -303.1559548972819016 [Eh]
	-----------------------------------------------------------

  Dipole Moment: [D]
     X:     3.5847      Y:    -0.0368      Z:     0.9769     Total:     3.7156

*** Psi4 exiting successfully. Buy a developer a beer!
