                               Psi4 1.3.2 release

  ==> Input File <==

--------------------------------------------------------------------------
#psi4
#
memory 32 gb

molecule  {
0 1
  N        2.3228640    -0.0000190    -0.0807740
  N       -1.9067410     0.0000080     0.0117080
  C        0.9299840    -0.0000240    -0.0024660
  C        0.2100946     1.2018842    -0.0089998
  C        0.2100764    -1.2019073    -0.0090249
  C       -1.1907070     1.1396190     0.0037780
  C       -1.1907490    -1.1395810     0.0038230
  H        0.7091300     2.1568960    -0.0157440
  H        0.7090670    -2.1569450    -0.0157620
  H       -1.7697200     2.0619740     0.0063330
  H       -1.7697630    -2.0619320     0.0061490
  H        2.7609080    -0.8358400     0.2906890
  H        2.7608480     0.8359780     0.2902720
units angstrom
no_reorient  #important for SAPT in psi4, default
symmetry c1  #important for SAPT in psi4, default
}

set PROPERTIES_ORIGIN ["COM"]
properties('MP2/aug-cc-pvtz', properties = ['dipole'])
--------------------------------------------------------------------------

    Molecular point group: c1
  Charge       = 0
  Multiplicity = 1
  Basis Set: AUG-CC-PVTZ
    Blend: AUG-CC-PVTZ
  Basis Set: (AUG-CC-PVTZ AUX)
    Blend: AUG-CC-PVTZ-JKFIT

    Orbital Energies [Eh]
    ---------------------

    Doubly Occupied:

       1A    -15.584046     2A    -15.551919     3A    -11.302861
       4A    -11.276649     5A    -11.276634     6A    -11.231911
       7A    -11.231893     8A     -1.254847     9A     -1.223879
      10A     -1.050618    11A     -1.026075    12A     -0.859469
      13A     -0.840593    14A     -0.717740    15A     -0.709347
      16A     -0.658507    17A     -0.621796    18A     -0.605594
      19A     -0.590980    20A     -0.554218    21A     -0.513847
      22A     -0.486138    23A     -0.414030    24A     -0.345328
      25A     -0.335308

  @DF-RHF Final Energy:  -301.83664475976116

   => Energetics <=

    Nuclear Repulsion Energy =            273.3888657719825801
    One-Electron Energy =                -949.9225700687638891
    Two-Electron Energy =                 374.6970595370200954
    Total Energy =                       -301.8366447597611568
  Basis Set: (AUG-CC-PVTZ AUX)
    Blend: AUG-CC-PVTZ-RI
    Molecular point group: c1

    Geometry (in Angstrom), charge = 0, multiplicity = 1:

       Center              X                  Y                   Z               Mass
    ------------   -----------------  -----------------  -----------------  -----------------
         N            2.356053040110    -0.000017604950    -0.074867990047    14.003074004430
         N           -1.873551959890     0.000009395050     0.017614009953    14.003074004430
         C            0.963173040110    -0.000022604950     0.003440009953    12.000000000000
         C            0.243283640110     1.201885595050    -0.003093790047    12.000000000000
         C            0.243265440110    -1.201905904950    -0.003118890047    12.000000000000
         C           -1.157517959890     1.139620395050     0.009684009953    12.000000000000
         C           -1.157559959890    -1.139579604950     0.009729009953    12.000000000000
         H            0.742319040110     2.156897395050    -0.009837990047     1.007825032230
         H            0.742256040110    -2.156943604950    -0.009855990047     1.007825032230
         H           -1.736530959890     2.061975395050     0.012239009953     1.007825032230
         H           -1.736573959890    -2.061930604950     0.012055009953     1.007825032230
         H            2.794097040110    -0.835838604950     0.296595009953     1.007825032230
         H            2.794037040110     0.835979395050     0.296178009953     1.007825032230

  Basis Set: AUG-CC-PVTZ
    Blend: AUG-CC-PVTZ
  Basis Set: (AUG-CC-PVTZ AUX)
    Blend: AUG-CC-PVTZ-JKFIT
	 Reference Energy          =    -301.8366447597611568 [Eh]
	 Singles Energy            =      -0.0000000000000000 [Eh]
	 Same-Spin Energy          =      -0.3280586029268165 [Eh]
	 Opposite-Spin Energy      =      -1.0131880814413528 [Eh]
	 Correlation Energy        =      -1.3412466843681692 [Eh]
	 Total Energy              =    -303.1778914441293296 [Eh]

	 ================> DF-SCS-MP2 Energies <==================
	-----------------------------------------------------------
	 SCS Same-Spin Scale       =       0.3333333333333333 [-]
	 SCS Opposite-Spin Scale   =       1.2000000000000000 [-]
	 SCS Same-Spin Energy      =      -0.1093528676422722 [Eh]
	 SCS Opposite-Spin Energy  =      -1.2158256977296233 [Eh]
	 SCS Correlation Energy    =      -1.3251785653718955 [Eh]
	 SCS Total Energy          =    -303.1618233251330707 [Eh]
	-----------------------------------------------------------

  Dipole Moment: [D]
     X:     3.5714      Y:     0.0002      Z:     0.9763     Total:     3.7024

*** Psi4 exiting successfully. Buy a developer a beer!
