                               Psi4 1.3.2 release

  ==> Input File <==

--------------------------------------------------------------------------
#psi4
#
memory 32 gb

molecule  {
0 1
  N        2.3225974     0.0243092    -0.0817294
  N       -1.9067410     0.0000080     0.0117080
  C        0.9299840    -0.0000240    -0.0024660
  C        0.2205662     1.2080836    -0.0107715
  C        0.1996160    -1.1955790    -0.0091200
  C       -1.1907070     1.1396190     0.0037780
  C       -1.1907490    -1.1395810     0.0038230
  H        0.7091300     2.1568960    -0.0157440
  H        0.7090670    -2.1569450    -0.0157620
  H       -1.7697200     2.0619740     0.0063330
  H       -1.7697630    -2.0619320     0.0061490
  H        2.7609080    -0.8358400     0.2906890
  H        2.7608480     0.8359780     0.2902720
units angstrom
no_reorient  #important for SAPT in psi4, default
symmetry c1  #important for SAPT in psi4, default
}

set PROPERTIES_ORIGIN ["COM"]
properties('MP2/aug-cc-pvtz', properties = ['dipole'])
--------------------------------------------------------------------------

    Molecular point group: c1
  Charge       = 0
  Multiplicity = 1
  Basis Set: AUG-CC-PVTZ
    Blend: AUG-CC-PVTZ
  Basis Set: (AUG-CC-PVTZ AUX)
    Blend: AUG-CC-PVTZ-JKFIT

    Orbital Energies [Eh]
    ---------------------

    Doubly Occupied:

       1A    -15.584131     2A    -15.551956     3A    -11.302917
       4A    -11.277610     5A    -11.275676     6A    -11.232589
       7A    -11.231318     8A     -1.254923     9A     -1.223968
      10A     -1.050771    11A     -1.026042    12A     -0.859576
      13A     -0.840742    14A     -0.719595    15A     -0.707304
      16A     -0.658789    17A     -0.622853    18A     -0.604605
      19A     -0.590364    20A     -0.554271    21A     -0.513700
      22A     -0.486235    23A     -0.413994    24A     -0.345477
      25A     -0.335254

  @DF-RHF Final Energy:  -301.83528388286726

   => Energetics <=

    Nuclear Repulsion Energy =            273.3940696215813091
    One-Electron Energy =                -949.9293895684803601
    Two-Electron Energy =                 374.7000360640318490
    Total Energy =                       -301.8352838828672589
  Basis Set: (AUG-CC-PVTZ AUX)
    Blend: AUG-CC-PVTZ-RI
    Molecular point group: c1

    Geometry (in Angstrom), charge = 0, multiplicity = 1:

       Center              X                  Y                   Z               Mass
    ------------   -----------------  -----------------  -----------------  -----------------
         N            2.355824703810     0.019090118591    -0.075442965185    14.003074004430
         N           -1.873513696190    -0.005211081409     0.017994434815    14.003074004430
         C            0.963211303810    -0.005243081409     0.003820434815    12.000000000000
         C            0.253793503810     1.202864518591    -0.004485065185    12.000000000000
         C            0.232843303810    -1.200798081409    -0.002833565185    12.000000000000
         C           -1.157479696190     1.134399918591     0.010064434815    12.000000000000
         C           -1.157521696190    -1.144800081409     0.010109434815    12.000000000000
         H            0.742357303810     2.151676918591    -0.009457565185     1.007825032230
         H            0.742294303810    -2.162164081409    -0.009475565185     1.007825032230
         H           -1.736492696190     2.056754918591     0.012619434815     1.007825032230
         H           -1.736535696190    -2.067151081409     0.012435434815     1.007825032230
         H            2.794135303810    -0.841059081409     0.296975434815     1.007825032230
         H            2.794075303810     0.830758918591     0.296558434815     1.007825032230

  Basis Set: AUG-CC-PVTZ
    Blend: AUG-CC-PVTZ
  Basis Set: (AUG-CC-PVTZ AUX)
    Blend: AUG-CC-PVTZ-JKFIT
	 Reference Energy          =    -301.8352838828672589 [Eh]
	 Singles Energy            =      -0.0000000000000000 [Eh]
	 Same-Spin Energy          =      -0.3280838879665061 [Eh]
	 Opposite-Spin Energy      =      -1.0132733424485443 [Eh]
	 Correlation Energy        =      -1.3413572304150503 [Eh]
	 Total Energy              =    -303.1766411132823009 [Eh]

	 ================> DF-SCS-MP2 Energies <==================
	-----------------------------------------------------------
	 SCS Same-Spin Scale       =       0.3333333333333333 [-]
	 SCS Opposite-Spin Scale   =       1.2000000000000000 [-]
	 SCS Same-Spin Energy      =      -0.1093612959888353 [Eh]
	 SCS Opposite-Spin Energy  =      -1.2159280109382531 [Eh]
	 SCS Correlation Energy    =      -1.3252893069270884 [Eh]
	 SCS Total Energy          =    -303.1605731897943201 [Eh]
	-----------------------------------------------------------

  Dipole Moment: [D]
     X:     3.5672      Y:    -0.0129      Z:     0.9790     Total:     3.6991

*** Psi4 exiting successfully. Buy a developer a beer!
