                               Psi4 1.3.2 release

  ==> Input File <==

--------------------------------------------------------------------------
#psi4
#
memory 32 gb

molecule  {
0 1
  N        2.3228640    -0.0000190    -0.0807740
  N       -1.9067410     0.0000080     0.0117080
  C        0.9299840    -0.0000240    -0.0024660
  C        0.1996340     1.1955560    -0.0090950
  C        0.1996160    -1.1955790    -0.0091200
  C       -1.1907070     1.1396190     0.0037780
  C       -1.1907490    -1.1395810     0.0038230
  H        0.7091300     2.1568960    -0.0157440
  H        0.7090670    -2.1569450    -0.0157620
  H       -1.7697200     2.0619740     0.0063330
  H       -1.7697630    -2.0619320     0.0061490
  H        2.8041020    -0.9182574     0.3273177
  H        2.7608480     0.8359780     0.2902720
units angstrom
no_reorient  #important for SAPT in psi4, default
symmetry c1  #important for SAPT in psi4, default
}

set PROPERTIES_ORIGIN ["COM"]
properties('MP2/aug-cc-pvtz', properties = ['dipole'])
--------------------------------------------------------------------------

    Molecular point group: c1
  Charge       = 0
  Multiplicity = 1
  Basis Set: AUG-CC-PVTZ
    Blend: AUG-CC-PVTZ
  Basis Set: (AUG-CC-PVTZ AUX)
    Blend: AUG-CC-PVTZ-JKFIT

    Orbital Energies [Eh]
    ---------------------

    Doubly Occupied:

       1A    -15.594354     2A    -15.550838     3A    -11.303079
       4A    -11.274750     5A    -11.274532     6A    -11.231804
       7A    -11.231384     8A     -1.252789     9A     -1.217114
      10A     -1.047319    11A     -1.027515    12A     -0.856777
      13A     -0.839118    14A     -0.716826    15A     -0.696987
      16A     -0.653931    17A     -0.614774    18A     -0.603779
      19A     -0.589685    20A     -0.554810    21A     -0.509758
      22A     -0.485637    23A     -0.413856    24A     -0.347291
      25A     -0.334262

  @DF-RHF Final Energy:  -301.82703648694405

   => Energetics <=

    Nuclear Repulsion Energy =            273.2123123796533832
    One-Electron Energy =                -949.6327577391809882
    Two-Electron Energy =                 374.5934088725834954
    Total Energy =                       -301.8270364869440527
  Basis Set: (AUG-CC-PVTZ AUX)
    Blend: AUG-CC-PVTZ-RI
    Molecular point group: c1

    Geometry (in Angstrom), charge = 0, multiplicity = 1:

       Center              X                  Y                   Z               Mass
    ------------   -----------------  -----------------  -----------------  -----------------
         N            2.358259453397     0.000865525115    -0.075236204614    14.003074004430
         N           -1.871345546603     0.000892525115     0.017245795386    14.003074004430
         C            0.965379453397     0.000860525115     0.003071795386    12.000000000000
         C            0.235029453397     1.196440525115    -0.003557204614    12.000000000000
         C            0.235011453397    -1.194694474885    -0.003582204614    12.000000000000
         C           -1.155311546603     1.140503525115     0.009315795386    12.000000000000
         C           -1.155353546603    -1.138696474885     0.009360795386    12.000000000000
         H            0.744525453397     2.157780525115    -0.010206204614     1.007825032230
         H            0.744462453397    -2.156060474885    -0.010224204614     1.007825032230
         H           -1.734324546603     2.062858525115     0.011870795386     1.007825032230
         H           -1.734367546603    -2.061047474885     0.011686795386     1.007825032230
         H            2.839497453397    -0.917372874885     0.332855495386     1.007825032230
         H            2.796243453397     0.836862525115     0.295809795386     1.007825032230

  Basis Set: AUG-CC-PVTZ
    Blend: AUG-CC-PVTZ
  Basis Set: (AUG-CC-PVTZ AUX)
    Blend: AUG-CC-PVTZ-JKFIT
	 Reference Energy          =    -301.8270364869440527 [Eh]
	 Singles Energy            =      -0.0000000000000000 [Eh]
	 Same-Spin Energy          =      -0.3287159972625621 [Eh]
	 Opposite-Spin Energy      =      -1.0149659320957403 [Eh]
	 Correlation Energy        =      -1.3436819293583024 [Eh]
	 Total Energy              =    -303.1707184163023499 [Eh]

	 ================> DF-SCS-MP2 Energies <==================
	-----------------------------------------------------------
	 SCS Same-Spin Scale       =       0.3333333333333333 [-]
	 SCS Opposite-Spin Scale   =       1.2000000000000000 [-]
	 SCS Same-Spin Energy      =      -0.1095719990875207 [Eh]
	 SCS Opposite-Spin Energy  =      -1.2179591185148884 [Eh]
	 SCS Correlation Energy    =      -1.3275311176024092 [Eh]
	 SCS Total Energy          =    -303.1545676045464575 [Eh]
	-----------------------------------------------------------

  Dipole Moment: [D]
     X:     3.6205      Y:    -0.0496      Z:     0.9929     Total:     3.7545

*** Psi4 exiting successfully. Buy a developer a beer!
