                               Psi4 1.3.2 release

  ==> Input File <==

--------------------------------------------------------------------------
#psi4
#
memory 32 gb

molecule  {
0 1
  N        2.3228640    -0.0000190    -0.0807740
  N       -1.9067410     0.0000080     0.0117080
  C        0.9299840    -0.0000240    -0.0024660
  C        0.1996340     1.1955560    -0.0090950
  C        0.1996160    -1.1955790    -0.0091200
  C       -1.1907070     1.1396190     0.0037780
  C       -1.2971473    -0.9702351     0.0049947
  H        0.7091300     2.1568960    -0.0157440
  H        0.7090670    -2.1569450    -0.0157620
  H       -1.7697200     2.0619740     0.0063330
  H       -1.7697630    -2.0619320     0.0061490
  H        2.7609080    -0.8358400     0.2906890
  H        2.7608480     0.8359780     0.2902720
units angstrom
no_reorient  #important for SAPT in psi4, default
symmetry c1  #important for SAPT in psi4, default
}

set PROPERTIES_ORIGIN ["COM"]
properties('MP2/aug-cc-pvtz', properties = ['dipole'])
--------------------------------------------------------------------------

    Molecular point group: c1
  Charge       = 0
  Multiplicity = 1
  Basis Set: AUG-CC-PVTZ
    Blend: AUG-CC-PVTZ
  Basis Set: (AUG-CC-PVTZ AUX)
    Blend: AUG-CC-PVTZ-JKFIT

    Orbital Energies [Eh]
    ---------------------

    Doubly Occupied:

       1A    -15.580564     2A    -15.540990     3A    -11.296319
       4A    -11.280530     5A    -11.272836     6A    -11.239582
       7A    -11.231122     8A     -1.319714     9A     -1.233183
      10A     -1.065791    11A     -1.008435    12A     -0.878795
      13A     -0.820917    14A     -0.717946    15A     -0.713741
      16A     -0.654097    17A     -0.632034    18A     -0.612997
      19A     -0.574917    20A     -0.573068    21A     -0.514324
      22A     -0.507947    23A     -0.392091    24A     -0.363207
      25A     -0.322081

  @DF-RHF Final Energy:  -301.78038493291763

   => Energetics <=

    Nuclear Repulsion Energy =            275.8959532449565017
    One-Electron Energy =                -954.6582230996776843
    Two-Electron Energy =                 376.9818849218034984
    Total Energy =                       -301.7803849329176273
  Basis Set: (AUG-CC-PVTZ AUX)
    Blend: AUG-CC-PVTZ-RI
    Molecular point group: c1

    Geometry (in Angstrom), charge = 0, multiplicity = 1:

       Center              X                  Y                   Z               Mass
    ------------   -----------------  -----------------  -----------------  -----------------
         N            2.372297391750    -0.021624038325    -0.074993204423    14.003074004430
         N           -1.857307608250    -0.021597038325     0.017488795577    14.003074004430
         C            0.979417391750    -0.021629038325     0.003314795577    12.000000000000
         C            0.249067391750     1.173950961675    -0.003314204423    12.000000000000
         C            0.249049391750    -1.217184038325    -0.003339204423    12.000000000000
         C           -1.141273608250     1.118013961675     0.009558795577    12.000000000000
         C           -1.247713908250    -0.991840138325     0.010775495577    12.000000000000
         H            0.758563391750     2.135290961675    -0.009963204423     1.007825032230
         H            0.758500391750    -2.178550038325    -0.009981204423     1.007825032230
         H           -1.720286608250     2.040368961675     0.012113795577     1.007825032230
         H           -1.720329608250    -2.083537038325     0.011929795577     1.007825032230
         H            2.810341391750    -0.857445038325     0.296469795577     1.007825032230
         H            2.810281391750     0.814372961675     0.296052795577     1.007825032230

  Basis Set: AUG-CC-PVTZ
    Blend: AUG-CC-PVTZ
  Basis Set: (AUG-CC-PVTZ AUX)
    Blend: AUG-CC-PVTZ-JKFIT
	 Reference Energy          =    -301.7803849329176273 [Eh]
	 Singles Energy            =      -0.0000000000000000 [Eh]
	 Same-Spin Energy          =      -0.3261331484775198 [Eh]
	 Opposite-Spin Energy      =      -1.0112370097724301 [Eh]
	 Correlation Energy        =      -1.3373701582499500 [Eh]
	 Total Energy              =    -303.1177550911675667 [Eh]

	 ================> DF-SCS-MP2 Energies <==================
	-----------------------------------------------------------
	 SCS Same-Spin Scale       =       0.3333333333333333 [-]
	 SCS Opposite-Spin Scale   =       1.2000000000000000 [-]
	 SCS Same-Spin Energy      =      -0.1087110494925066 [Eh]
	 SCS Opposite-Spin Energy  =      -1.2134844117269161 [Eh]
	 SCS Correlation Energy    =      -1.3221954612194227 [Eh]
	 SCS Total Energy          =    -303.1025803941370782 [Eh]
	-----------------------------------------------------------

  Dipole Moment: [D]
     X:     3.2919      Y:     0.3542      Z:     0.9783     Total:     3.4524

*** Psi4 exiting successfully. Buy a developer a beer!
