                               Psi4 1.3.2 release

  ==> Input File <==

--------------------------------------------------------------------------
#psi4
#
memory 32 gb

molecule  {
0 1
  N        2.3228640    -0.0000190    -0.0807740
  N       -1.8461181    -0.0359065     0.0113136
  C        0.9299840    -0.0000240    -0.0024660
  C        0.1996340     1.1955560    -0.0090950
  C        0.1996160    -1.1955790    -0.0091200
  C       -1.1907070     1.1396190     0.0037780
  C       -1.1907490    -1.1395810     0.0038230
  H        0.7091300     2.1568960    -0.0157440
  H        0.7090670    -2.1569450    -0.0157620
  H       -1.7206560     2.0910132     0.0058922
  H       -1.7697630    -2.0619320     0.0061490
  H        2.7609080    -0.8358400     0.2906890
  H        2.7608480     0.8359780     0.2902720
units angstrom
no_reorient  #important for SAPT in psi4, default
symmetry c1  #important for SAPT in psi4, default
}

set PROPERTIES_ORIGIN ["COM"]
properties('MP2/aug-cc-pvtz', properties = ['dipole'])
--------------------------------------------------------------------------

    Molecular point group: c1
  Charge       = 0
  Multiplicity = 1
  Basis Set: AUG-CC-PVTZ
    Blend: AUG-CC-PVTZ
  Basis Set: (AUG-CC-PVTZ AUX)
    Blend: AUG-CC-PVTZ-JKFIT

    Orbital Energies [Eh]
    ---------------------

    Doubly Occupied:

       1A    -15.582760     2A    -15.542945     3A    -11.299741
       4A    -11.275933     5A    -11.266798     6A    -11.231907
       7A    -11.227639     8A     -1.265595     9A     -1.227851
      10A     -1.051181    11A     -1.029773    12A     -0.862631
      13A     -0.840757    14A     -0.720647    15A     -0.710993
      16A     -0.652073    17A     -0.629200    18A     -0.609240
      19A     -0.590448    20A     -0.558344    21A     -0.516197
      22A     -0.491147    23A     -0.401029    24A     -0.348807
      25A     -0.333257

  @DF-RHF Final Energy:  -301.83516311966940

   => Energetics <=

    Nuclear Repulsion Energy =            275.2219813463904643
    One-Electron Energy =                -953.5805055853421663
    Two-Electron Energy =                 376.5233611192823560
    Total Energy =                       -301.8351631196694029
  Basis Set: (AUG-CC-PVTZ AUX)
    Blend: AUG-CC-PVTZ-RI
    Molecular point group: c1

    Geometry (in Angstrom), charge = 0, multiplicity = 1:

       Center              X                  Y                   Z               Mass
    ------------   -----------------  -----------------  -----------------  -----------------
         N            2.349170726876     0.005018335148    -0.074780266604    14.003074004430
         N           -1.819811373124    -0.030869164852     0.017307333396    14.003074004430
         C            0.956290726876     0.005013335148     0.003527733396    12.000000000000
         C            0.225940726876     1.200593335148    -0.003101266604    12.000000000000
         C            0.225922726876    -1.190541664852    -0.003126266604    12.000000000000
         C           -1.164400273124     1.144656335148     0.009771733396    12.000000000000
         C           -1.164442273124    -1.134543664852     0.009816733396    12.000000000000
         H            0.735436726876     2.161933335148    -0.009750266604     1.007825032230
         H            0.735373726876    -2.151907664852    -0.009768266604     1.007825032230
         H           -1.694349273124     2.096050535148     0.011885933396     1.007825032230
         H           -1.743456273124    -2.056894664852     0.012142733396     1.007825032230
         H            2.787214726876    -0.830802664852     0.296682733396     1.007825032230
         H            2.787154726876     0.841015335148     0.296265733396     1.007825032230

  Basis Set: AUG-CC-PVTZ
    Blend: AUG-CC-PVTZ
  Basis Set: (AUG-CC-PVTZ AUX)
    Blend: AUG-CC-PVTZ-JKFIT
	 Reference Energy          =    -301.8351631196694029 [Eh]
	 Singles Energy            =      -0.0000000000000000 [Eh]
	 Same-Spin Energy          =      -0.3278788237019208 [Eh]
	 Opposite-Spin Energy      =      -1.0117717157084909 [Eh]
	 Correlation Energy        =      -1.3396505394104117 [Eh]
	 Total Energy              =    -303.1748136590798026 [Eh]

	 ================> DF-SCS-MP2 Energies <==================
	-----------------------------------------------------------
	 SCS Same-Spin Scale       =       0.3333333333333333 [-]
	 SCS Opposite-Spin Scale   =       1.2000000000000000 [-]
	 SCS Same-Spin Energy      =      -0.1092929412339736 [Eh]
	 SCS Opposite-Spin Energy  =      -1.2141260588501890 [Eh]
	 SCS Correlation Energy    =      -1.3234190000841626 [Eh]
	 SCS Total Energy          =    -303.1585821197535893 [Eh]
	-----------------------------------------------------------

  Dipole Moment: [D]
     X:     3.4224      Y:     0.1011      Z:     0.9787     Total:     3.5611

*** Psi4 exiting successfully. Buy a developer a beer!
