                               Psi4 1.3.2 release

  ==> Input File <==

--------------------------------------------------------------------------
#psi4
#
memory 32 gb

molecule  {
0 1
  N        2.3228640    -0.0000190    -0.0807740
  N       -1.9067410     0.0000080     0.0117080
  C        0.9320015    -0.0440340     0.0182766
  C        0.1996340     1.1955560    -0.0090950
  C        0.1996160    -1.1955790    -0.0091200
  C       -1.1907070     1.1396190     0.0037780
  C       -1.1907490    -1.1395810     0.0038230
  H        0.7091300     2.1568960    -0.0157440
  H        0.7090670    -2.1569450    -0.0157620
  H       -1.7697200     2.0619740     0.0063330
  H       -1.7697630    -2.0619320     0.0061490
  H        2.7287709    -0.8484701     0.2984810
  H        2.7608480     0.8359780     0.2902720
units angstrom
no_reorient  #important for SAPT in psi4, default
symmetry c1  #important for SAPT in psi4, default
}

set PROPERTIES_ORIGIN ["COM"]
properties('MP2/aug-cc-pvtz', properties = ['dipole'])
--------------------------------------------------------------------------

    Molecular point group: c1
  Charge       = 0
  Multiplicity = 1
  Basis Set: AUG-CC-PVTZ
    Blend: AUG-CC-PVTZ
  Basis Set: (AUG-CC-PVTZ AUX)
    Blend: AUG-CC-PVTZ-JKFIT

    Orbital Energies [Eh]
    ---------------------

    Doubly Occupied:

       1A    -15.585698     2A    -15.551409     3A    -11.302401
       4A    -11.277226     5A    -11.272544     6A    -11.234744
       7A    -11.228909     8A     -1.256151     9A     -1.225061
      10A     -1.053423    11A     -1.026132    12A     -0.859448
      13A     -0.839986    14A     -0.718507    15A     -0.710696
      16A     -0.654776    17A     -0.626196    18A     -0.604369
      19A     -0.589698    20A     -0.555529    21A     -0.509159
      22A     -0.487592    23A     -0.414141    24A     -0.349187
      25A     -0.334097

  @DF-RHF Final Energy:  -301.83387380188333

   => Energetics <=

    Nuclear Repulsion Energy =            273.7249964218024161
    One-Electron Energy =                -950.5835803269898179
    Two-Electron Energy =                 375.0247101033040735
    Total Energy =                       -301.8338738018833283
  Basis Set: (AUG-CC-PVTZ AUX)
    Blend: AUG-CC-PVTZ-RI
    Molecular point group: c1

    Geometry (in Angstrom), charge = 0, multiplicity = 1:

       Center              X                  Y                   Z               Mass
    ------------   -----------------  -----------------  -----------------  -----------------
         N            2.358809255257     0.005732846032    -0.077573701794    14.003074004430
         N           -1.870795744743     0.005759846032     0.014908298206    14.003074004430
         C            0.967946755257    -0.038282153968     0.021476898206    12.000000000000
         C            0.235579255257     1.201307846032    -0.005894701794    12.000000000000
         C            0.235561255257    -1.189827153968    -0.005919701794    12.000000000000
         C           -1.154761744743     1.145370846032     0.006978298206    12.000000000000
         C           -1.154803744743    -1.133829153968     0.007023298206    12.000000000000
         H            0.745075255257     2.162647846032    -0.012543701794     1.007825032230
         H            0.745012255257    -2.151193153968    -0.012561701794     1.007825032230
         H           -1.733774744743     2.067725846032     0.009533298206     1.007825032230
         H           -1.733817744743    -2.056180153968     0.009349298206     1.007825032230
         H            2.764716155257    -0.842718253968     0.301681298206     1.007825032230
         H            2.796793255257     0.841729846032     0.293472298206     1.007825032230

  Basis Set: AUG-CC-PVTZ
    Blend: AUG-CC-PVTZ
  Basis Set: (AUG-CC-PVTZ AUX)
    Blend: AUG-CC-PVTZ-JKFIT
	 Reference Energy          =    -301.8338738018833283 [Eh]
	 Singles Energy            =      -0.0000000000000000 [Eh]
	 Same-Spin Energy          =      -0.3281631891729387 [Eh]
	 Opposite-Spin Energy      =      -1.0134345309420136 [Eh]
	 Correlation Energy        =      -1.3415977201149523 [Eh]
	 Total Energy              =    -303.1754715219983041 [Eh]

	 ================> DF-SCS-MP2 Energies <==================
	-----------------------------------------------------------
	 SCS Same-Spin Scale       =       0.3333333333333333 [-]
	 SCS Opposite-Spin Scale   =       1.2000000000000000 [-]
	 SCS Same-Spin Energy      =      -0.1093877297243129 [Eh]
	 SCS Opposite-Spin Energy  =      -1.2161214371304163 [Eh]
	 SCS Correlation Energy    =      -1.3255091668547292 [Eh]
	 SCS Total Energy          =    -303.1593829687380435 [Eh]
	-----------------------------------------------------------

  Dipole Moment: [D]
     X:     3.5616      Y:    -0.0140      Z:     0.9877     Total:     3.6960

*** Psi4 exiting successfully. Buy a developer a beer!
