                               Psi4 1.4a3.dev225

  ==> Input File <==

--------------------------------------------------------------------------
#psi4
#
memory 32 gb

molecule  {
0 1
  N        2.3220460    -0.0000010    -0.0807810
  N       -1.9068710     0.0000000     0.0099480
  C        0.9306030     0.0000000    -0.0018200
  C        0.1890346     1.2122829    -0.0075659
  C        0.1994710    -1.1952220    -0.0074870
  C       -1.1908010     1.1392150     0.0036550
  C       -1.1908010    -1.1392150     0.0036580
  H        0.7083710     2.1567710    -0.0146740
  H        0.7083720    -2.1567700    -0.0146820
  H       -1.7689000     2.0620960     0.0068010
  H       -1.7689000    -2.0620960     0.0067980
  H        2.7635820    -0.8367020     0.2842420
  H        2.7635810     0.8367080     0.2842220
units angstrom
no_reorient  #important for SAPT in psi4, default
symmetry c1  #important for SAPT in psi4, default
}

set PROPERTIES_ORIGIN ["COM"]
properties('MP2/aug-cc-pvtz', properties = ['dipole'])
--------------------------------------------------------------------------

    Molecular point group: c1
  Charge       = 0
  Multiplicity = 1
  Basis Set: AUG-CC-PVTZ
    Blend: AUG-CC-PVTZ
  Basis Set: (AUG-CC-PVTZ AUX)
    Blend: AUG-CC-PVTZ-JKFIT

    Orbital Energies [Eh]
    ---------------------

    Doubly Occupied:

       1A    -15.586450     2A    -15.550029     3A    -11.305773
       4A    -11.275135     5A    -11.272786     6A    -11.231744
       7A    -11.231119     8A     -1.255102     9A     -1.224530
      10A     -1.049706    11A     -1.028782    12A     -0.856606
      13A     -0.842953    14A     -0.718608    15A     -0.710966
      16A     -0.656772    17A     -0.622957    18A     -0.606243
      19A     -0.591898    20A     -0.554619    21A     -0.508355
      22A     -0.487095    23A     -0.414057    24A     -0.348688
      25A     -0.333094

  @DF-RHF Final Energy:  -301.83689347065740

   => Energetics <=

    Nuclear Repulsion Energy =            273.5074684567175609
    One-Electron Energy =                -950.1605865720867996
    Two-Electron Energy =                 374.8162246447118378
    Total Energy =                       -301.8368934706574009
  Basis Set: (AUG-CC-PVTZ AUX)
    Blend: AUG-CC-PVTZ-RI
    Molecular point group: c1

    Geometry (in Angstrom), charge = 0, multiplicity = 1:

       Center              X                  Y                   Z               Mass
    ------------   -----------------  -----------------  -----------------  -----------------
         N            2.359295550817    -0.002177683763    -0.074937847553    14.003074004430
         N           -1.869621449183    -0.002176683763     0.015791152447    14.003074004430
         C            0.967852550817    -0.002176683763     0.004023152447    12.000000000000
         C            0.226284150817     1.210106216237    -0.001722747553    12.000000000000
         C            0.236720550817    -1.197398683763    -0.001643847553    12.000000000000
         C           -1.153551449183     1.137038316237     0.009498152447    12.000000000000
         C           -1.153551449183    -1.141391683763     0.009501152447    12.000000000000
         H            0.745620550817     2.154594316237    -0.008830847553     1.007825032230
         H            0.745621550817    -2.158946683763    -0.008838847553     1.007825032230
         H           -1.731650449183     2.059919316237     0.012644152447     1.007825032230
         H           -1.731650449183    -2.064272683763     0.012641152447     1.007825032230
         H            2.800831550817    -0.838878683763     0.290085152447     1.007825032230
         H            2.800830550817     0.834531316237     0.290065152447     1.007825032230

  Basis Set: AUG-CC-PVTZ
    Blend: AUG-CC-PVTZ
  Basis Set: (AUG-CC-PVTZ AUX)
    Blend: AUG-CC-PVTZ-JKFIT
	 Reference Energy          =    -301.8368934706574009 [Eh]
	 Singles Energy            =      -0.0000000000000000 [Eh]
	 Same-Spin Energy          =      -0.3280002999865797 [Eh]
	 Opposite-Spin Energy      =      -1.0130078704532619 [Eh]
	 Correlation Energy        =      -1.3410081704398416 [Eh]
	 Total Energy              =    -303.1779016410972645 [Eh]

	 ================> DF-SCS-MP2 Energies <==================
	-----------------------------------------------------------
	 SCS Same-Spin Scale       =       0.3333333333333333 [-]
	 SCS Opposite-Spin Scale   =       1.2000000000000000 [-]
	 SCS Same-Spin Energy      =      -0.1093334333288599 [Eh]
	 SCS Opposite-Spin Energy  =      -1.2156094445439143 [Eh]
	 SCS Correlation Energy    =      -1.3249428778727741 [Eh]
	 SCS Total Energy          =    -303.1618363485301870 [Eh]
	-----------------------------------------------------------

  Dipole Moment: [D]
     X:     3.6618      Y:    -0.0059      Z:     0.9625     Total:     3.7862

*** Psi4 exiting successfully. Buy a developer a beer!
