                               Psi4 1.3.2 release

  ==> Input File <==

--------------------------------------------------------------------------
#psi4
#
memory 32 gb

molecule  {
0 1
  N        2.3228640    -0.0000190    -0.0807740
  N       -1.8967691    -0.0061974     0.0116437
  C        0.9299840    -0.0000240    -0.0024660
  C        0.1996340     1.1955560    -0.0090950
  C        0.1996160    -1.1955790    -0.0091200
  C       -1.1907070     1.1396190     0.0037780
  C       -1.1907490    -1.1395810     0.0038230
  H        0.7091300     2.1568960    -0.0157440
  H        0.7090670    -2.1569450    -0.0157620
  H       -1.7616493     2.0669917     0.0062600
  H       -1.7697630    -2.0619320     0.0061490
  H        2.7609080    -0.8358400     0.2906890
  H        2.7608480     0.8359780     0.2902720
units angstrom
no_reorient  #important for SAPT in psi4, default
symmetry c1  #important for SAPT in psi4, default
}

set PROPERTIES_ORIGIN ["COM"]
properties('MP2/aug-cc-pvtz', properties = ['dipole'])
--------------------------------------------------------------------------

    Molecular point group: c1
  Charge       = 0
  Multiplicity = 1
  Basis Set: AUG-CC-PVTZ
    Blend: AUG-CC-PVTZ
  Basis Set: (AUG-CC-PVTZ AUX)
    Blend: AUG-CC-PVTZ-JKFIT

    Orbital Energies [Eh]
    ---------------------

    Doubly Occupied:

       1A    -15.584825     2A    -15.549745     3A    -11.302536
       4A    -11.274975     5A    -11.273524     6A    -11.231759
       7A    -11.231064     8A     -1.256851     9A     -1.225069
      10A     -1.051358    11A     -1.028249    12A     -0.858418
      13A     -0.842338    14A     -0.718806    15A     -0.710407
      16A     -0.653977    17A     -0.623773    18A     -0.607772
      19A     -0.590455    20A     -0.555754    21A     -0.511646
      22A     -0.487448    23A     -0.412034    24A     -0.347416
      25A     -0.335025

  @DF-RHF Final Energy:  -301.83766339332254

   => Energetics <=

    Nuclear Repulsion Energy =            273.9399336669172840
    One-Electron Energy =                -951.0247491210180897
    Two-Electron Energy =                 375.2471520607783191
    Total Energy =                       -301.8376633933225435
  Basis Set: (AUG-CC-PVTZ AUX)
    Blend: AUG-CC-PVTZ-RI
    Molecular point group: c1

    Geometry (in Angstrom), charge = 0, multiplicity = 1:

       Center              X                  Y                   Z               Mass
    ------------   -----------------  -----------------  -----------------  -----------------
         N            2.357151152717     0.000852504736    -0.074833354624    14.003074004430
         N           -1.862481947283    -0.005325895264     0.017584345376    14.003074004430
         C            0.964271152717     0.000847504736     0.003474645376    12.000000000000
         C            0.233921152717     1.196427504736    -0.003154354624    12.000000000000
         C            0.233903152717    -1.194707495264    -0.003179354624    12.000000000000
         C           -1.156419847283     1.140490504736     0.009718645376    12.000000000000
         C           -1.156461847283    -1.138709495264     0.009763645376    12.000000000000
         H            0.743417152717     2.157767504736    -0.009803354624     1.007825032230
         H            0.743354152717    -2.156073495264    -0.009821354624     1.007825032230
         H           -1.727362147283     2.067863204736     0.012200645376     1.007825032230
         H           -1.735475847283    -2.061060495264     0.012089645376     1.007825032230
         H            2.795195152717    -0.834968495264     0.296629645376     1.007825032230
         H            2.795135152717     0.836849504736     0.296212645376     1.007825032230

  Basis Set: AUG-CC-PVTZ
    Blend: AUG-CC-PVTZ
  Basis Set: (AUG-CC-PVTZ AUX)
    Blend: AUG-CC-PVTZ-JKFIT
	 Reference Energy          =    -301.8376633933225435 [Eh]
	 Singles Energy            =      -0.0000000000000000 [Eh]
	 Same-Spin Energy          =      -0.3280642983027612 [Eh]
	 Opposite-Spin Energy      =      -1.0128660193289518 [Eh]
	 Correlation Energy        =      -1.3409303176317131 [Eh]
	 Total Energy              =    -303.1785937109542601 [Eh]

	 ================> DF-SCS-MP2 Energies <==================
	-----------------------------------------------------------
	 SCS Same-Spin Scale       =       0.3333333333333333 [-]
	 SCS Opposite-Spin Scale   =       1.2000000000000000 [-]
	 SCS Same-Spin Energy      =      -0.1093547661009204 [Eh]
	 SCS Opposite-Spin Energy  =      -1.2154392231947422 [Eh]
	 SCS Correlation Energy    =      -1.3247939892956626 [Eh]
	 SCS Total Energy          =    -303.1624573826181859 [Eh]
	-----------------------------------------------------------

  Dipole Moment: [D]
     X:     3.5665      Y:     0.0162      Z:     0.9771     Total:     3.6980

*** Psi4 exiting successfully. Buy a developer a beer!
