                               Psi4 1.4a3.dev225

  ==> Input File <==

--------------------------------------------------------------------------
#psi4
#
memory 32 gb

molecule  {
0 1
  N        2.3220460    -0.0000010    -0.0807810
  N       -1.9068710     0.0000000     0.0099480
  C        0.9306030     0.0000000    -0.0018200
  C        0.1994710     1.1952220    -0.0074850
  C        0.1994710    -1.1952220    -0.0074870
  C       -1.1908010     1.1392150     0.0036550
  C       -1.1908010    -1.1392150     0.0036580
  H        0.7083710     2.1567710    -0.0146740
  H        0.7083720    -2.1567700    -0.0146820
  H       -1.7689000     2.0620960     0.0068010
  H       -1.7689000    -2.0620960     0.0067980
  H        2.7722905    -0.8532044     0.2914414
  H        2.7635810     0.8367080     0.2842220
units angstrom
no_reorient  #important for SAPT in psi4, default
symmetry c1  #important for SAPT in psi4, default
}

set PROPERTIES_ORIGIN ["COM"]
properties('MP2/aug-cc-pvtz', properties = ['dipole'])
--------------------------------------------------------------------------

    Molecular point group: c1
  Charge       = 0
  Multiplicity = 1
  Basis Set: AUG-CC-PVTZ
    Blend: AUG-CC-PVTZ
  Basis Set: (AUG-CC-PVTZ AUX)
    Blend: AUG-CC-PVTZ-JKFIT

    Orbital Energies [Eh]
    ---------------------

    Doubly Occupied:

       1A    -15.587229     2A    -15.550772     3A    -11.303090
       4A    -11.274610     5A    -11.274567     6A    -11.231517
       7A    -11.231438     8A     -1.254951     9A     -1.222880
      10A     -1.050626    11A     -1.027562    12A     -0.857328
      13A     -0.841923    14A     -0.718249    15A     -0.707882
      16A     -0.654187    17A     -0.621259    18A     -0.607344
      19A     -0.589973    20A     -0.555322    21A     -0.510242
      22A     -0.486472    23A     -0.413872    24A     -0.347292
      25A     -0.334557

  @DF-RHF Final Energy:  -301.83630693929007

   => Energetics <=

    Nuclear Repulsion Energy =            273.6253367655577904
    One-Electron Energy =                -950.4130002290796710
    Two-Electron Energy =                 374.9513565242318123
    Total Energy =                       -301.8363069392900684
  Basis Set: (AUG-CC-PVTZ AUX)
    Blend: AUG-CC-PVTZ-RI
    Molecular point group: c1

    Geometry (in Angstrom), charge = 0, multiplicity = 1:

       Center              X                  Y                   Z               Mass
    ------------   -----------------  -----------------  -----------------  -----------------
         N            2.357870680750     0.000175905178    -0.075025314481    14.003074004430
         N           -1.871046319250     0.000176905178     0.015703685519    14.003074004430
         C            0.966427680750     0.000176905178     0.003935685519    12.000000000000
         C            0.235295680750     1.195398905178    -0.001729314481    12.000000000000
         C            0.235295680750    -1.195045094822    -0.001731314481    12.000000000000
         C           -1.154976319250     1.139391905178     0.009410685519    12.000000000000
         C           -1.154976319250    -1.139038094822     0.009413685519    12.000000000000
         H            0.744195680750     2.156947905178    -0.008918314481     1.007825032230
         H            0.744196680750    -2.156593094822    -0.008926314481     1.007825032230
         H           -1.733075319250     2.062272905178     0.012556685519     1.007825032230
         H           -1.733075319250    -2.061919094822     0.012553685519     1.007825032230
         H            2.808115180750    -0.853027494822     0.297197085519     1.007825032230
         H            2.799405680750     0.836884905178     0.289977685519     1.007825032230

  Basis Set: AUG-CC-PVTZ
    Blend: AUG-CC-PVTZ
  Basis Set: (AUG-CC-PVTZ AUX)
    Blend: AUG-CC-PVTZ-JKFIT
	 Reference Energy          =    -301.8363069392900684 [Eh]
	 Singles Energy            =      -0.0000000000000000 [Eh]
	 Same-Spin Energy          =      -0.3282325486975728 [Eh]
	 Opposite-Spin Energy      =      -1.0134395911829990 [Eh]
	 Correlation Energy        =      -1.3416721398805718 [Eh]
	 Total Energy              =    -303.1779790791706546 [Eh]

	 ================> DF-SCS-MP2 Energies <==================
	-----------------------------------------------------------
	 SCS Same-Spin Scale       =       0.3333333333333333 [-]
	 SCS Opposite-Spin Scale   =       1.2000000000000000 [-]
	 SCS Same-Spin Energy      =      -0.1094108495658576 [Eh]
	 SCS Opposite-Spin Energy  =      -1.2161275094195987 [Eh]
	 SCS Correlation Energy    =      -1.3255383589854564 [Eh]
	 SCS Total Energy          =    -303.1618452982755230 [Eh]
	-----------------------------------------------------------

  Dipole Moment: [D]
     X:     3.6251      Y:    -0.0104      Z:     0.9674     Total:     3.7519

*** Psi4 exiting successfully. Buy a developer a beer!
