                               Psi4 1.3.2 release

  ==> Input File <==

--------------------------------------------------------------------------
#psi4
#
memory 32 gb

molecule  {
0 1
  N        2.3228640    -0.0000190    -0.0807740
  N       -1.9067410     0.0000080     0.0117080
  C        0.9336459    -0.0660222     0.0286042
  C        0.1996340     1.1955560    -0.0090950
  C        0.1996160    -1.1955790    -0.0091200
  C       -1.1907070     1.1396190     0.0037780
  C       -1.1907490    -1.1395810     0.0038230
  H        0.7091300     2.1568960    -0.0157440
  H        0.7090670    -2.1569450    -0.0157620
  H       -1.7697200     2.0619740     0.0063330
  H       -1.7697630    -2.0619320     0.0061490
  H        2.7125145    -0.8543984     0.3022043
  H        2.7608480     0.8359780     0.2902720
units angstrom
no_reorient  #important for SAPT in psi4, default
symmetry c1  #important for SAPT in psi4, default
}

set PROPERTIES_ORIGIN ["COM"]
properties('MP2/aug-cc-pvtz', properties = ['dipole'])
--------------------------------------------------------------------------

    Molecular point group: c1
  Charge       = 0
  Multiplicity = 1
  Basis Set: AUG-CC-PVTZ
    Blend: AUG-CC-PVTZ
  Basis Set: (AUG-CC-PVTZ AUX)
    Blend: AUG-CC-PVTZ-JKFIT

    Orbital Energies [Eh]
    ---------------------

    Doubly Occupied:

       1A    -15.585912     2A    -15.551703     3A    -11.301968
       4A    -11.278418     5A    -11.271427     6A    -11.236148
       7A    -11.227503     8A     -1.256504     9A     -1.225530
      10A     -1.055599    11A     -1.024385    12A     -0.861124
      13A     -0.837818    14A     -0.719728    15A     -0.709706
      16A     -0.655380    17A     -0.628860    18A     -0.602225
      19A     -0.588834    20A     -0.555729    21A     -0.507481
      22A     -0.487954    23A     -0.414159    24A     -0.351007
      25A     -0.332891

  @DF-RHF Final Energy:  -301.82989575143750

   => Energetics <=

    Nuclear Repulsion Energy =            273.7397956492090998
    One-Electron Energy =                -950.6033984902726388
    Two-Electron Energy =                 375.0337070896260343
    Total Energy =                       -301.8298957514375047
  Basis Set: (AUG-CC-PVTZ AUX)
    Blend: AUG-CC-PVTZ-RI
    Molecular point group: c1

    Geometry (in Angstrom), charge = 0, multiplicity = 1:

       Center              X                  Y                   Z               Mass
    ------------   -----------------  -----------------  -----------------  -----------------
         N            2.358773645657     0.008601790216    -0.078931271480    14.003074004430
         N           -1.870831354343     0.008628790216     0.013550728520    14.003074004430
         C            0.969555545657    -0.057401409784     0.030446928520    12.000000000000
         C            0.235543645657     1.204176790216    -0.007252271480    12.000000000000
         C            0.235525645657    -1.186958209784    -0.007277271480    12.000000000000
         C           -1.154797354343     1.148239790216     0.005620728520    12.000000000000
         C           -1.154839354343    -1.130960209784     0.005665728520    12.000000000000
         H            0.745039645657     2.165516790216    -0.013901271480     1.007825032230
         H            0.744976645657    -2.148324209784    -0.013919271480     1.007825032230
         H           -1.733810354343     2.070594790216     0.008175728520     1.007825032230
         H           -1.733853354343    -2.053311209784     0.007991728520     1.007825032230
         H            2.748424145657    -0.845777609784     0.304047028520     1.007825032230
         H            2.796757645657     0.844598790216     0.292114728520     1.007825032230

  Basis Set: AUG-CC-PVTZ
    Blend: AUG-CC-PVTZ
  Basis Set: (AUG-CC-PVTZ AUX)
    Blend: AUG-CC-PVTZ-JKFIT
	 Reference Energy          =    -301.8298957514375047 [Eh]
	 Singles Energy            =      -0.0000000000000000 [Eh]
	 Same-Spin Energy          =      -0.3281936950812644 [Eh]
	 Opposite-Spin Energy      =      -1.0137214186050401 [Eh]
	 Correlation Energy        =      -1.3419151136863046 [Eh]
	 Total Energy              =    -303.1718108651238026 [Eh]

	 ================> DF-SCS-MP2 Energies <==================
	-----------------------------------------------------------
	 SCS Same-Spin Scale       =       0.3333333333333333 [-]
	 SCS Opposite-Spin Scale   =       1.2000000000000000 [-]
	 SCS Same-Spin Energy      =      -0.1093978983604215 [Eh]
	 SCS Opposite-Spin Energy  =      -1.2164657023260481 [Eh]
	 SCS Correlation Energy    =      -1.3258636006864695 [Eh]
	 SCS Total Energy          =    -303.1557593521239937 [Eh]
	-----------------------------------------------------------

  Dipole Moment: [D]
     X:     3.5440      Y:    -0.0210      Z:     0.9928     Total:     3.6805

*** Psi4 exiting successfully. Buy a developer a beer!
