                               Psi4 1.3.2 release

  ==> Input File <==

--------------------------------------------------------------------------
#psi4
#
memory 32 gb

molecule  {
0 1
  N        2.3228640    -0.0000190    -0.0807740
  N       -1.9067410     0.0000080     0.0117080
  C        0.9299840    -0.0000240    -0.0024660
  C        0.1996340     1.1955560    -0.0090950
  C        0.1474845    -1.2809141    -0.0095949
  C       -1.1907070     1.1396190     0.0037780
  C       -1.1907490    -1.1395810     0.0038230
  H        0.7091300     2.1568960    -0.0157440
  H        0.7090670    -2.1569450    -0.0157620
  H       -1.7697200     2.0619740     0.0063330
  H       -1.7697630    -2.0619320     0.0061490
  H        2.7609080    -0.8358400     0.2906890
  H        2.7608480     0.8359780     0.2902720
units angstrom
no_reorient  #important for SAPT in psi4, default
symmetry c1  #important for SAPT in psi4, default
}

set PROPERTIES_ORIGIN ["COM"]
properties('MP2/aug-cc-pvtz', properties = ['dipole'])
--------------------------------------------------------------------------

    Molecular point group: c1
  Charge       = 0
  Multiplicity = 1
  Basis Set: AUG-CC-PVTZ
    Blend: AUG-CC-PVTZ
  Basis Set: (AUG-CC-PVTZ AUX)
    Blend: AUG-CC-PVTZ-JKFIT

    Orbital Energies [Eh]
    ---------------------

    Doubly Occupied:

       1A    -15.590460     2A    -15.547386     3A    -11.314588
       4A    -11.277400     5A    -11.266103     6A    -11.232914
       7A    -11.229787     8A     -1.252893     9A     -1.224751
      10A     -1.043474    11A     -1.033982    12A     -0.857092
      13A     -0.839738    14A     -0.717002    15A     -0.711974
      16A     -0.669692    17A     -0.623654    18A     -0.602533
      19A     -0.593576    20A     -0.551682    21A     -0.497630
      22A     -0.488586    23A     -0.414232    24A     -0.354792
      25A     -0.327676

  @DF-RHF Final Energy:  -301.82624938588572

   => Energetics <=

    Nuclear Repulsion Energy =            272.6411726691523540
    One-Electron Energy =                -948.4076535653024393
    Two-Electron Energy =                 373.9402315102644252
    Total Energy =                       -301.8262493858857169
  Basis Set: (AUG-CC-PVTZ AUX)
    Blend: AUG-CC-PVTZ-RI
    Molecular point group: c1

    Geometry (in Angstrom), charge = 0, multiplicity = 1:

       Center              X                  Y                   Z               Mass
    ------------   -----------------  -----------------  -----------------  -----------------
         N            2.365373626213     0.010870074664    -0.074783118840    14.003074004430
         N           -1.864231373787     0.010897074664     0.017698881160    14.003074004430
         C            0.972493626213     0.010865074664     0.003524881160    12.000000000000
         C            0.242143626213     1.206445074664    -0.003104118840    12.000000000000
         C            0.189994126213    -1.270025025336    -0.003604018840    12.000000000000
         C           -1.148197373787     1.150508074664     0.009768881160    12.000000000000
         C           -1.148239373787    -1.128691925336     0.009813881160    12.000000000000
         H            0.751639626213     2.167785074664    -0.009753118840     1.007825032230
         H            0.751576626213    -2.146055925336    -0.009771118840     1.007825032230
         H           -1.727210373787     2.072863074664     0.012323881160     1.007825032230
         H           -1.727253373787    -2.051042925336     0.012139881160     1.007825032230
         H            2.803417626213    -0.824950925336     0.296679881160     1.007825032230
         H            2.803357626213     0.846867074664     0.296262881160     1.007825032230

  Basis Set: AUG-CC-PVTZ
    Blend: AUG-CC-PVTZ
  Basis Set: (AUG-CC-PVTZ AUX)
    Blend: AUG-CC-PVTZ-JKFIT
	 Reference Energy          =    -301.8262493858857169 [Eh]
	 Singles Energy            =      -0.0000000000000000 [Eh]
	 Same-Spin Energy          =      -0.3274968667355720 [Eh]
	 Opposite-Spin Energy      =      -1.0130095542028745 [Eh]
	 Correlation Energy        =      -1.3405064209384465 [Eh]
	 Total Energy              =    -303.1667558068241419 [Eh]

	 ================> DF-SCS-MP2 Energies <==================
	-----------------------------------------------------------
	 SCS Same-Spin Scale       =       0.3333333333333333 [-]
	 SCS Opposite-Spin Scale   =       1.2000000000000000 [-]
	 SCS Same-Spin Energy      =      -0.1091656222451907 [Eh]
	 SCS Opposite-Spin Energy  =      -1.2156114650434493 [Eh]
	 SCS Correlation Energy    =      -1.3247770872886400 [Eh]
	 SCS Total Energy          =    -303.1510264731743405 [Eh]
	-----------------------------------------------------------

  Dipole Moment: [D]
     X:     3.7868      Y:     0.0318      Z:     0.9687     Total:     3.9088

*** Psi4 exiting successfully. Buy a developer a beer!
