                               Psi4 1.3.2 release

  ==> Input File <==

--------------------------------------------------------------------------
#psi4
#
memory 32 gb

molecule  {
0 1
  N        2.3228640    -0.0000190    -0.0807740
  N       -1.9067410     0.0000080     0.0117080
  C        0.9299840    -0.0000240    -0.0024660
  C        0.1996340     1.1955560    -0.0090950
  C        0.1996160    -1.1955790    -0.0091200
  C       -1.1807900     1.1333267     0.0036686
  C       -1.1808322    -1.1332891     0.0037134
  H        0.7091300     2.1568960    -0.0157440
  H        0.7090670    -2.1569450    -0.0157620
  H       -1.7697200     2.0619740     0.0063330
  H       -1.7697630    -2.0619320     0.0061490
  H        2.7609080    -0.8358400     0.2906890
  H        2.7608480     0.8359780     0.2902720
units angstrom
no_reorient  #important for SAPT in psi4, default
symmetry c1  #important for SAPT in psi4, default
}

set PROPERTIES_ORIGIN ["COM"]
properties('MP2/aug-cc-pvtz', properties = ['dipole'])
--------------------------------------------------------------------------

    Molecular point group: c1
  Charge       = 0
  Multiplicity = 1
  Basis Set: AUG-CC-PVTZ
    Blend: AUG-CC-PVTZ
  Basis Set: (AUG-CC-PVTZ AUX)
    Blend: AUG-CC-PVTZ-JKFIT

    Orbital Energies [Eh]
    ---------------------

    Doubly Occupied:

       1A    -15.585869     2A    -15.550830     3A    -11.303740
       4A    -11.274243     5A    -11.274228     6A    -11.230720
       7A    -11.230703     8A     -1.256891     9A     -1.224885
      10A     -1.053382    11A     -1.029367    12A     -0.856090
      13A     -0.843611    14A     -0.717810    15A     -0.711344
      16A     -0.653862    17A     -0.623043    18A     -0.605898
      19A     -0.590252    20A     -0.556602    21A     -0.506620
      22A     -0.487282    23A     -0.416399    24A     -0.349734
      25A     -0.335325

  @DF-RHF Final Energy:  -301.83703339076249

   => Energetics <=

    Nuclear Repulsion Energy =            274.0646789981156530
    One-Electron Energy =                -951.2659683652047988
    Two-Electron Energy =                 375.3642559763267172
    Total Energy =                       -301.8370333907624854
  Basis Set: (AUG-CC-PVTZ AUX)
    Blend: AUG-CC-PVTZ-RI
    Molecular point group: c1

    Geometry (in Angstrom), charge = 0, multiplicity = 1:

       Center              X                  Y                   Z               Mass
    ------------   -----------------  -----------------  -----------------  -----------------
         N            2.356191753244    -0.000017566674    -0.074815768482    14.003074004430
         N           -1.873413246756     0.000009433326     0.017666231518    14.003074004430
         C            0.963311753244    -0.000022566674     0.003492231518    12.000000000000
         C            0.232961753244     1.195557433326    -0.003136768482    12.000000000000
         C            0.232943753244    -1.195577566674    -0.003161768482    12.000000000000
         C           -1.147462246756     1.133328133326     0.009626831518    12.000000000000
         C           -1.147504446756    -1.133287666674     0.009671631518    12.000000000000
         H            0.742457753244     2.156897433326    -0.009785768482     1.007825032230
         H            0.742394753244    -2.156943566674    -0.009803768482     1.007825032230
         H           -1.736392246756     2.061975433326     0.012291231518     1.007825032230
         H           -1.736435246756    -2.061930566674     0.012107231518     1.007825032230
         H            2.794235753244    -0.835838566674     0.296647231518     1.007825032230
         H            2.794175753244     0.835979433326     0.296230231518     1.007825032230

  Basis Set: AUG-CC-PVTZ
    Blend: AUG-CC-PVTZ
  Basis Set: (AUG-CC-PVTZ AUX)
    Blend: AUG-CC-PVTZ-JKFIT
	 Reference Energy          =    -301.8370333907624854 [Eh]
	 Singles Energy            =      -0.0000000000000000 [Eh]
	 Same-Spin Energy          =      -0.3280794211597645 [Eh]
	 Opposite-Spin Energy      =      -1.0130179409123867 [Eh]
	 Correlation Energy        =      -1.3410973620721514 [Eh]
	 Total Energy              =    -303.1781307528346474 [Eh]

	 ================> DF-SCS-MP2 Energies <==================
	-----------------------------------------------------------
	 SCS Same-Spin Scale       =       0.3333333333333333 [-]
	 SCS Opposite-Spin Scale   =       1.2000000000000000 [-]
	 SCS Same-Spin Energy      =      -0.1093598070532548 [Eh]
	 SCS Opposite-Spin Energy  =      -1.2156215290948640 [Eh]
	 SCS Correlation Energy    =      -1.3249813361481189 [Eh]
	 SCS Total Energy          =    -303.1620147269106269 [Eh]
	-----------------------------------------------------------

  Dipole Moment: [D]
     X:     3.6309      Y:     0.0002      Z:     0.9763     Total:     3.7598

*** Psi4 exiting successfully. Buy a developer a beer!
