                               Psi4 1.3.2 release

  ==> Input File <==

--------------------------------------------------------------------------
#psi4
#
memory 32 gb

molecule  {
0 1
  N        2.3228640    -0.0000190    -0.0807740
  N       -1.9067410     0.0000080     0.0117080
  C        0.9299840    -0.0000240    -0.0024660
  C        0.1996340     1.1955560    -0.0090950
  C        0.1996160    -1.1955790    -0.0091200
  C       -1.1907070     1.1396190     0.0037780
  C       -1.1907490    -1.1395810     0.0038230
  H        0.7091300     2.1568960    -0.0157440
  H        0.7090670    -2.1569450    -0.0157620
  H       -1.7697200     2.0619740     0.0063330
  H       -1.7697630    -2.0619320     0.0061490
  H        2.7609080    -0.8358400     0.2906890
  H        2.7608480     0.8359780     0.2902720
units angstrom
no_reorient  #important for SAPT in psi4, default
symmetry c1  #important for SAPT in psi4, default
}

set PROPERTIES_ORIGIN ["COM"]
properties('MP2/aug-cc-pvtz', properties = ['dipole'])
--------------------------------------------------------------------------

    Molecular point group: c1
  Charge       = 0
  Multiplicity = 1
  Basis Set: AUG-CC-PVTZ
    Blend: AUG-CC-PVTZ
  Basis Set: (AUG-CC-PVTZ AUX)
    Blend: AUG-CC-PVTZ-JKFIT

    Orbital Energies [Eh]
    ---------------------

    Doubly Occupied:

       1A    -15.585235     2A    -15.551079     3A    -11.303083
       4A    -11.274814     5A    -11.274798     6A    -11.231744
       7A    -11.231727     8A     -1.255583     9A     -1.224209
      10A     -1.051637    11A     -1.027751    12A     -0.857643
      13A     -0.842550    14A     -0.718565    15A     -0.710243
      16A     -0.654355    17A     -0.622823    18A     -0.607524
      19A     -0.590271    20A     -0.555357    21A     -0.510549
      22A     -0.486722    23A     -0.414053    24A     -0.347439
      25A     -0.335109

  @DF-RHF Final Energy:  -301.83722040715526

   => Energetics <=

    Nuclear Repulsion Energy =            273.6917251856810935
    One-Electron Energy =                -950.5281593151772768
    Two-Electron Energy =                 374.9992137223409259
    Total Energy =                       -301.8372204071552574
  Basis Set: (AUG-CC-PVTZ AUX)
    Blend: AUG-CC-PVTZ-RI
    Molecular point group: c1

    Geometry (in Angstrom), charge = 0, multiplicity = 1:

       Center              X                  Y                   Z               Mass
    ------------   -----------------  -----------------  -----------------  -----------------
         N            2.358722298272    -0.000017617709    -0.074843710145    14.003074004430
         N           -1.870882701728     0.000009382291     0.017638289855    14.003074004430
         C            0.965842298272    -0.000022617709     0.003464289855    12.000000000000
         C            0.235492298272     1.195557382291    -0.003164710145    12.000000000000
         C            0.235474298272    -1.195577617709    -0.003189710145    12.000000000000
         C           -1.154848701728     1.139620382291     0.009708289855    12.000000000000
         C           -1.154890701728    -1.139579617709     0.009753289855    12.000000000000
         H            0.744988298272     2.156897382291    -0.009813710145     1.007825032230
         H            0.744925298272    -2.156943617709    -0.009831710145     1.007825032230
         H           -1.733861701728     2.061975382291     0.012263289855     1.007825032230
         H           -1.733904701728    -2.061930617709     0.012079289855     1.007825032230
         H            2.796766298272    -0.835838617709     0.296619289855     1.007825032230
         H            2.796706298272     0.835979382291     0.296202289855     1.007825032230

  Basis Set: AUG-CC-PVTZ
    Blend: AUG-CC-PVTZ
  Basis Set: (AUG-CC-PVTZ AUX)
    Blend: AUG-CC-PVTZ-JKFIT
	 Reference Energy          =    -301.8372204071552574 [Eh]
	 Singles Energy            =      -0.0000000000000000 [Eh]
	 Same-Spin Energy          =      -0.3281156615577052 [Eh]
	 Opposite-Spin Energy      =      -1.0131416366662636 [Eh]
	 Correlation Energy        =      -1.3412572982239688 [Eh]
	 Total Energy              =    -303.1784777053792368 [Eh]

	 ================> DF-SCS-MP2 Energies <==================
	-----------------------------------------------------------
	 SCS Same-Spin Scale       =       0.3333333333333333 [-]
	 SCS Opposite-Spin Scale   =       1.2000000000000000 [-]
	 SCS Same-Spin Energy      =      -0.1093718871859017 [Eh]
	 SCS Opposite-Spin Energy  =      -1.2157699639995163 [Eh]
	 SCS Correlation Energy    =      -1.3251418511854181 [Eh]
	 SCS Total Energy          =    -303.1623622583406927 [Eh]
	-----------------------------------------------------------

  Dipole Moment: [D]
     X:     3.5930      Y:     0.0002      Z:     0.9768     Total:     3.7234

*** Psi4 exiting successfully. Buy a developer a beer!
