                               Psi4 1.3.2 release

  ==> Input File <==

--------------------------------------------------------------------------
#psi4
#
memory 32 gb

molecule  {
0 1
  N        2.3211180     0.0729359    -0.0777642
  N       -1.9067410     0.0000080     0.0117080
  C        0.9299840    -0.0000240    -0.0024660
  C        0.1996340     1.1955560    -0.0090950
  C        0.1381808    -1.1558261    -0.0040795
  C       -1.1907070     1.1396190     0.0037780
  C       -1.1907490    -1.1395810     0.0038230
  H        0.7091300     2.1568960    -0.0157440
  H        0.7090670    -2.1569450    -0.0157620
  H       -1.7697200     2.0619740     0.0063330
  H       -1.7697630    -2.0619320     0.0061490
  H        2.7609080    -0.8358400     0.2906890
  H        2.7608480     0.8359780     0.2902720
units angstrom
no_reorient  #important for SAPT in psi4, default
symmetry c1  #important for SAPT in psi4, default
}

set PROPERTIES_ORIGIN ["COM"]
properties('MP2/aug-cc-pvtz', properties = ['dipole'])
--------------------------------------------------------------------------

    Molecular point group: c1
  Charge       = 0
  Multiplicity = 1
  Basis Set: AUG-CC-PVTZ
    Blend: AUG-CC-PVTZ
  Basis Set: (AUG-CC-PVTZ AUX)
    Blend: AUG-CC-PVTZ-JKFIT

    Orbital Energies [Eh]
    ---------------------

    Doubly Occupied:

       1A    -15.588538     2A    -15.548918     3A    -11.304767
       4A    -11.272594     5A    -11.266288     6A    -11.233699
       7A    -11.229706     8A     -1.258900     9A     -1.226608
      10A     -1.056180    11A     -1.032949    12A     -0.855620
      13A     -0.847900    14A     -0.731093    15A     -0.704216
      16A     -0.647825    17A     -0.631640    18A     -0.604129
      19A     -0.585365    20A     -0.559375    21A     -0.498076
      22A     -0.489084    23A     -0.413378    24A     -0.354710
      25A     -0.334191

  @DF-RHF Final Energy:  -301.82178675258638

   => Energetics <=

    Nuclear Repulsion Energy =            274.7014496158674888
    One-Electron Energy =                -952.4949712395473398
    Two-Electron Energy =                 375.9717348710935312
    Total Energy =                       -301.8217867525863767
  Basis Set: (AUG-CC-PVTZ AUX)
    Blend: AUG-CC-PVTZ-RI
    Molecular point group: c1

    Geometry (in Angstrom), charge = 0, multiplicity = 1:

       Center              X                  Y                   Z               Mass
    ------------   -----------------  -----------------  -----------------  -----------------
         N            2.365074614880     0.057003435428    -0.072925128341    14.003074004430
         N           -1.862784385120    -0.015924464572     0.016547071659    14.003074004430
         C            0.973940614880    -0.015956464572     0.002373071659    12.000000000000
         C            0.243590614880     1.179623535428    -0.004255928341    12.000000000000
         C            0.182137414880    -1.171758564572     0.000759571659    12.000000000000
         C           -1.146750385120     1.123686535428     0.008617071659    12.000000000000
         C           -1.146792385120    -1.155513464572     0.008662071659    12.000000000000
         H            0.753086614880     2.140963535428    -0.010904928341     1.007825032230
         H            0.753023614880    -2.172877464572    -0.010922928341     1.007825032230
         H           -1.725763385120     2.046041535428     0.011172071659     1.007825032230
         H           -1.725806385120    -2.077864464572     0.010988071659     1.007825032230
         H            2.804864614880    -0.851772464572     0.295528071659     1.007825032230
         H            2.804804614880     0.820045535428     0.295111071659     1.007825032230

  Basis Set: AUG-CC-PVTZ
    Blend: AUG-CC-PVTZ
  Basis Set: (AUG-CC-PVTZ AUX)
    Blend: AUG-CC-PVTZ-JKFIT
	 Reference Energy          =    -301.8217867525863767 [Eh]
	 Singles Energy            =      -0.0000000000000000 [Eh]
	 Same-Spin Energy          =      -0.3285684080343209 [Eh]
	 Opposite-Spin Energy      =      -1.0138648690415879 [Eh]
	 Correlation Energy        =      -1.3424332770759086 [Eh]
	 Total Energy              =    -303.1642200296622605 [Eh]

	 ================> DF-SCS-MP2 Energies <==================
	-----------------------------------------------------------
	 SCS Same-Spin Scale       =       0.3333333333333333 [-]
	 SCS Opposite-Spin Scale   =       1.2000000000000000 [-]
	 SCS Same-Spin Energy      =      -0.1095228026781069 [Eh]
	 SCS Opposite-Spin Energy  =      -1.2166378428499054 [Eh]
	 SCS Correlation Energy    =      -1.3261606455280124 [Eh]
	 SCS Total Energy          =    -303.1479473981144110 [Eh]
	-----------------------------------------------------------

  Dipole Moment: [D]
     X:     3.6294      Y:    -0.0215      Z:     0.9698     Total:     3.7568

*** Psi4 exiting successfully. Buy a developer a beer!
