                               Psi4 1.4a3.dev225

  ==> Input File <==

--------------------------------------------------------------------------
#psi4
#
memory 32 gb

molecule  {
0 1
  N        2.3220460    -0.0000010    -0.0807810
  N       -1.9068710     0.0000000     0.0099480
  C        0.9306030     0.0000000    -0.0018200
  C        0.1994710     1.1952220    -0.0074850
  C        0.1994710    -1.1952220    -0.0074870
  C       -1.1908010     1.1392150     0.0036550
  C       -1.1908010    -1.1392150     0.0036580
  H        0.7083710     2.1567710    -0.0146740
  H        0.7083720    -2.1567700    -0.0146820
  H       -1.7689000     2.0620960     0.0068010
  H       -1.7689000    -2.0620960     0.0067980
  H        2.7418107    -0.7954459     0.2662434
  H        2.7635810     0.8367080     0.2842220
units angstrom
no_reorient  #important for SAPT in psi4, default
symmetry c1  #important for SAPT in psi4, default
}

set PROPERTIES_ORIGIN ["COM"]
properties('MP2/aug-cc-pvtz', properties = ['dipole'])
--------------------------------------------------------------------------

    Molecular point group: c1
  Charge       = 0
  Multiplicity = 1
  Basis Set: AUG-CC-PVTZ
    Blend: AUG-CC-PVTZ
  Basis Set: (AUG-CC-PVTZ AUX)
    Blend: AUG-CC-PVTZ-JKFIT

    Orbital Energies [Eh]
    ---------------------

    Doubly Occupied:

       1A    -15.580200     2A    -15.551010     3A    -11.303142
       4A    -11.274791     5A    -11.274696     6A    -11.231741
       7A    -11.231562     8A     -1.258230     9A     -1.228399
      10A     -1.054216    11A     -1.027772    12A     -0.858223
      13A     -0.844864    14A     -0.723136    15A     -0.715191
      16A     -0.654517    17A     -0.626946    18A     -0.608490
      19A     -0.590274    20A     -0.555795    21A     -0.510751
      22A     -0.487316    23A     -0.414065    24A     -0.347433
      25A     -0.335239

  @DF-RHF Final Energy:  -301.83677759021174

   => Energetics <=

    Nuclear Repulsion Energy =            273.9936843683706229
    One-Electron Energy =                -951.0849258644010433
    Two-Electron Energy =                 375.2544639058186817
    Total Energy =                       -301.8367775902117387
  Basis Set: (AUG-CC-PVTZ AUX)
    Blend: AUG-CC-PVTZ-RI
    Molecular point group: c1

    Geometry (in Angstrom), charge = 0, multiplicity = 1:

       Center              X                  Y                   Z               Mass
    ------------   -----------------  -----------------  -----------------  -----------------
         N            2.358197286742    -0.000443005450    -0.074755305564    14.003074004430
         N           -1.870719713258    -0.000442005450     0.015973694436    14.003074004430
         C            0.966754286742    -0.000442005450     0.004205694436    12.000000000000
         C            0.235622286742     1.194779994550    -0.001459305564    12.000000000000
         C            0.235622286742    -1.195664005450    -0.001461305564    12.000000000000
         C           -1.154649713258     1.138772994550     0.009680694436    12.000000000000
         C           -1.154649713258    -1.139657005450     0.009683694436    12.000000000000
         H            0.744522286742     2.156328994550    -0.008648305564     1.007825032230
         H            0.744523286742    -2.157212005450    -0.008656305564     1.007825032230
         H           -1.732748713258     2.061653994550     0.012826694436     1.007825032230
         H           -1.732748713258    -2.062538005450     0.012823694436     1.007825032230
         H            2.777961986742    -0.795887905450     0.272269094436     1.007825032230
         H            2.799732286742     0.836265994550     0.290247694436     1.007825032230

  Basis Set: AUG-CC-PVTZ
    Blend: AUG-CC-PVTZ
  Basis Set: (AUG-CC-PVTZ AUX)
    Blend: AUG-CC-PVTZ-JKFIT
	 Reference Energy          =    -301.8367775902117387 [Eh]
	 Singles Energy            =      -0.0000000000000000 [Eh]
	 Same-Spin Energy          =      -0.3278252837694291 [Eh]
	 Opposite-Spin Energy      =      -1.0122954756450473 [Eh]
	 Correlation Energy        =      -1.3401207594144764 [Eh]
	 Total Energy              =    -303.1768983496262422 [Eh]

	 ================> DF-SCS-MP2 Energies <==================
	-----------------------------------------------------------
	 SCS Same-Spin Scale       =       0.3333333333333333 [-]
	 SCS Opposite-Spin Scale   =       1.2000000000000000 [-]
	 SCS Same-Spin Energy      =      -0.1092750945898097 [Eh]
	 SCS Opposite-Spin Energy  =      -1.2147545707740568 [Eh]
	 SCS Correlation Energy    =      -1.3240296653638666 [Eh]
	 SCS Total Energy          =    -303.1608072555756053 [Eh]
	-----------------------------------------------------------

  Dipole Moment: [D]
     X:     3.5995      Y:     0.0265      Z:     0.9563     Total:     3.7245

*** Psi4 exiting successfully. Buy a developer a beer!
