                               Psi4 1.3.2 release

  ==> Input File <==

--------------------------------------------------------------------------
#psi4
#
memory 32 gb

molecule  {
0 1
  N        2.3225975    -0.0243472    -0.0817300
  N       -1.9067410     0.0000080     0.0117080
  C        0.9299840    -0.0000240    -0.0024660
  C        0.1996340     1.1955560    -0.0090950
  C        0.2205478    -1.2081069    -0.0107968
  C       -1.1907070     1.1396190     0.0037780
  C       -1.1907490    -1.1395810     0.0038230
  H        0.7091300     2.1568960    -0.0157440
  H        0.7090670    -2.1569450    -0.0157620
  H       -1.7697200     2.0619740     0.0063330
  H       -1.7697630    -2.0619320     0.0061490
  H        2.7609080    -0.8358400     0.2906890
  H        2.7608480     0.8359780     0.2902720
units angstrom
no_reorient  #important for SAPT in psi4, default
symmetry c1  #important for SAPT in psi4, default
}

set PROPERTIES_ORIGIN ["COM"]
properties('MP2/aug-cc-pvtz', properties = ['dipole'])
--------------------------------------------------------------------------

    Molecular point group: c1
  Charge       = 0
  Multiplicity = 1
  Basis Set: AUG-CC-PVTZ
    Blend: AUG-CC-PVTZ
  Basis Set: (AUG-CC-PVTZ AUX)
    Blend: AUG-CC-PVTZ-JKFIT

    Orbital Energies [Eh]
    ---------------------

    Doubly Occupied:

       1A    -15.584132     2A    -15.551956     3A    -11.302917
       4A    -11.277608     5A    -11.275678     6A    -11.232592
       7A    -11.231315     8A     -1.254922     9A     -1.223967
      10A     -1.050771    11A     -1.026042    12A     -0.859576
      13A     -0.840741    14A     -0.719592    15A     -0.707304
      16A     -0.658788    17A     -0.622855    18A     -0.604604
      19A     -0.590361    20A     -0.554271    21A     -0.513701
      22A     -0.486235    23A     -0.413994    24A     -0.345479
      25A     -0.335253

  @DF-RHF Final Energy:  -301.83528519244157

   => Energetics <=

    Nuclear Repulsion Energy =            273.3940203092623165
    One-Electron Energy =                -949.9293021730145483
    Two-Electron Energy =                 374.6999966713107142
    Total Energy =                       -301.8352851924415745
  Basis Set: (AUG-CC-PVTZ AUX)
    Blend: AUG-CC-PVTZ-RI
    Molecular point group: c1

    Geometry (in Angstrom), charge = 0, multiplicity = 1:

       Center              X                  Y                   Z               Mass
    ------------   -----------------  -----------------  -----------------  -----------------
         N            2.355824839957    -0.019125315733    -0.075443437578    14.003074004430
         N           -1.873513660043     0.005229884267     0.017994562422    14.003074004430
         C            0.963211339957     0.005197884267     0.003820562422    12.000000000000
         C            0.232861339957     1.200777884267    -0.002808437578    12.000000000000
         C            0.253775139957    -1.202885015733    -0.004510237578    12.000000000000
         C           -1.157479660043     1.144840884267     0.010064562422    12.000000000000
         C           -1.157521660043    -1.134359115733     0.010109562422    12.000000000000
         H            0.742357339957     2.162117884267    -0.009457437578     1.007825032230
         H            0.742294339957    -2.151723115733    -0.009475437578     1.007825032230
         H           -1.736492660043     2.067195884267     0.012619562422     1.007825032230
         H           -1.736535660043    -2.056710115733     0.012435562422     1.007825032230
         H            2.794135339957    -0.830618115733     0.296975562422     1.007825032230
         H            2.794075339957     0.841199884267     0.296558562422     1.007825032230

  Basis Set: AUG-CC-PVTZ
    Blend: AUG-CC-PVTZ
  Basis Set: (AUG-CC-PVTZ AUX)
    Blend: AUG-CC-PVTZ-JKFIT
	 Reference Energy          =    -301.8352851924415745 [Eh]
	 Singles Energy            =      -0.0000000000000000 [Eh]
	 Same-Spin Energy          =      -0.3280838893422023 [Eh]
	 Opposite-Spin Energy      =      -1.0132735700719824 [Eh]
	 Correlation Energy        =      -1.3413574594141848 [Eh]
	 Total Energy              =    -303.1766426518557864 [Eh]

	 ================> DF-SCS-MP2 Energies <==================
	-----------------------------------------------------------
	 SCS Same-Spin Scale       =       0.3333333333333333 [-]
	 SCS Opposite-Spin Scale   =       1.2000000000000000 [-]
	 SCS Same-Spin Energy      =      -0.1093612964474008 [Eh]
	 SCS Opposite-Spin Energy  =      -1.2159282840863788 [Eh]
	 SCS Correlation Energy    =      -1.3252895805337794 [Eh]
	 SCS Total Energy          =    -303.1605747729753375 [Eh]
	-----------------------------------------------------------

  Dipole Moment: [D]
     X:     3.5672      Y:     0.0133      Z:     0.9790     Total:     3.6991

*** Psi4 exiting successfully. Buy a developer a beer!
