                               Psi4 1.4a3.dev225

  ==> Input File <==

--------------------------------------------------------------------------
#psi4
#
memory 32 gb

molecule  {
0 1
  N        2.3220460    -0.0000010    -0.0807810
  N       -1.9068710     0.0000000     0.0099480
  C        0.9306030     0.0000000    -0.0018200
  C        0.1994710     1.1952220    -0.0074850
  C        0.1733800    -1.2378743    -0.0076892
  C       -1.1908010     1.1392150     0.0036550
  C       -1.1908010    -1.1392150     0.0036580
  H        0.7083710     2.1567710    -0.0146740
  H        0.7083720    -2.1567700    -0.0146820
  H       -1.7689000     2.0620960     0.0068010
  H       -1.7689000    -2.0620960     0.0067980
  H        2.7635820    -0.8367020     0.2842420
  H        2.7635810     0.8367080     0.2842220
units angstrom
no_reorient  #important for SAPT in psi4, default
symmetry c1  #important for SAPT in psi4, default
}

set PROPERTIES_ORIGIN ["COM"]
properties('MP2/aug-cc-pvtz', properties = ['dipole'])
--------------------------------------------------------------------------

    Molecular point group: c1
  Charge       = 0
  Multiplicity = 1
  Basis Set: AUG-CC-PVTZ
    Blend: AUG-CC-PVTZ
  Basis Set: (AUG-CC-PVTZ AUX)
    Blend: AUG-CC-PVTZ-JKFIT

    Orbital Energies [Eh]
    ---------------------

    Doubly Occupied:

       1A    -15.588090     2A    -15.548880     3A    -11.309437
       4A    -11.275906     5A    -11.270100     6A    -11.232075
       7A    -11.230528     8A     -1.254269     9A     -1.224703
      10A     -1.047122    11A     -1.030612    12A     -0.856092
      13A     -0.842431    14A     -0.718142    15A     -0.711527
      16A     -0.661100    17A     -0.623145    18A     -0.604215
      19A     -0.593718    20A     -0.553470    21A     -0.504763
      22A     -0.487684    23A     -0.414162    24A     -0.350847
      25A     -0.330772

  @DF-RHF Final Energy:  -301.83450994518796

   => Energetics <=

    Nuclear Repulsion Energy =            273.1879586106094848
    One-Electron Energy =                -949.5173566327923709
    Two-Electron Energy =                 374.4948880769949255
    Total Energy =                       -301.8345099451879605
  Basis Set: (AUG-CC-PVTZ AUX)
    Blend: AUG-CC-PVTZ-RI
    Molecular point group: c1

    Geometry (in Angstrom), charge = 0, multiplicity = 1:

       Center              X                  Y                   Z               Mass
    ------------   -----------------  -----------------  -----------------  -----------------
         N            2.361292882150     0.005440974354    -0.074922371189    14.003074004430
         N           -1.867624117850     0.005441974354     0.015806628811    14.003074004430
         C            0.969849882150     0.005441974354     0.004038628811    12.000000000000
         C            0.238717882150     1.200663974354    -0.001626371189    12.000000000000
         C            0.212626882150    -1.232432325646    -0.001830571189    12.000000000000
         C           -1.151554117850     1.144656974354     0.009513628811    12.000000000000
         C           -1.151554117850    -1.133773025646     0.009516628811    12.000000000000
         H            0.747617882150     2.162212974354    -0.008815371189     1.007825032230
         H            0.747618882150    -2.151328025646    -0.008823371189     1.007825032230
         H           -1.729653117850     2.067537974354     0.012659628811     1.007825032230
         H           -1.729653117850    -2.056654025646     0.012656628811     1.007825032230
         H            2.802828882150    -0.831260025646     0.290100628811     1.007825032230
         H            2.802827882150     0.842149974354     0.290080628811     1.007825032230

  Basis Set: AUG-CC-PVTZ
    Blend: AUG-CC-PVTZ
  Basis Set: (AUG-CC-PVTZ AUX)
    Blend: AUG-CC-PVTZ-JKFIT
	 Reference Energy          =    -301.8345099451879605 [Eh]
	 Singles Energy            =      -0.0000000000000000 [Eh]
	 Same-Spin Energy          =      -0.3278160473669659 [Eh]
	 Opposite-Spin Energy      =      -1.0129319587190206 [Eh]
	 Correlation Energy        =      -1.3407480060859864 [Eh]
	 Total Energy              =    -303.1752579512739203 [Eh]

	 ================> DF-SCS-MP2 Energies <==================
	-----------------------------------------------------------
	 SCS Same-Spin Scale       =       0.3333333333333333 [-]
	 SCS Opposite-Spin Scale   =       1.2000000000000000 [-]
	 SCS Same-Spin Energy      =      -0.1092720157889886 [Eh]
	 SCS Opposite-Spin Energy  =      -1.2155183504628246 [Eh]
	 SCS Correlation Energy    =      -1.3247903662518132 [Eh]
	 SCS Total Energy          =    -303.1593003114397789 [Eh]
	-----------------------------------------------------------

  Dipole Moment: [D]
     X:     3.7226      Y:     0.0152      Z:     0.9599     Total:     3.8444

*** Psi4 exiting successfully. Buy a developer a beer!
