                               Psi4 1.4a3.dev225

  ==> Input File <==

--------------------------------------------------------------------------
#psi4
#
memory 32 gb

molecule  {
0 1
  N        2.3220460    -0.0000010    -0.0807810
  N       -1.9068710     0.0000000     0.0099480
  C        0.9306030     0.0000000    -0.0018200
  C        0.1994710     1.1952220    -0.0074850
  C        0.1994710    -1.1952220    -0.0074870
  C       -1.1641929     1.1815465     0.0034212
  C       -1.1908010    -1.1392150     0.0036580
  H        0.7083710     2.1567710    -0.0146740
  H        0.7083720    -2.1567700    -0.0146820
  H       -1.7689000     2.0620960     0.0068010
  H       -1.7689000    -2.0620960     0.0067980
  H        2.7635820    -0.8367020     0.2842420
  H        2.7635810     0.8367080     0.2842220
units angstrom
no_reorient  #important for SAPT in psi4, default
symmetry c1  #important for SAPT in psi4, default
}

set PROPERTIES_ORIGIN ["COM"]
properties('MP2/aug-cc-pvtz', properties = ['dipole'])
--------------------------------------------------------------------------

    Molecular point group: c1
  Charge       = 0
  Multiplicity = 1
  Basis Set: AUG-CC-PVTZ
    Blend: AUG-CC-PVTZ
  Basis Set: (AUG-CC-PVTZ AUX)
    Blend: AUG-CC-PVTZ-JKFIT

    Orbital Energies [Eh]
    ---------------------

    Doubly Occupied:

       1A    -15.586425     2A    -15.552393     3A    -11.304586
       4A    -11.273769     5A    -11.273553     6A    -11.231503
       7A    -11.230304     8A     -1.251266     9A     -1.216721
      10A     -1.051301    11A     -1.030157    12A     -0.855050
      13A     -0.845047    14A     -0.720537    15A     -0.709893
      16A     -0.653813    17A     -0.620389    18A     -0.609002
      19A     -0.594209    20A     -0.554178    21A     -0.508881
      22A     -0.482292    23A     -0.412982    24A     -0.352582
      25A     -0.330715

  @DF-RHF Final Energy:  -301.83288677637472

   => Energetics <=

    Nuclear Repulsion Energy =            273.3030155219229300
    One-Electron Energy =                -949.7687087309642493
    Two-Electron Energy =                 374.6328064326665981
    Total Energy =                       -301.8328867763747212
  Basis Set: (AUG-CC-PVTZ AUX)
    Blend: AUG-CC-PVTZ-RI
    Molecular point group: c1

    Geometry (in Angstrom), charge = 0, multiplicity = 1:

       Center              X                  Y                   Z               Mass
    ------------   -----------------  -----------------  -----------------  -----------------
         N            2.354569135542    -0.005401896530    -0.074918339424    14.003074004430
         N           -1.874347864458    -0.005400896530     0.015810660576    14.003074004430
         C            0.963126135542    -0.005400896530     0.004042660576    12.000000000000
         C            0.231994135542     1.189821103470    -0.001622339424    12.000000000000
         C            0.231994135542    -1.200622896530    -0.001624339424    12.000000000000
         C           -1.131669764458     1.176145603470     0.009283860576    12.000000000000
         C           -1.158277864458    -1.144615896530     0.009520660576    12.000000000000
         H            0.740894135542     2.151370103470    -0.008811339424     1.007825032230
         H            0.740895135542    -2.162170896530    -0.008819339424     1.007825032230
         H           -1.736376864458     2.056695103470     0.012663660576     1.007825032230
         H           -1.736376864458    -2.067496896530     0.012660660576     1.007825032230
         H            2.796105135542    -0.842102896530     0.290104660576     1.007825032230
         H            2.796104135542     0.831307103470     0.290084660576     1.007825032230

  Basis Set: AUG-CC-PVTZ
    Blend: AUG-CC-PVTZ
  Basis Set: (AUG-CC-PVTZ AUX)
    Blend: AUG-CC-PVTZ-JKFIT
	 Reference Energy          =    -301.8328867763747212 [Eh]
	 Singles Energy            =      -0.0000000000000000 [Eh]
	 Same-Spin Energy          =      -0.3283938641501328 [Eh]
	 Opposite-Spin Energy      =      -1.0142047827501179 [Eh]
	 Correlation Energy        =      -1.3425986469002509 [Eh]
	 Total Energy              =    -303.1754854232749494 [Eh]

	 ================> DF-SCS-MP2 Energies <==================
	-----------------------------------------------------------
	 SCS Same-Spin Scale       =       0.3333333333333333 [-]
	 SCS Opposite-Spin Scale   =       1.2000000000000000 [-]
	 SCS Same-Spin Energy      =      -0.1094646213833776 [Eh]
	 SCS Opposite-Spin Energy  =      -1.2170457393001415 [Eh]
	 SCS Correlation Energy    =      -1.3265103606835191 [Eh]
	 SCS Total Energy          =    -303.1593971370582494 [Eh]
	-----------------------------------------------------------

  Dipole Moment: [D]
     X:     3.6603      Y:     0.0446      Z:     0.9640     Total:     3.7854

*** Psi4 exiting successfully. Buy a developer a beer!
