                               Psi4 1.3.2 release

  ==> Input File <==

--------------------------------------------------------------------------
#psi4
#
memory 32 gb

molecule  {
0 1
  N        2.3228640    -0.0000190    -0.0807740
  N       -1.9067410     0.0000080     0.0117080
  C        0.9299840    -0.0000240    -0.0024660
  C        0.0953745     1.3662284    -0.0100413
  C        0.1996160    -1.1955790    -0.0091200
  C       -1.1907070     1.1396190     0.0037780
  C       -1.1907490    -1.1395810     0.0038230
  H        0.7091300     2.1568960    -0.0157440
  H        0.7090670    -2.1569450    -0.0157620
  H       -1.7697200     2.0619740     0.0063330
  H       -1.7697630    -2.0619320     0.0061490
  H        2.7609080    -0.8358400     0.2906890
  H        2.7608480     0.8359780     0.2902720
units angstrom
no_reorient  #important for SAPT in psi4, default
symmetry c1  #important for SAPT in psi4, default
}

set PROPERTIES_ORIGIN ["COM"]
properties('MP2/aug-cc-pvtz', properties = ['dipole'])
--------------------------------------------------------------------------

    Molecular point group: c1
  Charge       = 0
  Multiplicity = 1
  Basis Set: AUG-CC-PVTZ
    Blend: AUG-CC-PVTZ
  Basis Set: (AUG-CC-PVTZ AUX)
    Blend: AUG-CC-PVTZ-JKFIT

    Orbital Energies [Eh]
    ---------------------

    Doubly Occupied:

       1A    -15.594190     2A    -15.544435     3A    -11.321264
       4A    -11.280037     5A    -11.259348     6A    -11.235007
       7A    -11.227712     8A     -1.250740     9A     -1.224979
      10A     -1.041819    11A     -1.037241    12A     -0.860883
      13A     -0.833750    14A     -0.715578    15A     -0.712792
      16A     -0.689431    17A     -0.625152    18A     -0.602714
      19A     -0.586694    20A     -0.548861    21A     -0.491210
      22A     -0.477544    23A     -0.412990    24A     -0.363094
      25A     -0.322239

  @DF-RHF Final Energy:  -301.79707903893825

   => Energetics <=

    Nuclear Repulsion Energy =            271.6786474916539760
    One-Electron Energy =                -946.4320494803995416
    Two-Electron Energy =                 372.9563229498072587
    Total Energy =                       -301.7970790389382501
  Basis Set: (AUG-CC-PVTZ AUX)
    Blend: AUG-CC-PVTZ-RI
    Molecular point group: c1

    Geometry (in Angstrom), charge = 0, multiplicity = 1:

       Center              X                  Y                   Z               Mass
    ------------   -----------------  -----------------  -----------------  -----------------
         N            2.372024507597    -0.021793283149    -0.074722974091    14.003074004430
         N           -1.857580492403    -0.021766283149     0.017759025909    14.003074004430
         C            0.979144507597    -0.021798283149     0.003585025909    12.000000000000
         C            0.144535007597     1.344454116851    -0.003990274091    12.000000000000
         C            0.248776507597    -1.217353283149    -0.003068974091    12.000000000000
         C           -1.141546492403     1.117844716851     0.009829025909    12.000000000000
         C           -1.141588492403    -1.161355283149     0.009874025909    12.000000000000
         H            0.758290507597     2.135121716851    -0.009692974091     1.007825032230
         H            0.758227507597    -2.178719283149    -0.009710974091     1.007825032230
         H           -1.720559492403     2.040199716851     0.012384025909     1.007825032230
         H           -1.720602492403    -2.083706283149     0.012200025909     1.007825032230
         H            2.810068507597    -0.857614283149     0.296740025909     1.007825032230
         H            2.810008507597     0.814203716851     0.296323025909     1.007825032230

  Basis Set: AUG-CC-PVTZ
    Blend: AUG-CC-PVTZ
  Basis Set: (AUG-CC-PVTZ AUX)
    Blend: AUG-CC-PVTZ-JKFIT
	 Reference Energy          =    -301.7970790389382501 [Eh]
	 Singles Energy            =      -0.0000000000000000 [Eh]
	 Same-Spin Energy          =      -0.3269089035081832 [Eh]
	 Opposite-Spin Energy      =      -1.0136053937718617 [Eh]
	 Correlation Energy        =      -1.3405142972800448 [Eh]
	 Total Energy              =    -303.1375933362182877 [Eh]

	 ================> DF-SCS-MP2 Energies <==================
	-----------------------------------------------------------
	 SCS Same-Spin Scale       =       0.3333333333333333 [-]
	 SCS Opposite-Spin Scale   =       1.2000000000000000 [-]
	 SCS Same-Spin Energy      =      -0.1089696345027277 [Eh]
	 SCS Opposite-Spin Energy  =      -1.2163264725262339 [Eh]
	 SCS Correlation Energy    =      -1.3252961070289617 [Eh]
	 SCS Total Energy          =    -303.1223751459672258 [Eh]
	-----------------------------------------------------------

  Dipole Moment: [D]
     X:     3.9291      Y:    -0.0612      Z:     0.9616     Total:     4.0455

*** Psi4 exiting successfully. Buy a developer a beer!
