                               Psi4 1.3.2 release

  ==> Input File <==

--------------------------------------------------------------------------
#psi4
#
memory 32 gb

molecule  {
0 1
  N        2.3228640    -0.0000190    -0.0807740
  N       -1.9067410     0.0000080     0.0117080
  C        0.8301417    -0.0000244     0.0031472
  C        0.1996340     1.1955560    -0.0090950
  C        0.1996160    -1.1955790    -0.0091200
  C       -1.1907070     1.1396190     0.0037780
  C       -1.1907490    -1.1395810     0.0038230
  H        0.7091300     2.1568960    -0.0157440
  H        0.7090670    -2.1569450    -0.0157620
  H       -1.7697200     2.0619740     0.0063330
  H       -1.7697630    -2.0619320     0.0061490
  H        2.7609080    -0.8358400     0.2906890
  H        2.7608480     0.8359780     0.2902720
units angstrom
no_reorient  #important for SAPT in psi4, default
symmetry c1  #important for SAPT in psi4, default
}

set PROPERTIES_ORIGIN ["COM"]
properties('MP2/aug-cc-pvtz', properties = ['dipole'])
--------------------------------------------------------------------------

    Molecular point group: c1
  Charge       = 0
  Multiplicity = 1
  Basis Set: AUG-CC-PVTZ
    Blend: AUG-CC-PVTZ
  Basis Set: (AUG-CC-PVTZ AUX)
    Blend: AUG-CC-PVTZ-JKFIT

    Orbital Energies [Eh]
    ---------------------

    Doubly Occupied:

       1A    -15.572312     2A    -15.557875     3A    -11.295727
       4A    -11.278436     5A    -11.278421     6A    -11.232200
       7A    -11.232173     8A     -1.258254     9A     -1.195832
      10A     -1.063292    11A     -1.038280    12A     -0.866223
      13A     -0.841446    14A     -0.711692    15A     -0.698766
      16A     -0.655851    17A     -0.630057    18A     -0.598889
      19A     -0.584036    20A     -0.554560    21A     -0.526561
      22A     -0.471248    23A     -0.417111    24A     -0.352241
      25A     -0.348643

  @DF-RHF Final Energy:  -301.82565579507821

   => Energetics <=

    Nuclear Repulsion Energy =            274.4243683859418752
    One-Electron Energy =                -951.9797938335250365
    Two-Electron Energy =                 375.7297696525049560
    Total Energy =                       -301.8256557950782053
  Basis Set: (AUG-CC-PVTZ AUX)
    Blend: AUG-CC-PVTZ-RI
    Molecular point group: c1

    Geometry (in Angstrom), charge = 0, multiplicity = 1:

       Center              X                  Y                   Z               Mass
    ------------   -----------------  -----------------  -----------------  -----------------
         N            2.371460928077    -0.000017566674    -0.075559884320    14.003074004430
         N           -1.858144071923     0.000009433326     0.016922115680    14.003074004430
         C            0.878738628077    -0.000022966674     0.008361315680    12.000000000000
         C            0.248230928077     1.195557433326    -0.003880884320    12.000000000000
         C            0.248212928077    -1.195577566674    -0.003905884320    12.000000000000
         C           -1.142110071923     1.139620433326     0.008992115680    12.000000000000
         C           -1.142152071923    -1.139579566674     0.009037115680    12.000000000000
         H            0.757726928077     2.156897433326    -0.010529884320     1.007825032230
         H            0.757663928077    -2.156943566674    -0.010547884320     1.007825032230
         H           -1.721123071923     2.061975433326     0.011547115680     1.007825032230
         H           -1.721166071923    -2.061930566674     0.011363115680     1.007825032230
         H            2.809504928077    -0.835838566674     0.295903115680     1.007825032230
         H            2.809444928077     0.835979433326     0.295486115680     1.007825032230

  Basis Set: AUG-CC-PVTZ
    Blend: AUG-CC-PVTZ
  Basis Set: (AUG-CC-PVTZ AUX)
    Blend: AUG-CC-PVTZ-JKFIT
	 Reference Energy          =    -301.8256557950782053 [Eh]
	 Singles Energy            =      -0.0000000000000000 [Eh]
	 Same-Spin Energy          =      -0.3280437118200534 [Eh]
	 Opposite-Spin Energy      =      -1.0134842223762097 [Eh]
	 Correlation Energy        =      -1.3415279341962631 [Eh]
	 Total Energy              =    -303.1671837292744840 [Eh]

	 ================> DF-SCS-MP2 Energies <==================
	-----------------------------------------------------------
	 SCS Same-Spin Scale       =       0.3333333333333333 [-]
	 SCS Opposite-Spin Scale   =       1.2000000000000000 [-]
	 SCS Same-Spin Energy      =      -0.1093479039400178 [Eh]
	 SCS Opposite-Spin Energy  =      -1.2161810668514517 [Eh]
	 SCS Correlation Energy    =      -1.3255289707914695 [Eh]
	 SCS Total Energy          =    -303.1511847658696865 [Eh]
	-----------------------------------------------------------

  Dipole Moment: [D]
     X:     2.8877      Y:     0.0002      Z:     0.9966     Total:     3.0549

*** Psi4 exiting successfully. Buy a developer a beer!
