                               Psi4 1.3.2 release

  ==> Input File <==

--------------------------------------------------------------------------
#psi4
#
memory 32 gb

molecule  {
0 1
  N        2.3228640    -0.0000190    -0.0807740
  N       -1.9067410     0.0000080     0.0117080
  C        0.9299840    -0.0000240    -0.0024660
  C        0.1380657     1.1556924    -0.0096553
  C        0.1380490    -1.1557144    -0.0096794
  C       -1.1907070     1.1396190     0.0037780
  C       -1.1907490    -1.1395810     0.0038230
  H        0.7091300     2.1568960    -0.0157440
  H        0.7090670    -2.1569450    -0.0157620
  H       -1.7697200     2.0619740     0.0063330
  H       -1.7697630    -2.0619320     0.0061490
  H        2.7609080    -0.8358400     0.2906890
  H        2.7608480     0.8359780     0.2902720
units angstrom
no_reorient  #important for SAPT in psi4, default
symmetry c1  #important for SAPT in psi4, default
}

set PROPERTIES_ORIGIN ["COM"]
properties('MP2/aug-cc-pvtz', properties = ['dipole'])
--------------------------------------------------------------------------

    Molecular point group: c1
  Charge       = 0
  Multiplicity = 1
  Basis Set: AUG-CC-PVTZ
    Blend: AUG-CC-PVTZ
  Basis Set: (AUG-CC-PVTZ AUX)
    Blend: AUG-CC-PVTZ-JKFIT

    Orbital Energies [Eh]
    ---------------------

    Doubly Occupied:

       1A    -15.592401     2A    -15.546713     3A    -11.305453
       4A    -11.264169     5A    -11.264151     6A    -11.231322
       7A    -11.231308     8A     -1.261364     9A     -1.227196
      10A     -1.057655    11A     -1.039584    12A     -0.855946
      13A     -0.846757    14A     -0.724382    15A     -0.716217
      16A     -0.636325    17A     -0.629341    18A     -0.611975
      19A     -0.589135    20A     -0.563158    21A     -0.491038
      22A     -0.485593    23A     -0.413163    24A     -0.361140
      25A     -0.333961

  @DF-RHF Final Energy:  -301.82185473586873

   => Energetics <=

    Nuclear Repulsion Energy =            275.6257042528019383
    One-Electron Energy =                -954.3362229748823893
    Two-Electron Energy =                 376.8886639862117249
    Total Energy =                       -301.8218547358687260
  Basis Set: (AUG-CC-PVTZ AUX)
    Blend: AUG-CC-PVTZ-RI
    Molecular point group: c1

    Geometry (in Angstrom), charge = 0, multiplicity = 1:

       Center              X                  Y                   Z               Mass
    ------------   -----------------  -----------------  -----------------  -----------------
         N            2.374432823797    -0.000017745297    -0.074700850418    14.003074004430
         N           -1.855172176203     0.000009254703     0.017781149582    14.003074004430
         C            0.981552823797    -0.000022745297     0.003607149582    12.000000000000
         C            0.189634523797     1.155693654703    -0.003582150418    12.000000000000
         C            0.189617823797    -1.155713145297    -0.003606250418    12.000000000000
         C           -1.139138176203     1.139620254703     0.009851149582    12.000000000000
         C           -1.139180176203    -1.139579745297     0.009896149582    12.000000000000
         H            0.760698823797     2.156897254703    -0.009670850418     1.007825032230
         H            0.760635823797    -2.156943745297    -0.009688850418     1.007825032230
         H           -1.718151176203     2.061975254703     0.012406149582     1.007825032230
         H           -1.718194176203    -2.061930745297     0.012222149582     1.007825032230
         H            2.812476823797    -0.835838745297     0.296762149582     1.007825032230
         H            2.812416823797     0.835979254703     0.296345149582     1.007825032230

  Basis Set: AUG-CC-PVTZ
    Blend: AUG-CC-PVTZ
  Basis Set: (AUG-CC-PVTZ AUX)
    Blend: AUG-CC-PVTZ-JKFIT
	 Reference Energy          =    -301.8218547358687260 [Eh]
	 Singles Energy            =      -0.0000000000000000 [Eh]
	 Same-Spin Energy          =      -0.3289069229325063 [Eh]
	 Opposite-Spin Energy      =      -1.0139568305352982 [Eh]
	 Correlation Energy        =      -1.3428637534678045 [Eh]
	 Total Energy              =    -303.1647184893365079 [Eh]

	 ================> DF-SCS-MP2 Energies <==================
	-----------------------------------------------------------
	 SCS Same-Spin Scale       =       0.3333333333333333 [-]
	 SCS Opposite-Spin Scale   =       1.2000000000000000 [-]
	 SCS Same-Spin Energy      =      -0.1096356409775021 [Eh]
	 SCS Opposite-Spin Energy  =      -1.2167481966423577 [Eh]
	 SCS Correlation Energy    =      -1.3263838376198598 [Eh]
	 SCS Total Energy          =    -303.1482385734885838 [Eh]
	-----------------------------------------------------------

  Dipole Moment: [D]
     X:     3.6925      Y:     0.0002      Z:     0.9796     Total:     3.8202

*** Psi4 exiting successfully. Buy a developer a beer!
