                               Psi4 1.4a3.dev225

  ==> Input File <==

--------------------------------------------------------------------------
#psi4
#
memory 32 gb

molecule  {
0 1
  N        2.3220460    -0.0000010    -0.0807810
  N       -1.9068710     0.0000000     0.0099480
  C        0.9306030     0.0000000    -0.0018200
  C        0.1994710     1.1952220    -0.0074850
  C        0.2099074    -1.1781611    -0.0074061
  C       -1.1908010     1.1392150     0.0036550
  C       -1.1908010    -1.1392150     0.0036580
  H        0.7083710     2.1567710    -0.0146740
  H        0.7083720    -2.1567700    -0.0146820
  H       -1.7689000     2.0620960     0.0068010
  H       -1.7689000    -2.0620960     0.0067980
  H        2.7635820    -0.8367020     0.2842420
  H        2.7635810     0.8367080     0.2842220
units angstrom
no_reorient  #important for SAPT in psi4, default
symmetry c1  #important for SAPT in psi4, default
}

set PROPERTIES_ORIGIN ["COM"]
properties('MP2/aug-cc-pvtz', properties = ['dipole'])
--------------------------------------------------------------------------

    Molecular point group: c1
  Charge       = 0
  Multiplicity = 1
  Basis Set: AUG-CC-PVTZ
    Blend: AUG-CC-PVTZ
  Basis Set: (AUG-CC-PVTZ AUX)
    Blend: AUG-CC-PVTZ-JKFIT

    Orbital Energies [Eh]
    ---------------------

    Doubly Occupied:

       1A    -15.584092     2A    -15.551668     3A    -11.300245
       4A    -11.276501     5A    -11.274131     6A    -11.231927
       7A    -11.231283     8A     -1.256348     9A     -1.224299
      10A     -1.053604    11A     -1.026500    12A     -0.858896
      13A     -0.842035    14A     -0.719197    15A     -0.710127
      16A     -0.652108    17A     -0.623085    18A     -0.609255
      19A     -0.587843    20A     -0.556335    21A     -0.512134
      22A     -0.486321    23A     -0.413729    24A     -0.346057
      25A     -0.336455

  @DF-RHF Final Energy:  -301.83674795966925

   => Energetics <=

    Nuclear Repulsion Energy =            273.9513786496080456
    One-Electron Energy =                -951.0479054699866310
    Two-Electron Energy =                 375.2597788607093321
    Total Energy =                       -301.8367479596692533
  Basis Set: (AUG-CC-PVTZ AUX)
    Blend: AUG-CC-PVTZ-RI
    Molecular point group: c1

    Geometry (in Angstrom), charge = 0, multiplicity = 1:

       Center              X                  Y                   Z               Mass
    ------------   -----------------  -----------------  -----------------  -----------------
         N            2.356632442373    -0.002177683763    -0.074958491212    14.003074004430
         N           -1.872284557627    -0.002176683763     0.015770508788    14.003074004430
         C            0.965189442373    -0.002176683763     0.004002508788    12.000000000000
         C            0.234057442373     1.193045316237    -0.001662491212    12.000000000000
         C            0.244493842373    -1.180337783763    -0.001583591212    12.000000000000
         C           -1.156214557627     1.137038316237     0.009477508788    12.000000000000
         C           -1.156214557627    -1.141391683763     0.009480508788    12.000000000000
         H            0.742957442373     2.154594316237    -0.008851491212     1.007825032230
         H            0.742958442373    -2.158946683763    -0.008859491212     1.007825032230
         H           -1.734313557627     2.059919316237     0.012623508788     1.007825032230
         H           -1.734313557627    -2.064272683763     0.012620508788     1.007825032230
         H            2.798168442373    -0.838878683763     0.290064508788     1.007825032230
         H            2.798167442373     0.834531316237     0.290044508788     1.007825032230

  Basis Set: AUG-CC-PVTZ
    Blend: AUG-CC-PVTZ
  Basis Set: (AUG-CC-PVTZ AUX)
    Blend: AUG-CC-PVTZ-JKFIT
	 Reference Energy          =    -301.8367479596692533 [Eh]
	 Singles Energy            =      -0.0000000000000000 [Eh]
	 Same-Spin Energy          =      -0.3282172965018615 [Eh]
	 Opposite-Spin Energy      =      -1.0132163833175700 [Eh]
	 Correlation Energy        =      -1.3414336798194315 [Eh]
	 Total Energy              =    -303.1781816394886846 [Eh]

	 ================> DF-SCS-MP2 Energies <==================
	-----------------------------------------------------------
	 SCS Same-Spin Scale       =       0.3333333333333333 [-]
	 SCS Opposite-Spin Scale   =       1.2000000000000000 [-]
	 SCS Same-Spin Energy      =      -0.1094057655006205 [Eh]
	 SCS Opposite-Spin Energy  =      -1.2158596599810840 [Eh]
	 SCS Correlation Energy    =      -1.3252654254817045 [Eh]
	 SCS Total Energy          =    -303.1620133851509422 [Eh]
	-----------------------------------------------------------

  Dipole Moment: [D]
     X:     3.5725      Y:    -0.0056      Z:     0.9660     Total:     3.7008

*** Psi4 exiting successfully. Buy a developer a beer!
