                               Psi4 1.3.2 release

  ==> Input File <==

--------------------------------------------------------------------------
#psi4
#
memory 32 gb

molecule  {
0 1
  N        2.3228640    -0.0000190    -0.0807740
  N       -1.9067410     0.0000080     0.0117080
  C        0.9299840    -0.0000240    -0.0024660
  C        0.1996340     1.1955560    -0.0090950
  C        0.1996160    -1.1955790    -0.0091200
  C       -1.1907070     1.1396190     0.0037780
  C       -1.1907490    -1.1395810     0.0038230
  H        0.7091300     2.1568960    -0.0157440
  H        0.7090670    -2.1569450    -0.0157620
  H       -1.7697200     2.0619740     0.0063330
  H       -1.7697630    -2.0619320     0.0061490
  H        2.7936805    -0.8046359     0.3184597
  H        2.7936211     0.8047901     0.3180569
units angstrom
no_reorient  #important for SAPT in psi4, default
symmetry c1  #important for SAPT in psi4, default
}

set PROPERTIES_ORIGIN ["COM"]
properties('MP2/aug-cc-pvtz', properties = ['dipole'])
--------------------------------------------------------------------------

    Molecular point group: c1
  Charge       = 0
  Multiplicity = 1
  Basis Set: AUG-CC-PVTZ
    Blend: AUG-CC-PVTZ
  Basis Set: (AUG-CC-PVTZ AUX)
    Blend: AUG-CC-PVTZ-JKFIT

    Orbital Energies [Eh]
    ---------------------

    Doubly Occupied:

       1A    -15.584808     2A    -15.551635     3A    -11.303927
       4A    -11.274822     5A    -11.274807     6A    -11.232154
       7A    -11.232137     8A     -1.255475     9A     -1.224108
      10A     -1.052824    11A     -1.027831    12A     -0.856991
      13A     -0.844884    14A     -0.722314    15A     -0.703194
      16A     -0.654615    17A     -0.618380    18A     -0.610170
      19A     -0.590236    20A     -0.555302    21A     -0.510249
      22A     -0.487141    23A     -0.414402    24A     -0.347387
      25A     -0.336223

  @DF-RHF Final Energy:  -301.83610998364759

   => Energetics <=

    Nuclear Repulsion Energy =            273.5893987619396057
    One-Electron Energy =                -950.3189812042882068
    Two-Electron Energy =                 374.8934724587010123
    Total Energy =                       -301.8361099836475887
  Basis Set: (AUG-CC-PVTZ AUX)
    Blend: AUG-CC-PVTZ-RI
    Molecular point group: c1

    Geometry (in Angstrom), charge = 0, multiplicity = 1:

       Center              X                  Y                   Z               Mass
    ------------   -----------------  -----------------  -----------------  -----------------
         N            2.358019945051    -0.000017791300    -0.075439015621    14.003074004430
         N           -1.871585054949     0.000009208700     0.017042984379    14.003074004430
         C            0.965139945051    -0.000022791300     0.002868984379    12.000000000000
         C            0.234789945051     1.195557208700    -0.003760015621    12.000000000000
         C            0.234771945051    -1.195577791300    -0.003785015621    12.000000000000
         C           -1.155551054949     1.139620208700     0.009112984379    12.000000000000
         C           -1.155593054949    -1.139579791300     0.009157984379    12.000000000000
         H            0.744285945051     2.156897208700    -0.010409015621     1.007825032230
         H            0.744222945051    -2.156943791300    -0.010427015621     1.007825032230
         H           -1.734564054949     2.061975208700     0.011667984379     1.007825032230
         H           -1.734607054949    -2.061930791300     0.011483984379     1.007825032230
         H            2.828836445051    -0.804634691300     0.323794684379     1.007825032230
         H            2.828777045051     0.804791308700     0.323391884379     1.007825032230

  Basis Set: AUG-CC-PVTZ
    Blend: AUG-CC-PVTZ
  Basis Set: (AUG-CC-PVTZ AUX)
    Blend: AUG-CC-PVTZ-JKFIT
	 Reference Energy          =    -301.8361099836475887 [Eh]
	 Singles Energy            =      -0.0000000000000000 [Eh]
	 Same-Spin Energy          =      -0.3281253950360324 [Eh]
	 Opposite-Spin Energy      =      -1.0132212645973548 [Eh]
	 Correlation Energy        =      -1.3413466596333872 [Eh]
	 Total Energy              =    -303.1774566432809479 [Eh]

	 ================> DF-SCS-MP2 Energies <==================
	-----------------------------------------------------------
	 SCS Same-Spin Scale       =       0.3333333333333333 [-]
	 SCS Opposite-Spin Scale   =       1.2000000000000000 [-]
	 SCS Same-Spin Energy      =      -0.1093751316786775 [Eh]
	 SCS Opposite-Spin Energy  =      -1.2158655175168258 [Eh]
	 SCS Correlation Energy    =      -1.3252406491955033 [Eh]
	 SCS Total Energy          =    -303.1613506328430958 [Eh]
	-----------------------------------------------------------

  Dipole Moment: [D]
     X:     3.5884      Y:     0.0002      Z:     1.0425     Total:     3.7368

*** Psi4 exiting successfully. Buy a developer a beer!
