                               Psi4 1.4a3.dev225

  ==> Input File <==

--------------------------------------------------------------------------
#psi4
#
memory 32 gb

molecule  {
0 1
  N        2.3220460    -0.0000010    -0.0807810
  N       -1.9068710     0.0000000     0.0099480
  C        0.9306030     0.0000000    -0.0018200
  C        0.1994710     1.1952220    -0.0074850
  C        0.2255620    -1.1525697    -0.0072848
  C       -1.1908010     1.1392150     0.0036550
  C       -1.1908010    -1.1392150     0.0036580
  H        0.7083710     2.1567710    -0.0146740
  H        0.7083720    -2.1567700    -0.0146820
  H       -1.7689000     2.0620960     0.0068010
  H       -1.7689000    -2.0620960     0.0067980
  H        2.7635820    -0.8367020     0.2842420
  H        2.7635810     0.8367080     0.2842220
units angstrom
no_reorient  #important for SAPT in psi4, default
symmetry c1  #important for SAPT in psi4, default
}

set PROPERTIES_ORIGIN ["COM"]
properties('MP2/aug-cc-pvtz', properties = ['dipole'])
--------------------------------------------------------------------------

    Molecular point group: c1
  Charge       = 0
  Multiplicity = 1
  Basis Set: AUG-CC-PVTZ
    Blend: AUG-CC-PVTZ
  Basis Set: (AUG-CC-PVTZ AUX)
    Blend: AUG-CC-PVTZ-JKFIT

    Orbital Energies [Eh]
    ---------------------

    Doubly Occupied:

       1A    -15.582215     2A    -15.552971     3A    -11.295637
       4A    -11.279343     5A    -11.273404     6A    -11.232554
       7A    -11.230887     8A     -1.257401     9A     -1.224149
      10A     -1.056882    11A     -1.024914    12A     -0.861467
      13A     -0.840420    14A     -0.719628    15A     -0.709432
      16A     -0.649451    17A     -0.623538    18A     -0.611329
      19A     -0.583965    20A     -0.557785    21A     -0.514181
      22A     -0.485772    23A     -0.413323    24A     -0.344472
      25A     -0.338993

  @DF-RHF Final Energy:  -301.83386906593597

   => Energetics <=

    Nuclear Repulsion Energy =            274.2995026397255174
    One-Electron Energy =                -951.7385172063179652
    Two-Electron Energy =                 375.6051455006565334
    Total Energy =                       -301.8338690659359713
  Basis Set: (AUG-CC-PVTZ AUX)
    Blend: AUG-CC-PVTZ-RI
    Molecular point group: c1

    Geometry (in Angstrom), charge = 0, multiplicity = 1:

       Center              X                  Y                   Z               Mass
    ------------   -----------------  -----------------  -----------------  -----------------
         N            2.354635111040    -0.005442826601    -0.074973967576    14.003074004430
         N           -1.874281888960    -0.005441826601     0.015755032424    14.003074004430
         C            0.963192111040    -0.005441826601     0.003987032424    12.000000000000
         C            0.232060111040     1.189780173399    -0.001677967576    12.000000000000
         C            0.258151111040    -1.158011526601    -0.001477767576    12.000000000000
         C           -1.158211888960     1.133773173399     0.009462032424    12.000000000000
         C           -1.158211888960    -1.144656826601     0.009465032424    12.000000000000
         H            0.740960111040     2.151329173399    -0.008866967576     1.007825032230
         H            0.740961111040    -2.162211826601    -0.008874967576     1.007825032230
         H           -1.736310888960     2.056654173399     0.012608032424     1.007825032230
         H           -1.736310888960    -2.067537826601     0.012605032424     1.007825032230
         H            2.796171111040    -0.842143826601     0.290049032424     1.007825032230
         H            2.796170111040     0.831266173399     0.290029032424     1.007825032230

  Basis Set: AUG-CC-PVTZ
    Blend: AUG-CC-PVTZ
  Basis Set: (AUG-CC-PVTZ AUX)
    Blend: AUG-CC-PVTZ-JKFIT
	 Reference Energy          =    -301.8338690659359713 [Eh]
	 Singles Energy            =      -0.0000000000000000 [Eh]
	 Same-Spin Energy          =      -0.3283502706260061 [Eh]
	 Opposite-Spin Energy      =      -1.0134520941380760 [Eh]
	 Correlation Energy        =      -1.3418023647640820 [Eh]
	 Total Energy              =    -303.1756714307000493 [Eh]

	 ================> DF-SCS-MP2 Energies <==================
	-----------------------------------------------------------
	 SCS Same-Spin Scale       =       0.3333333333333333 [-]
	 SCS Opposite-Spin Scale   =       1.2000000000000000 [-]
	 SCS Same-Spin Energy      =      -0.1094500902086687 [Eh]
	 SCS Opposite-Spin Energy  =      -1.2161425129656911 [Eh]
	 SCS Correlation Energy    =      -1.3255926031743597 [Eh]
	 SCS Total Energy          =    -303.1594616691103283 [Eh]
	-----------------------------------------------------------

  Dipole Moment: [D]
     X:     3.4989      Y:    -0.0135      Z:     0.9688     Total:     3.6305

*** Psi4 exiting successfully. Buy a developer a beer!
