                               Psi4 1.4a3.dev225

  ==> Input File <==

--------------------------------------------------------------------------
#psi4
#
memory 32 gb

molecule  {
0 1
  N        2.3220460    -0.0000010    -0.0807810
  N       -1.9068710     0.0000000     0.0099480
  C        0.9306030     0.0000000    -0.0018200
  C        0.1994710     1.1952220    -0.0074850
  C        0.1994710    -1.1952220    -0.0074870
  C       -1.1908010     1.1392150     0.0036550
  C       -1.1908010    -1.1392150     0.0036580
  H        0.7083710     2.1567710    -0.0146740
  H        0.7083720    -2.1567700    -0.0146820
  H       -1.7954427     2.1044689     0.0069454
  H       -1.7689000    -2.0620960     0.0067980
  H        2.7635820    -0.8367020     0.2842420
  H        2.7635810     0.8367080     0.2842220
units angstrom
no_reorient  #important for SAPT in psi4, default
symmetry c1  #important for SAPT in psi4, default
}

set PROPERTIES_ORIGIN ["COM"]
properties('MP2/aug-cc-pvtz', properties = ['dipole'])
--------------------------------------------------------------------------

    Molecular point group: c1
  Charge       = 0
  Multiplicity = 1
  Basis Set: AUG-CC-PVTZ
    Blend: AUG-CC-PVTZ
  Basis Set: (AUG-CC-PVTZ AUX)
    Blend: AUG-CC-PVTZ-JKFIT

    Orbital Energies [Eh]
    ---------------------

    Doubly Occupied:

       1A    -15.585538     2A    -15.551415     3A    -11.303472
       4A    -11.280371     5A    -11.275116     6A    -11.232049
       7A    -11.231747     8A     -1.255963     9A     -1.224641
      10A     -1.051962    11A     -1.026563    12A     -0.856057
      13A     -0.841248    14A     -0.716009    15A     -0.710710
      16A     -0.653245    17A     -0.622818    18A     -0.605871
      19A     -0.587311    20A     -0.555762    21A     -0.507873
      22A     -0.487043    23A     -0.413685    24A     -0.347607
      25A     -0.335073

  @DF-RHF Final Energy:  -301.83483122666576

   => Energetics <=

    Nuclear Repulsion Energy =            273.4850996568339951
    One-Electron Energy =                -950.1215693414665111
    Two-Electron Energy =                 374.8016384579667601
    Total Energy =                       -301.8348312266657558
  Basis Set: (AUG-CC-PVTZ AUX)
    Blend: AUG-CC-PVTZ-RI
    Molecular point group: c1

    Geometry (in Angstrom), charge = 0, multiplicity = 1:

       Center              X                  Y                   Z               Mass
    ------------   -----------------  -----------------  -----------------  -----------------
         N            2.358248414631    -0.000454972509    -0.074949716699    14.003074004430
         N           -1.870668585369    -0.000453972509     0.015779283301    14.003074004430
         C            0.966805414631    -0.000453972509     0.004011283301    12.000000000000
         C            0.235673414631     1.194768027491    -0.001653716699    12.000000000000
         C            0.235673414631    -1.195675972509    -0.001655716699    12.000000000000
         C           -1.154598585369     1.138761027491     0.009486283301    12.000000000000
         C           -1.154598585369    -1.139668972509     0.009489283301    12.000000000000
         H            0.744573414631     2.156317027491    -0.008842716699     1.007825032230
         H            0.744574414631    -2.157223972509    -0.008850716699     1.007825032230
         H           -1.759240285369     2.104014927491     0.012776683301     1.007825032230
         H           -1.732697585369    -2.062549972509     0.012629283301     1.007825032230
         H            2.799784414631    -0.837155972509     0.290073283301     1.007825032230
         H            2.799783414631     0.836254027491     0.290053283301     1.007825032230

  Basis Set: AUG-CC-PVTZ
    Blend: AUG-CC-PVTZ
  Basis Set: (AUG-CC-PVTZ AUX)
    Blend: AUG-CC-PVTZ-JKFIT
	 Reference Energy          =    -301.8348312266657558 [Eh]
	 Singles Energy            =      -0.0000000000000000 [Eh]
	 Same-Spin Energy          =      -0.3282372208124479 [Eh]
	 Opposite-Spin Energy      =      -1.0135352631158208 [Eh]
	 Correlation Energy        =      -1.3417724839282688 [Eh]
	 Total Energy              =    -303.1766037105940086 [Eh]

	 ================> DF-SCS-MP2 Energies <==================
	-----------------------------------------------------------
	 SCS Same-Spin Scale       =       0.3333333333333333 [-]
	 SCS Opposite-Spin Scale   =       1.2000000000000000 [-]
	 SCS Same-Spin Energy      =      -0.1094124069374826 [Eh]
	 SCS Opposite-Spin Energy  =      -1.2162423157389848 [Eh]
	 SCS Correlation Energy    =      -1.3256547226764674 [Eh]
	 SCS Total Energy          =    -303.1604859493422168 [Eh]
	-----------------------------------------------------------

  Dipole Moment: [D]
     X:     3.6271      Y:    -0.0260      Z:     0.9642     Total:     3.7531

*** Psi4 exiting successfully. Buy a developer a beer!
