                               Psi4 1.3.2 release

  ==> Input File <==

--------------------------------------------------------------------------
#psi4
#
memory 32 gb

molecule  {
0 1
  N        2.3207918     0.0729360    -0.0835675
  N       -1.9067410     0.0000080     0.0117080
  C        0.9299840    -0.0000240    -0.0024660
  C        0.2630724     1.2320311    -0.0141164
  C        0.1996160    -1.1955790    -0.0091200
  C       -1.1907070     1.1396190     0.0037780
  C       -1.1907490    -1.1395810     0.0038230
  H        0.7091300     2.1568960    -0.0157440
  H        0.7090670    -2.1569450    -0.0157620
  H       -1.7697200     2.0619740     0.0063330
  H       -1.7697630    -2.0619320     0.0061490
  H        2.7609080    -0.8358400     0.2906890
  H        2.7608480     0.8359780     0.2902720
units angstrom
no_reorient  #important for SAPT in psi4, default
symmetry c1  #important for SAPT in psi4, default
}

set PROPERTIES_ORIGIN ["COM"]
properties('MP2/aug-cc-pvtz', properties = ['dipole'])
--------------------------------------------------------------------------

    Molecular point group: c1
  Charge       = 0
  Multiplicity = 1
  Basis Set: AUG-CC-PVTZ
    Blend: AUG-CC-PVTZ
  Basis Set: (AUG-CC-PVTZ AUX)
    Blend: AUG-CC-PVTZ-JKFIT

    Orbital Energies [Eh]
    ---------------------

    Doubly Occupied:

       1A    -15.581969     2A    -15.553880     3A    -11.303188
       4A    -11.283048     5A    -11.277595     6A    -11.234522
       7A    -11.230861     8A     -1.254247     9A     -1.224273
      10A     -1.050065    11A     -1.022678    12A     -0.863899
      13A     -0.838708    14A     -0.725582    15A     -0.697671
      16A     -0.669020    17A     -0.626314    18A     -0.599098
      19A     -0.585329    20A     -0.552474    21A     -0.518026
      22A     -0.485691    23A     -0.413347    24A     -0.343129
      25A     -0.334443

  @DF-RHF Final Energy:  -301.82091683026346

   => Energetics <=

    Nuclear Repulsion Energy =            272.8582225041899960
    One-Electron Energy =                -948.8201641235706347
    Two-Electron Energy =                 374.1410247891172389
    Total Energy =                       -301.8209168302634566
  Basis Set: (AUG-CC-PVTZ AUX)
    Blend: AUG-CC-PVTZ-RI
    Molecular point group: c1

    Geometry (in Angstrom), charge = 0, multiplicity = 1:

       Center              X                  Y                   Z               Mass
    ------------   -----------------  -----------------  -----------------  -----------------
         N            2.348864670210     0.057421726859    -0.076580632647    14.003074004430
         N           -1.878668129790    -0.015506273141     0.018694867353    14.003074004430
         C            0.958056870210    -0.015538273141     0.004520867353    12.000000000000
         C            0.291145270210     1.216516826859    -0.007129532647    12.000000000000
         C            0.227688870210    -1.211093273141    -0.002133132647    12.000000000000
         C           -1.162634129790     1.124104726859     0.010764867353    12.000000000000
         C           -1.162676129790    -1.155095273141     0.010809867353    12.000000000000
         H            0.737202870210     2.141381726859    -0.008757132647     1.007825032230
         H            0.737139870210    -2.172459273141    -0.008775132647     1.007825032230
         H           -1.741647129790     2.046459726859     0.013319867353     1.007825032230
         H           -1.741690129790    -2.077446273141     0.013135867353     1.007825032230
         H            2.788980870210    -0.851354273141     0.297675867353     1.007825032230
         H            2.788920870210     0.820463726859     0.297258867353     1.007825032230

  Basis Set: AUG-CC-PVTZ
    Blend: AUG-CC-PVTZ
  Basis Set: (AUG-CC-PVTZ AUX)
    Blend: AUG-CC-PVTZ-JKFIT
	 Reference Energy          =    -301.8209168302634566 [Eh]
	 Singles Energy            =      -0.0000000000000000 [Eh]
	 Same-Spin Energy          =      -0.3282000466122314 [Eh]
	 Opposite-Spin Energy      =      -1.0141052661026162 [Eh]
	 Correlation Energy        =      -1.3423053127148477 [Eh]
	 Total Energy              =    -303.1632221429783272 [Eh]

	 ================> DF-SCS-MP2 Energies <==================
	-----------------------------------------------------------
	 SCS Same-Spin Scale       =       0.3333333333333333 [-]
	 SCS Opposite-Spin Scale   =       1.2000000000000000 [-]
	 SCS Same-Spin Energy      =      -0.1094000155374105 [Eh]
	 SCS Opposite-Spin Energy  =      -1.2169263193231394 [Eh]
	 SCS Correlation Energy    =      -1.3263263348605498 [Eh]
	 SCS Total Energy          =    -303.1472431651239958 [Eh]
	-----------------------------------------------------------

  Dipole Moment: [D]
     X:     3.4968      Y:    -0.0451      Z:     0.9830     Total:     3.6326

*** Psi4 exiting successfully. Buy a developer a beer!
