                               Psi4 1.4a3.dev225

  ==> Input File <==

--------------------------------------------------------------------------
#psi4
#
memory 32 gb

molecule  {
0 1
  N        2.3220460    -0.0000010    -0.0807810
  N       -1.9068710     0.0000000     0.0099480
  C        0.9306030     0.0000000    -0.0018200
  C        0.1994710     1.1952220    -0.0074850
  C        0.1994710    -1.1952220    -0.0074870
  C       -1.1908010     1.1392150     0.0036550
  C       -1.2174091    -1.0968835     0.0038917
  H        0.7083710     2.1567710    -0.0146740
  H        0.7083720    -2.1567700    -0.0146820
  H       -1.7689000     2.0620960     0.0068010
  H       -1.7689000    -2.0620960     0.0067980
  H        2.7635820    -0.8367020     0.2842420
  H        2.7635810     0.8367080     0.2842220
units angstrom
no_reorient  #important for SAPT in psi4, default
symmetry c1  #important for SAPT in psi4, default
}

set PROPERTIES_ORIGIN ["COM"]
properties('MP2/aug-cc-pvtz', properties = ['dipole'])
--------------------------------------------------------------------------

    Molecular point group: c1
  Charge       = 0
  Multiplicity = 1
  Basis Set: AUG-CC-PVTZ
    Blend: AUG-CC-PVTZ
  Basis Set: (AUG-CC-PVTZ AUX)
    Blend: AUG-CC-PVTZ-JKFIT

    Orbital Energies [Eh]
    ---------------------

    Doubly Occupied:

       1A    -15.584110     2A    -15.548852     3A    -11.301494
       4A    -11.275788     5A    -11.275023     6A    -11.233012
       7A    -11.231460     8A     -1.264825     9A     -1.229752
      10A     -1.053882    11A     -1.023408    12A     -0.862172
      13A     -0.838190    14A     -0.717603    15A     -0.711628
      16A     -0.654658    17A     -0.625841    18A     -0.607659
      19A     -0.584877    20A     -0.557601    21A     -0.511314
      22A     -0.491709    23A     -0.412563    24A     -0.346484
      25A     -0.335163

  @DF-RHF Final Energy:  -301.83572135799722

   => Energetics <=

    Nuclear Repulsion Energy =            274.1933348811937208
    One-Electron Energy =                -951.4999716748017136
    Two-Electron Energy =                 375.4709154356108343
    Total Energy =                       -301.8357213579972154
  Basis Set: (AUG-CC-PVTZ AUX)
    Blend: AUG-CC-PVTZ-RI
    Molecular point group: c1

    Geometry (in Angstrom), charge = 0, multiplicity = 1:

       Center              X                  Y                   Z               Mass
    ------------   -----------------  -----------------  -----------------  -----------------
         N            2.361358857648    -0.005401896530    -0.074977986582    14.003074004430
         N           -1.867558142352    -0.005400896530     0.015751013418    14.003074004430
         C            0.969915857648    -0.005400896530     0.003983013418    12.000000000000
         C            0.238783857648     1.189821103470    -0.001681986582    12.000000000000
         C            0.238783857648    -1.200622896530    -0.001683986582    12.000000000000
         C           -1.151488142352     1.133814103470     0.009458013418    12.000000000000
         C           -1.178096242352    -1.102284396530     0.009694713418    12.000000000000
         H            0.747683857648     2.151370103470    -0.008870986582     1.007825032230
         H            0.747684857648    -2.162170896530    -0.008878986582     1.007825032230
         H           -1.729587142352     2.056695103470     0.012604013418     1.007825032230
         H           -1.729587142352    -2.067496896530     0.012601013418     1.007825032230
         H            2.802894857648    -0.842102896530     0.290045013418     1.007825032230
         H            2.802893857648     0.831307103470     0.290025013418     1.007825032230

  Basis Set: AUG-CC-PVTZ
    Blend: AUG-CC-PVTZ
  Basis Set: (AUG-CC-PVTZ AUX)
    Blend: AUG-CC-PVTZ-JKFIT
	 Reference Energy          =    -301.8357213579972154 [Eh]
	 Singles Energy            =      -0.0000000000000000 [Eh]
	 Same-Spin Energy          =      -0.3277357817455990 [Eh]
	 Opposite-Spin Energy      =      -1.0122374666654113 [Eh]
	 Correlation Energy        =      -1.3399732484110103 [Eh]
	 Total Energy              =    -303.1756946064082285 [Eh]

	 ================> DF-SCS-MP2 Energies <==================
	-----------------------------------------------------------
	 SCS Same-Spin Scale       =       0.3333333333333333 [-]
	 SCS Opposite-Spin Scale   =       1.2000000000000000 [-]
	 SCS Same-Spin Energy      =      -0.1092452605818663 [Eh]
	 SCS Opposite-Spin Energy  =      -1.2146849599984935 [Eh]
	 SCS Correlation Energy    =      -1.3239302205803598 [Eh]
	 SCS Total Energy          =    -303.1596515785775523 [Eh]
	-----------------------------------------------------------

  Dipole Moment: [D]
     X:     3.5637      Y:     0.0568      Z:     0.9644     Total:     3.6923

*** Psi4 exiting successfully. Buy a developer a beer!
