                               Psi4 1.3.2 release

  ==> Input File <==

--------------------------------------------------------------------------
#psi4
#
memory 32 gb

molecule  {
0 1
  N        2.3228640    -0.0000190    -0.0807740
  N       -1.9067410     0.0000080     0.0117080
  C        0.9299840    -0.0000240    -0.0024660
  C        0.1996340     1.1955560    -0.0090950
  C        0.1996160    -1.1955790    -0.0091200
  C       -1.1907070     1.1396190     0.0037780
  C       -1.1907490    -1.1395810     0.0038230
  H        0.7091300     2.1568960    -0.0157440
  H        0.7090670    -2.1569450    -0.0157620
  H       -1.7697200     2.0619740     0.0063330
  H       -1.7697630    -2.0619320     0.0061490
  H        2.7719701    -0.8256891     0.3000628
  H        2.7719103     0.8258326     0.2996505
units angstrom
no_reorient  #important for SAPT in psi4, default
symmetry c1  #important for SAPT in psi4, default
}

set PROPERTIES_ORIGIN ["COM"]
properties('MP2/aug-cc-pvtz', properties = ['dipole'])
--------------------------------------------------------------------------

    Molecular point group: c1
  Charge       = 0
  Multiplicity = 1
  Basis Set: AUG-CC-PVTZ
    Blend: AUG-CC-PVTZ
  Basis Set: (AUG-CC-PVTZ AUX)
    Blend: AUG-CC-PVTZ-JKFIT

    Orbital Energies [Eh]
    ---------------------

    Doubly Occupied:

       1A    -15.585103     2A    -15.551261     3A    -11.303362
       4A    -11.274814     5A    -11.274798     6A    -11.231879
       7A    -11.231862     8A     -1.255533     9A     -1.224155
      10A     -1.052018    11A     -1.027773    12A     -0.857410
      13A     -0.843305    14A     -0.719800    15A     -0.707856
      16A     -0.654436    17A     -0.621479    18A     -0.608426
      19A     -0.590260    20A     -0.555337    21A     -0.510459
      22A     -0.486865    23A     -0.414166    24A     -0.347419
      25A     -0.335479

  @DF-RHF Final Energy:  -301.83708195951681

   => Energetics <=

    Nuclear Repulsion Energy =            273.6566281497878776
    One-Electron Energy =                -950.4569098033260843
    Two-Electron Energy =                 374.9631996940213412
    Total Energy =                       -301.8370819595168086
  Basis Set: (AUG-CC-PVTZ AUX)
    Blend: AUG-CC-PVTZ-RI
    Molecular point group: c1

    Geometry (in Angstrom), charge = 0, multiplicity = 1:

       Center              X                  Y                   Z               Mass
    ------------   -----------------  -----------------  -----------------  -----------------
         N            2.358485224485    -0.000017676644    -0.075044650228    14.003074004430
         N           -1.871119775515     0.000009323356     0.017437349772    14.003074004430
         C            0.965605224485    -0.000022676644     0.003263349772    12.000000000000
         C            0.235255224485     1.195557323356    -0.003365650228    12.000000000000
         C            0.235237224485    -1.195577676644    -0.003390650228    12.000000000000
         C           -1.155085775515     1.139620323356     0.009507349772    12.000000000000
         C           -1.155127775515    -1.139579676644     0.009552349772    12.000000000000
         H            0.744751224485     2.156897323356    -0.010014650228     1.007825032230
         H            0.744688224485    -2.156943676644    -0.010032650228     1.007825032230
         H           -1.734098775515     2.061975323356     0.012062349772     1.007825032230
         H           -1.734141775515    -2.061930676644     0.011878349772     1.007825032230
         H            2.807591324485    -0.825687776644     0.305792149772     1.007825032230
         H            2.807531524485     0.825833923356     0.305379849772     1.007825032230

  Basis Set: AUG-CC-PVTZ
    Blend: AUG-CC-PVTZ
  Basis Set: (AUG-CC-PVTZ AUX)
    Blend: AUG-CC-PVTZ-JKFIT
	 Reference Energy          =    -301.8370819595168086 [Eh]
	 Singles Energy            =      -0.0000000000000000 [Eh]
	 Same-Spin Energy          =      -0.3281080112668383 [Eh]
	 Opposite-Spin Energy      =      -1.0131516567130383 [Eh]
	 Correlation Energy        =      -1.3412596679798767 [Eh]
	 Total Energy              =    -303.1783416274967067 [Eh]

	 ================> DF-SCS-MP2 Energies <==================
	-----------------------------------------------------------
	 SCS Same-Spin Scale       =       0.3333333333333333 [-]
	 SCS Opposite-Spin Scale   =       1.2000000000000000 [-]
	 SCS Same-Spin Energy      =      -0.1093693370889461 [Eh]
	 SCS Opposite-Spin Energy  =      -1.2157819880556460 [Eh]
	 SCS Correlation Energy    =      -1.3251513251445921 [Eh]
	 SCS Total Energy          =    -303.1622332846613972 [Eh]
	-----------------------------------------------------------

  Dipole Moment: [D]
     X:     3.5919      Y:     0.0002      Z:     0.9990     Total:     3.7283

*** Psi4 exiting successfully. Buy a developer a beer!
