                               Psi4 1.3.2 release

  ==> Input File <==

--------------------------------------------------------------------------
#psi4
#
memory 32 gb

molecule  {
0 1
  N        2.3228640    -0.0000190    -0.0807740
  N       -1.9067410     0.0000080     0.0117080
  C        0.9507388     0.0129041    -0.0025721
  C        0.1996340     1.1955560    -0.0090950
  C        0.1996160    -1.1955790    -0.0091200
  C       -1.1907070     1.1396190     0.0037780
  C       -1.1907490    -1.1395810     0.0038230
  H        0.7258305     2.1478577    -0.0157073
  H        0.7090670    -2.1569450    -0.0157620
  H       -1.7697200     2.0619740     0.0063330
  H       -1.7697630    -2.0619320     0.0061490
  H        2.7609080    -0.8358400     0.2906890
  H        2.7608480     0.8359780     0.2902720
units angstrom
no_reorient  #important for SAPT in psi4, default
symmetry c1  #important for SAPT in psi4, default
}

set PROPERTIES_ORIGIN ["COM"]
properties('MP2/aug-cc-pvtz', properties = ['dipole'])
--------------------------------------------------------------------------

    Molecular point group: c1
  Charge       = 0
  Multiplicity = 1
  Basis Set: AUG-CC-PVTZ
    Blend: AUG-CC-PVTZ
  Basis Set: (AUG-CC-PVTZ AUX)
    Blend: AUG-CC-PVTZ-JKFIT

    Orbital Energies [Eh]
    ---------------------

    Doubly Occupied:

       1A    -15.588161     2A    -15.549581     3A    -11.304493
       4A    -11.275018     5A    -11.273401     6A    -11.232398
       7A    -11.230790     8A     -1.258298     9A     -1.228533
      10A     -1.048981    11A     -1.025492    12A     -0.856517
      13A     -0.842630    14A     -0.721172    15A     -0.713285
      16A     -0.654637    17A     -0.621887    18A     -0.610354
      19A     -0.588240    20A     -0.556559    21A     -0.505946
      22A     -0.489647    23A     -0.413377    24A     -0.346639
      25A     -0.331956

  @DF-RHF Final Energy:  -301.83615203803942

   => Energetics <=

    Nuclear Repulsion Energy =            273.5721318841721086
    One-Electron Energy =                -950.2805906734552082
    Two-Electron Energy =                 374.8723067512436842
    Total Energy =                       -301.8361520380394154
  Basis Set: (AUG-CC-PVTZ AUX)
    Blend: AUG-CC-PVTZ-RI
    Molecular point group: c1

    Geometry (in Angstrom), charge = 0, multiplicity = 1:

       Center              X                  Y                   Z               Mass
    ------------   -----------------  -----------------  -----------------  -----------------
         N            2.355895291113    -0.001570231901    -0.074830566370    14.003074004430
         N           -1.873709708887    -0.001543231901     0.017651433630    14.003074004430
         C            0.983770091113     0.011352868099     0.003371333630    12.000000000000
         C            0.232665291113     1.194004768099    -0.003151566370    12.000000000000
         C            0.232647291113    -1.197130231901    -0.003176566370    12.000000000000
         C           -1.157675708887     1.138067768099     0.009721433630    12.000000000000
         C           -1.157717708887    -1.141132231901     0.009766433630    12.000000000000
         H            0.758861791113     2.146306468099    -0.009763866370     1.007825032230
         H            0.742098291113    -2.158496231901    -0.009818566370     1.007825032230
         H           -1.736688708887     2.060422768099     0.012276433630     1.007825032230
         H           -1.736731708887    -2.063483231901     0.012092433630     1.007825032230
         H            2.793939291113    -0.837391231901     0.296632433630     1.007825032230
         H            2.793879291113     0.834426768099     0.296215433630     1.007825032230

  Basis Set: AUG-CC-PVTZ
    Blend: AUG-CC-PVTZ
  Basis Set: (AUG-CC-PVTZ AUX)
    Blend: AUG-CC-PVTZ-JKFIT
	 Reference Energy          =    -301.8361520380394154 [Eh]
	 Singles Energy            =      -0.0000000000000000 [Eh]
	 Same-Spin Energy          =      -0.3282114742881544 [Eh]
	 Opposite-Spin Energy      =      -1.0132326103426095 [Eh]
	 Correlation Energy        =      -1.3414440846307638 [Eh]
	 Total Energy              =    -303.1775961226701952 [Eh]

	 ================> DF-SCS-MP2 Energies <==================
	-----------------------------------------------------------
	 SCS Same-Spin Scale       =       0.3333333333333333 [-]
	 SCS Opposite-Spin Scale   =       1.2000000000000000 [-]
	 SCS Same-Spin Energy      =      -0.1094038247627181 [Eh]
	 SCS Opposite-Spin Energy  =      -1.2158791324111313 [Eh]
	 SCS Correlation Energy    =      -1.3252829571738494 [Eh]
	 SCS Total Energy          =    -303.1614349952132557 [Eh]
	-----------------------------------------------------------

  Dipole Moment: [D]
     X:     3.7522      Y:     0.0002      Z:     0.9717     Total:     3.8760

*** Psi4 exiting successfully. Buy a developer a beer!
