                               Psi4 1.3.2 release

  ==> Input File <==

--------------------------------------------------------------------------
#psi4
#
memory 32 gb

molecule  {
0 1
  N        2.3228640    -0.0000190    -0.0807740
  N       -1.9067410     0.0000080     0.0117080
  C        0.9299840    -0.0000240    -0.0024660
  C        0.1996340     1.1955560    -0.0090950
  C        0.1996160    -1.1955790    -0.0091200
  C       -1.1907070     1.1396190     0.0037780
  C       -1.1907490    -1.1395810     0.0038230
  H        0.7091300     2.1568960    -0.0157440
  H        0.7090670    -2.1569450    -0.0157620
  H       -1.7165526     1.9772794     0.0060984
  H       -1.7697630    -2.0619320     0.0061490
  H        2.7609080    -0.8358400     0.2906890
  H        2.7608480     0.8359780     0.2902720
units angstrom
no_reorient  #important for SAPT in psi4, default
symmetry c1  #important for SAPT in psi4, default
}

set PROPERTIES_ORIGIN ["COM"]
properties('MP2/aug-cc-pvtz', properties = ['dipole'])
--------------------------------------------------------------------------

    Molecular point group: c1
  Charge       = 0
  Multiplicity = 1
  Basis Set: AUG-CC-PVTZ
    Blend: AUG-CC-PVTZ
  Basis Set: (AUG-CC-PVTZ AUX)
    Blend: AUG-CC-PVTZ-JKFIT

    Orbital Energies [Eh]
    ---------------------

    Doubly Occupied:

       1A    -15.584854     2A    -15.550201     3A    -11.302497
       4A    -11.274007     5A    -11.262865     6A    -11.231444
       7A    -11.230945     8A     -1.255336     9A     -1.224003
      10A     -1.051049    11A     -1.030991    12A     -0.863705
      13A     -0.844942    14A     -0.726127    15A     -0.709934
      16A     -0.657276    17A     -0.623915    18A     -0.611987
      19A     -0.593375    20A     -0.554875    21A     -0.514524
      22A     -0.486205    23A     -0.414453    24A     -0.347080
      25A     -0.334581

  @DF-RHF Final Energy:  -301.83151001658587

   => Energetics <=

    Nuclear Repulsion Energy =            274.2227445293896153
    One-Electron Energy =                -951.5461661813582168
    Two-Electron Energy =                 375.4919116353827349
    Total Energy =                       -301.8315100165858667
  Basis Set: (AUG-CC-PVTZ AUX)
    Blend: AUG-CC-PVTZ-RI
    Molecular point group: c1

    Geometry (in Angstrom), charge = 0, multiplicity = 1:

       Center              X                  Y                   Z               Mass
    ------------   -----------------  -----------------  -----------------  -----------------
         N            2.358152583529     0.000889926429    -0.074841196292    14.003074004430
         N           -1.871452416471     0.000916926429     0.017640803708    14.003074004430
         C            0.965272583529     0.000884926429     0.003466803708    12.000000000000
         C            0.234922583529     1.196464926429    -0.003162196292    12.000000000000
         C            0.234904583529    -1.194670073571    -0.003187196292    12.000000000000
         C           -1.155418416471     1.140527926429     0.009710803708    12.000000000000
         C           -1.155460416471    -1.138672073571     0.009755803708    12.000000000000
         H            0.744418583529     2.157804926429    -0.009811196292     1.007825032230
         H            0.744355583529    -2.156036073571    -0.009829196292     1.007825032230
         H           -1.681264016471     1.978188326429     0.012031203708     1.007825032230
         H           -1.734474416471    -2.061023073571     0.012081803708     1.007825032230
         H            2.796196583529    -0.834931073571     0.296621803708     1.007825032230
         H            2.796136583529     0.836886926429     0.296204803708     1.007825032230

  Basis Set: AUG-CC-PVTZ
    Blend: AUG-CC-PVTZ
  Basis Set: (AUG-CC-PVTZ AUX)
    Blend: AUG-CC-PVTZ-JKFIT
	 Reference Energy          =    -301.8315100165858667 [Eh]
	 Singles Energy            =      -0.0000000000000000 [Eh]
	 Same-Spin Energy          =      -0.3279477214564682 [Eh]
	 Opposite-Spin Energy      =      -1.0126081468034511 [Eh]
	 Correlation Energy        =      -1.3405558682599192 [Eh]
	 Total Energy              =    -303.1720658848457788 [Eh]

	 ================> DF-SCS-MP2 Energies <==================
	-----------------------------------------------------------
	 SCS Same-Spin Scale       =       0.3333333333333333 [-]
	 SCS Opposite-Spin Scale   =       1.2000000000000000 [-]
	 SCS Same-Spin Energy      =      -0.1093159071521561 [Eh]
	 SCS Opposite-Spin Energy  =      -1.2151297761641413 [Eh]
	 SCS Correlation Energy    =      -1.3244456833162974 [Eh]
	 SCS Total Energy          =    -303.1559556999021652 [Eh]
	-----------------------------------------------------------

  Dipole Moment: [D]
     X:     3.5848      Y:     0.0372      Z:     0.9768     Total:     3.7156

*** Psi4 exiting successfully. Buy a developer a beer!
