                               Psi4 1.3.2 release

  ==> Input File <==

--------------------------------------------------------------------------
#psi4
#
memory 32 gb

molecule  {
0 1
  N        2.3219069    -0.0486680    -0.0826618
  N       -1.9067410     0.0000080     0.0117080
  C        0.9299840    -0.0000240    -0.0024660
  C        0.1996340     1.1955560    -0.0090950
  C        0.2416956    -1.2202668    -0.0124710
  C       -1.1907070     1.1396190     0.0037780
  C       -1.1907490    -1.1395810     0.0038230
  H        0.7091300     2.1568960    -0.0157440
  H        0.7090670    -2.1569450    -0.0157620
  H       -1.7697200     2.0619740     0.0063330
  H       -1.7697630    -2.0619320     0.0061490
  H        2.7609080    -0.8358400     0.2906890
  H        2.7608480     0.8359780     0.2902720
units angstrom
no_reorient  #important for SAPT in psi4, default
symmetry c1  #important for SAPT in psi4, default
}

set PROPERTIES_ORIGIN ["COM"]
properties('MP2/aug-cc-pvtz', properties = ['dipole'])
--------------------------------------------------------------------------

    Molecular point group: c1
  Charge       = 0
  Multiplicity = 1
  Basis Set: AUG-CC-PVTZ
    Blend: AUG-CC-PVTZ
  Basis Set: (AUG-CC-PVTZ AUX)
    Blend: AUG-CC-PVTZ-JKFIT

    Orbital Energies [Eh]
    ---------------------

    Doubly Occupied:

       1A    -15.583041     2A    -15.552893     3A    -11.302951
       4A    -11.280361     5A    -11.276609     6A    -11.233524
       7A    -11.231021     8A     -1.254477     9A     -1.223990
      10A     -1.050251    11A     -1.024343    12A     -0.861676
      13A     -0.839440    14A     -0.722394    15A     -0.702644
      16A     -0.663729    17A     -0.624346    18A     -0.601230
      19A     -0.588871    20A     -0.553309    21A     -0.516230
      22A     -0.485892    23A     -0.413767    24A     -0.343984
      25A     -0.335090

  @DF-RHF Final Energy:  -301.82984217313270

   => Energetics <=

    Nuclear Repulsion Energy =            273.1161048255066817
    One-Electron Energy =                -949.3597700535137847
    Two-Electron Energy =                 374.4138230548743991
    Total Energy =                       -301.8298421731327039
  Basis Set: (AUG-CC-PVTZ AUX)
    Blend: AUG-CC-PVTZ-RI
    Molecular point group: c1

    Geometry (in Angstrom), charge = 0, multiplicity = 1:

       Center              X                  Y                   Z               Mass
    ------------   -----------------  -----------------  -----------------  -----------------
         N            2.352538864772    -0.038273667706    -0.076022899750    14.003074004430
         N           -1.876109035228     0.010402332294     0.018346900250    14.003074004430
         C            0.960615964772     0.010370332294     0.004172900250    12.000000000000
         C            0.230265964772     1.205950332294    -0.002456099750    12.000000000000
         C            0.272327564772    -1.209872467706    -0.005832099750    12.000000000000
         C           -1.160075035228     1.150013332294     0.010416900250    12.000000000000
         C           -1.160117035228    -1.129186667706     0.010461900250    12.000000000000
         H            0.739761964772     2.167290332294    -0.009105099750     1.007825032230
         H            0.739698964772    -2.146550667706    -0.009123099750     1.007825032230
         H           -1.739088035228     2.072368332294     0.012971900250     1.007825032230
         H           -1.739131035228    -2.051537667706     0.012787900250     1.007825032230
         H            2.791539964772    -0.825445667706     0.297327900250     1.007825032230
         H            2.791479964772     0.846372332294     0.296910900250     1.007825032230

  Basis Set: AUG-CC-PVTZ
    Blend: AUG-CC-PVTZ
  Basis Set: (AUG-CC-PVTZ AUX)
    Blend: AUG-CC-PVTZ-JKFIT
	 Reference Energy          =    -301.8298421731327039 [Eh]
	 Singles Energy            =      -0.0000000000000000 [Eh]
	 Same-Spin Energy          =      -0.3281119207103684 [Eh]
	 Opposite-Spin Energy      =      -1.0135953404214220 [Eh]
	 Correlation Energy        =      -1.3417072611317904 [Eh]
	 Total Energy              =    -303.1715494342644774 [Eh]

	 ================> DF-SCS-MP2 Energies <==================
	-----------------------------------------------------------
	 SCS Same-Spin Scale       =       0.3333333333333333 [-]
	 SCS Opposite-Spin Scale   =       1.2000000000000000 [-]
	 SCS Same-Spin Energy      =      -0.1093706402367895 [Eh]
	 SCS Opposite-Spin Energy  =      -1.2163144085057063 [Eh]
	 SCS Correlation Energy    =      -1.3256850487424958 [Eh]
	 SCS Total Energy          =    -303.1555272218752179 [Eh]
	-----------------------------------------------------------

  Dipole Moment: [D]
     X:     3.5350      Y:     0.0286      Z:     0.9811     Total:     3.6687

*** Psi4 exiting successfully. Buy a developer a beer!
