                               Psi4 1.3.2 release

  ==> Input File <==

--------------------------------------------------------------------------
#psi4
#
memory 32 gb

molecule  {
0 1
  N        2.3228640    -0.0000190    -0.0807740
  N       -1.9067410     0.0000080     0.0117080
  C        0.9299840    -0.0000240    -0.0024660
  C        0.1996340     1.1955560    -0.0090950
  C        0.3038789    -1.0249087    -0.0081701
  C       -1.1907070     1.1396190     0.0037780
  C       -1.1907490    -1.1395810     0.0038230
  H        0.7091300     2.1568960    -0.0157440
  H        0.7090670    -2.1569450    -0.0157620
  H       -1.7697200     2.0619740     0.0063330
  H       -1.7697630    -2.0619320     0.0061490
  H        2.7609080    -0.8358400     0.2906890
  H        2.7608480     0.8359780     0.2902720
units angstrom
no_reorient  #important for SAPT in psi4, default
symmetry c1  #important for SAPT in psi4, default
}

set PROPERTIES_ORIGIN ["COM"]
properties('MP2/aug-cc-pvtz', properties = ['dipole'])
--------------------------------------------------------------------------

    Molecular point group: c1
  Charge       = 0
  Multiplicity = 1
  Basis Set: AUG-CC-PVTZ
    Blend: AUG-CC-PVTZ
  Basis Set: (AUG-CC-PVTZ AUX)
    Blend: AUG-CC-PVTZ-JKFIT

    Orbital Energies [Eh]
    ---------------------

    Doubly Occupied:

       1A    -15.572277     2A    -15.560301     3A    -11.293349
       4A    -11.270548     5A    -11.267795     6A    -11.236289
       7A    -11.227815     8A     -1.264693     9A     -1.224391
      10A     -1.077545    11A     -1.018856    12A     -0.877011
      13A     -0.827002    14A     -0.721992    15A     -0.704787
      16A     -0.645213    17A     -0.628030    18A     -0.616367
      19A     -0.569409    20A     -0.562731    21A     -0.512965
      22A     -0.484062    23A     -0.408335    24A     -0.358194
      25A     -0.335919

  @DF-RHF Final Energy:  -301.77341579477888

   => Energetics <=

    Nuclear Repulsion Energy =            276.2558211675544726
    One-Electron Energy =                -955.5267228757480780
    Two-Electron Energy =                 377.4974859134147209
    Total Energy =                       -301.7734157947788844
  Basis Set: (AUG-CC-PVTZ AUX)
    Blend: AUG-CC-PVTZ-RI
    Molecular point group: c1

    Geometry (in Angstrom), charge = 0, multiplicity = 1:

       Center              X                  Y                   Z               Mass
    ------------   -----------------  -----------------  -----------------  -----------------
         N            2.345419655149    -0.021793015215    -0.074964905515    14.003074004430
         N           -1.884185344851    -0.021766015215     0.017517094485    14.003074004430
         C            0.952539655149    -0.021798015215     0.003343094485    12.000000000000
         C            0.222189655149     1.173781984785    -0.003285905515    12.000000000000
         C            0.326434555149    -1.046682715215    -0.002361005515    12.000000000000
         C           -1.168151344851     1.117844984785     0.009587094485    12.000000000000
         C           -1.168193344851    -1.161355015215     0.009632094485    12.000000000000
         H            0.731685655149     2.135121984785    -0.009934905515     1.007825032230
         H            0.731622655149    -2.178719015215    -0.009952905515     1.007825032230
         H           -1.747164344851     2.040199984785     0.012142094485     1.007825032230
         H           -1.747207344851    -2.083706015215     0.011958094485     1.007825032230
         H            2.783463655149    -0.857614015215     0.296498094485     1.007825032230
         H            2.783403655149     0.814203984785     0.296081094485     1.007825032230

  Basis Set: AUG-CC-PVTZ
    Blend: AUG-CC-PVTZ
  Basis Set: (AUG-CC-PVTZ AUX)
    Blend: AUG-CC-PVTZ-JKFIT
	 Reference Energy          =    -301.7734157947788844 [Eh]
	 Singles Energy            =      -0.0000000000000000 [Eh]
	 Same-Spin Energy          =      -0.3285752340197316 [Eh]
	 Opposite-Spin Energy      =      -1.0156131053625796 [Eh]
	 Correlation Energy        =      -1.3441883393823113 [Eh]
	 Total Energy              =    -303.1176041341611835 [Eh]

	 ================> DF-SCS-MP2 Energies <==================
	-----------------------------------------------------------
	 SCS Same-Spin Scale       =       0.3333333333333333 [-]
	 SCS Opposite-Spin Scale   =       1.2000000000000000 [-]
	 SCS Same-Spin Energy      =      -0.1095250780065772 [Eh]
	 SCS Opposite-Spin Energy  =      -1.2187357264350955 [Eh]
	 SCS Correlation Energy    =      -1.3282608044416728 [Eh]
	 SCS Total Energy          =    -303.1016765992205819 [Eh]
	-----------------------------------------------------------

  Dipole Moment: [D]
     X:     3.0184      Y:    -0.0415      Z:     0.9970     Total:     3.1791

*** Psi4 exiting successfully. Buy a developer a beer!
