                               Psi4 1.3.2 release

  ==> Input File <==

--------------------------------------------------------------------------
#psi4
#
memory 32 gb

molecule  {
0 1
  N        2.3228640    -0.0000190    -0.0807740
  N       -1.9067410     0.0000080     0.0117080
  C        0.9299840    -0.0000240    -0.0024660
  C        0.1996340     1.1955560    -0.0090950
  C        0.2517475    -1.1102439    -0.0086451
  C       -1.1907070     1.1396190     0.0037780
  C       -1.1907490    -1.1395810     0.0038230
  H        0.7091300     2.1568960    -0.0157440
  H        0.7090670    -2.1569450    -0.0157620
  H       -1.7697200     2.0619740     0.0063330
  H       -1.7697630    -2.0619320     0.0061490
  H        2.7609080    -0.8358400     0.2906890
  H        2.7608480     0.8359780     0.2902720
units angstrom
no_reorient  #important for SAPT in psi4, default
symmetry c1  #important for SAPT in psi4, default
}

set PROPERTIES_ORIGIN ["COM"]
properties('MP2/aug-cc-pvtz', properties = ['dipole'])
--------------------------------------------------------------------------

    Molecular point group: c1
  Charge       = 0
  Multiplicity = 1
  Basis Set: AUG-CC-PVTZ
    Blend: AUG-CC-PVTZ
  Basis Set: (AUG-CC-PVTZ AUX)
    Blend: AUG-CC-PVTZ-JKFIT

    Orbital Energies [Eh]
    ---------------------

    Doubly Occupied:

       1A    -15.578921     2A    -15.555486     3A    -11.287128
       4A    -11.284254     5A    -11.272430     6A    -11.233847
       7A    -11.230270     8A     -1.259321     9A     -1.223808
      10A     -1.063071    11A     -1.022654    12A     -0.866582
      13A     -0.836573    14A     -0.720024    15A     -0.707870
      16A     -0.646616    17A     -0.624802    18A     -0.613713
      19A     -0.576916    20A     -0.560465    21A     -0.516152
      22A     -0.484983    23A     -0.412385    24A     -0.346165
      25A     -0.340197

  @DF-RHF Final Energy:  -301.82296509700859

   => Energetics <=

    Nuclear Repulsion Energy =            274.8787352380449533
    One-Electron Energy =                -952.8741305898286100
    Two-Electron Energy =                 376.1724302547750085
    Total Energy =                       -301.8229650970085913
  Basis Set: (AUG-CC-PVTZ AUX)
    Blend: AUG-CC-PVTZ-RI
    Molecular point group: c1

    Geometry (in Angstrom), charge = 0, multiplicity = 1:

       Center              X                  Y                   Z               Mass
    ------------   -----------------  -----------------  -----------------  -----------------
         N            2.352070970331    -0.010905310083    -0.074904301451    14.003074004430
         N           -1.877534029669    -0.010878310083     0.017577698549    14.003074004430
         C            0.959190970331    -0.010910310083     0.003403698549    12.000000000000
         C            0.228840970331     1.184669689917    -0.003225301451    12.000000000000
         C            0.280954470331    -1.121130210083    -0.002775401451    12.000000000000
         C           -1.161500029669     1.128732689917     0.009647698549    12.000000000000
         C           -1.161542029669    -1.150467310083     0.009692698549    12.000000000000
         H            0.738336970331     2.146009689917    -0.009874301451     1.007825032230
         H            0.738273970331    -2.167831310083    -0.009892301451     1.007825032230
         H           -1.740513029669     2.051087689917     0.012202698549     1.007825032230
         H           -1.740556029669    -2.072818310083     0.012018698549     1.007825032230
         H            2.790114970331    -0.846726310083     0.296558698549     1.007825032230
         H            2.790054970331     0.825091689917     0.296141698549     1.007825032230

  Basis Set: AUG-CC-PVTZ
    Blend: AUG-CC-PVTZ
  Basis Set: (AUG-CC-PVTZ AUX)
    Blend: AUG-CC-PVTZ-JKFIT
	 Reference Energy          =    -301.8229650970085913 [Eh]
	 Singles Energy            =      -0.0000000000000000 [Eh]
	 Same-Spin Energy          =      -0.3285009804183965 [Eh]
	 Opposite-Spin Energy      =      -1.0140293045814401 [Eh]
	 Correlation Energy        =      -1.3425302849998366 [Eh]
	 Total Energy              =    -303.1654953820084302 [Eh]

	 ================> DF-SCS-MP2 Energies <==================
	-----------------------------------------------------------
	 SCS Same-Spin Scale       =       0.3333333333333333 [-]
	 SCS Opposite-Spin Scale   =       1.2000000000000000 [-]
	 SCS Same-Spin Energy      =      -0.1095003268061322 [Eh]
	 SCS Opposite-Spin Energy  =      -1.2168351654977281 [Eh]
	 SCS Correlation Energy    =      -1.3263354923038602 [Eh]
	 SCS Total Energy          =    -303.1493005893124746 [Eh]
	-----------------------------------------------------------

  Dipole Moment: [D]
     X:     3.3387      Y:    -0.0251      Z:     0.9861     Total:     3.4814

*** Psi4 exiting successfully. Buy a developer a beer!
