                               Psi4 1.3.2 release

  ==> Input File <==

--------------------------------------------------------------------------
#psi4
#
memory 32 gb

molecule  {
0 1
  N        2.3228640    -0.0000190    -0.0807740
  N       -1.8665337    -0.0242883     0.0114474
  C        0.9299840    -0.0000240    -0.0024660
  C        0.1996340     1.1955560    -0.0090950
  C        0.1996160    -1.1955790    -0.0091200
  C       -1.1907070     1.1396190     0.0037780
  C       -1.1907490    -1.1395810     0.0038230
  H        0.7091300     2.1568960    -0.0157440
  H        0.7090670    -2.1569450    -0.0157620
  H       -1.7371788     2.0816194     0.0060399
  H       -1.7697630    -2.0619320     0.0061490
  H        2.7609080    -0.8358400     0.2906890
  H        2.7608480     0.8359780     0.2902720
units angstrom
no_reorient  #important for SAPT in psi4, default
symmetry c1  #important for SAPT in psi4, default
}

set PROPERTIES_ORIGIN ["COM"]
properties('MP2/aug-cc-pvtz', properties = ['dipole'])
--------------------------------------------------------------------------

    Molecular point group: c1
  Charge       = 0
  Multiplicity = 1
  Basis Set: AUG-CC-PVTZ
    Blend: AUG-CC-PVTZ
  Basis Set: (AUG-CC-PVTZ AUX)
    Blend: AUG-CC-PVTZ-JKFIT

    Orbital Energies [Eh]
    ---------------------

    Doubly Occupied:

       1A    -15.583588     2A    -15.545687     3A    -11.300871
       4A    -11.275526     5A    -11.269545     6A    -11.231839
       7A    -11.229020     8A     -1.261634     9A     -1.227030
      10A     -1.050981    11A     -1.029385    12A     -0.860911
      13A     -0.841461    14A     -0.719783    15A     -0.710804
      16A     -0.652834    17A     -0.626926    18A     -0.608589
      19A     -0.590642    20A     -0.557176    21A     -0.514561
      22A     -0.489660    23A     -0.405600    24A     -0.347988
      25A     -0.334196

  @DF-RHF Final Energy:  -301.83714497634503

   => Energetics <=

    Nuclear Repulsion Energy =            274.7010471109336436
    One-Electron Energy =                -952.5439058910466201
    Two-Electron Energy =                 376.0057138037678897
    Total Energy =                       -301.8371449763450300
  Basis Set: (AUG-CC-PVTZ AUX)
    Blend: AUG-CC-PVTZ-RI
    Molecular point group: c1

    Geometry (in Angstrom), charge = 0, multiplicity = 1:

       Center              X                  Y                   Z               Mass
    ------------   -----------------  -----------------  -----------------  -----------------
         N            2.352387348709     0.003389221270    -0.074801770064    14.003074004430
         N           -1.837010351291    -0.020880078730     0.017419629936    14.003074004430
         C            0.959507348709     0.003384221270     0.003506229936    12.000000000000
         C            0.229157348709     1.198964221270    -0.003122770064    12.000000000000
         C            0.229139348709    -1.192170778730    -0.003147770064    12.000000000000
         C           -1.161183651291     1.143027221270     0.009750229936    12.000000000000
         C           -1.161225651291    -1.136172778730     0.009795229936    12.000000000000
         H            0.738653348709     2.160304221270    -0.009771770064     1.007825032230
         H            0.738590348709    -2.153536778730    -0.009789770064     1.007825032230
         H           -1.707655451291     2.085027621270     0.012012129936     1.007825032230
         H           -1.740239651291    -2.058523778730     0.012121229936     1.007825032230
         H            2.790431348709    -0.832431778730     0.296661229936     1.007825032230
         H            2.790371348709     0.839386221270     0.296244229936     1.007825032230

  Basis Set: AUG-CC-PVTZ
    Blend: AUG-CC-PVTZ
  Basis Set: (AUG-CC-PVTZ AUX)
    Blend: AUG-CC-PVTZ-JKFIT
	 Reference Energy          =    -301.8371449763450300 [Eh]
	 Singles Energy            =      -0.0000000000000000 [Eh]
	 Same-Spin Energy          =      -0.3279383606636606 [Eh]
	 Opposite-Spin Energy      =      -1.0121527539632540 [Eh]
	 Correlation Energy        =      -1.3400911146269145 [Eh]
	 Total Energy              =    -303.1772360909719168 [Eh]

	 ================> DF-SCS-MP2 Energies <==================
	-----------------------------------------------------------
	 SCS Same-Spin Scale       =       0.3333333333333333 [-]
	 SCS Opposite-Spin Scale   =       1.2000000000000000 [-]
	 SCS Same-Spin Energy      =      -0.1093127868878868 [Eh]
	 SCS Opposite-Spin Energy  =      -1.2145833047559047 [Eh]
	 SCS Correlation Energy    =      -1.3238960916437916 [Eh]
	 SCS Total Energy          =    -303.1610410679888332 [Eh]
	-----------------------------------------------------------

  Dipole Moment: [D]
     X:     3.4825      Y:     0.0660      Z:     0.9780     Total:     3.6178

*** Psi4 exiting successfully. Buy a developer a beer!
