                               Psi4 1.3.2 release

  ==> Input File <==

--------------------------------------------------------------------------
#psi4
#
memory 32 gb

molecule  {
0 1
  N        2.3221244    -0.0486680    -0.0787919
  N       -1.9067410     0.0000080     0.0117080
  C        0.9299840    -0.0000240    -0.0024660
  C        0.1584433     1.1694122    -0.0057364
  C        0.1996160    -1.1955790    -0.0091200
  C       -1.1907070     1.1396190     0.0037780
  C       -1.1907490    -1.1395810     0.0038230
  H        0.7091300     2.1568960    -0.0157440
  H        0.7090670    -2.1569450    -0.0157620
  H       -1.7697200     2.0619740     0.0063330
  H       -1.7697630    -2.0619320     0.0061490
  H        2.7609080    -0.8358400     0.2906890
  H        2.7608480     0.8359780     0.2902720
units angstrom
no_reorient  #important for SAPT in psi4, default
symmetry c1  #important for SAPT in psi4, default
}

set PROPERTIES_ORIGIN ["COM"]
properties('MP2/aug-cc-pvtz', properties = ['dipole'])
--------------------------------------------------------------------------

    Molecular point group: c1
  Charge       = 0
  Multiplicity = 1
  Basis Set: AUG-CC-PVTZ
    Blend: AUG-CC-PVTZ
  Basis Set: (AUG-CC-PVTZ AUX)
    Blend: AUG-CC-PVTZ-JKFIT

    Orbital Energies [Eh]
    ---------------------

    Doubly Occupied:

       1A    -15.587444     2A    -15.549550     3A    -11.304007
       4A    -11.273259     5A    -11.269126     6A    -11.232931
       7A    -11.230285     8A     -1.257567     9A     -1.225522
      10A     -1.054372    11A     -1.031185    12A     -0.855012
      13A     -0.846830    14A     -0.726026    15A     -0.706916
      16A     -0.648165    17A     -0.628912    18A     -0.606537
      19A     -0.587590    20A     -0.557912    21A     -0.502677
      22A     -0.488145    23A     -0.413736    24A     -0.352140
      25A     -0.334498

  @DF-RHF Final Energy:  -301.83048534477751

   => Energetics <=

    Nuclear Repulsion Energy =            274.3456417694584957
    One-Electron Energy =                -951.8115619386641129
    Two-Electron Energy =                 375.6354348244281596
    Total Energy =                       -301.8304853447775145
  Basis Set: (AUG-CC-PVTZ AUX)
    Blend: AUG-CC-PVTZ-RI
    Molecular point group: c1

    Geometry (in Angstrom), charge = 0, multiplicity = 1:

       Center              X                  Y                   Z               Mass
    ------------   -----------------  -----------------  -----------------  -----------------
         N            2.363348232031    -0.038087900301    -0.073585230040    14.003074004430
         N           -1.865517167969     0.010588099699     0.016914669960    14.003074004430
         C            0.971207832031     0.010556099699     0.002740669960    12.000000000000
         C            0.199667132031     1.179992299699    -0.000529730040    12.000000000000
         C            0.240839832031    -1.184998900301    -0.003913330040    12.000000000000
         C           -1.149483167969     1.150199099699     0.008984669960    12.000000000000
         C           -1.149525167969    -1.129000900301     0.009029669960    12.000000000000
         H            0.750353832031     2.167476099699    -0.010537330040     1.007825032230
         H            0.750290832031    -2.146364900301    -0.010555330040     1.007825032230
         H           -1.728496167969     2.072554099699     0.011539669960     1.007825032230
         H           -1.728539167969    -2.051351900301     0.011355669960     1.007825032230
         H            2.802131832031    -0.825259900301     0.295895669960     1.007825032230
         H            2.802071832031     0.846558099699     0.295478669960     1.007825032230

  Basis Set: AUG-CC-PVTZ
    Blend: AUG-CC-PVTZ
  Basis Set: (AUG-CC-PVTZ AUX)
    Blend: AUG-CC-PVTZ-JKFIT
	 Reference Energy          =    -301.8304853447775145 [Eh]
	 Singles Energy            =      -0.0000000000000000 [Eh]
	 Same-Spin Energy          =      -0.3283579633014873 [Eh]
	 Opposite-Spin Energy      =      -1.0134417634969730 [Eh]
	 Correlation Energy        =      -1.3417997267984603 [Eh]
	 Total Energy              =    -303.1722850715759705 [Eh]

	 ================> DF-SCS-MP2 Energies <==================
	-----------------------------------------------------------
	 SCS Same-Spin Scale       =       0.3333333333333333 [-]
	 SCS Opposite-Spin Scale   =       1.2000000000000000 [-]
	 SCS Same-Spin Energy      =      -0.1094526544338291 [Eh]
	 SCS Opposite-Spin Energy  =      -1.2161301161963676 [Eh]
	 SCS Correlation Energy    =      -1.3255827706301966 [Eh]
	 SCS Total Energy          =    -303.1560681154077201 [Eh]
	-----------------------------------------------------------

  Dipole Moment: [D]
     X:     3.6243      Y:     0.0181      Z:     0.9722     Total:     3.7524

*** Psi4 exiting successfully. Buy a developer a beer!
