                               Psi4 1.3.2 release

  ==> Input File <==

--------------------------------------------------------------------------
#psi4
#
memory 32 gb

molecule  {
0 1
  N        2.3228640    -0.0000190    -0.0807740
  N       -1.9067410     0.0000080     0.0117080
  C        0.9299840    -0.0000240    -0.0024660
  C        0.1788804     1.1826270    -0.0092839
  C        0.1788628    -1.1826497    -0.0093086
  C       -1.1907070     1.1396190     0.0037780
  C       -1.1907490    -1.1395810     0.0038230
  H        0.7091300     2.1568960    -0.0157440
  H        0.7090670    -2.1569450    -0.0157620
  H       -1.7697200     2.0619740     0.0063330
  H       -1.7697630    -2.0619320     0.0061490
  H        2.7609080    -0.8358400     0.2906890
  H        2.7608480     0.8359780     0.2902720
units angstrom
no_reorient  #important for SAPT in psi4, default
symmetry c1  #important for SAPT in psi4, default
}

set PROPERTIES_ORIGIN ["COM"]
properties('MP2/aug-cc-pvtz', properties = ['dipole'])
--------------------------------------------------------------------------

    Molecular point group: c1
  Charge       = 0
  Multiplicity = 1
  Basis Set: AUG-CC-PVTZ
    Blend: AUG-CC-PVTZ
  Basis Set: (AUG-CC-PVTZ AUX)
    Blend: AUG-CC-PVTZ-JKFIT

    Orbital Energies [Eh]
    ---------------------

    Doubly Occupied:

       1A    -15.587620     2A    -15.549487     3A    -11.303672
       4A    -11.271184     5A    -11.271168     6A    -11.231486
       7A    -11.231471     8A     -1.257237     9A     -1.225014
      10A     -1.053661    11A     -1.031359    12A     -0.853995
      13A     -0.846722    14A     -0.720344    15A     -0.712139
      16A     -0.646410    17A     -0.624962    18A     -0.610962
      19A     -0.589339    20A     -0.557766    21A     -0.503112
      22A     -0.488009    23A     -0.413940    24A     -0.351808
      25A     -0.334712

  @DF-RHF Final Energy:  -301.83570453938421

   => Energetics <=

    Nuclear Repulsion Energy =            274.3142030464764503
    One-Electron Energy =                -951.7646580883990737
    Two-Electron Energy =                 375.6147505025384135
    Total Energy =                       -301.8357045393842100
  Basis Set: (AUG-CC-PVTZ AUX)
    Blend: AUG-CC-PVTZ-RI
    Molecular point group: c1

    Geometry (in Angstrom), charge = 0, multiplicity = 1:

       Center              X                  Y                   Z               Mass
    ------------   -----------------  -----------------  -----------------  -----------------
         N            2.364018047264    -0.000017655985    -0.074795545863    14.003074004430
         N           -1.865586952736     0.000009344015     0.017686454137    14.003074004430
         C            0.971138047264    -0.000022655985     0.003512454137    12.000000000000
         C            0.220034447264     1.182628344015    -0.003305445863    12.000000000000
         C            0.220016847264    -1.182648355985    -0.003330145863    12.000000000000
         C           -1.149552952736     1.139620344015     0.009756454137    12.000000000000
         C           -1.149594952736    -1.139579655985     0.009801454137    12.000000000000
         H            0.750284047264     2.156897344015    -0.009765545863     1.007825032230
         H            0.750221047264    -2.156943655985    -0.009783545863     1.007825032230
         H           -1.728565952736     2.061975344015     0.012311454137     1.007825032230
         H           -1.728608952736    -2.061930655985     0.012127454137     1.007825032230
         H            2.802062047264    -0.835838655985     0.296667454137     1.007825032230
         H            2.802002047264     0.835979344015     0.296250454137     1.007825032230

  Basis Set: AUG-CC-PVTZ
    Blend: AUG-CC-PVTZ
  Basis Set: (AUG-CC-PVTZ AUX)
    Blend: AUG-CC-PVTZ-JKFIT
	 Reference Energy          =    -301.8357045393842100 [Eh]
	 Singles Energy            =      -0.0000000000000000 [Eh]
	 Same-Spin Energy          =      -0.3282930981625468 [Eh]
	 Opposite-Spin Energy      =      -1.0132093400814541 [Eh]
	 Correlation Energy        =      -1.3415024382440008 [Eh]
	 Total Energy              =    -303.1772069776282024 [Eh]

	 ================> DF-SCS-MP2 Energies <==================
	-----------------------------------------------------------
	 SCS Same-Spin Scale       =       0.3333333333333333 [-]
	 SCS Opposite-Spin Scale   =       1.2000000000000000 [-]
	 SCS Same-Spin Energy      =      -0.1094310327208489 [Eh]
	 SCS Opposite-Spin Energy  =      -1.2158512080977448 [Eh]
	 SCS Correlation Energy    =      -1.3252822408185938 [Eh]
	 SCS Total Energy          =    -303.1609867802027907 [Eh]
	-----------------------------------------------------------

  Dipole Moment: [D]
     X:     3.6323      Y:     0.0002      Z:     0.9778     Total:     3.7616

*** Psi4 exiting successfully. Buy a developer a beer!
