                               Psi4 1.3.2 release

  ==> Input File <==

--------------------------------------------------------------------------
#psi4
#
memory 32 gb

molecule  {
0 1
  N        2.3228640    -0.0000190    -0.0807740
  N       -1.9067410     0.0000080     0.0117080
  C        0.9299840    -0.0000240    -0.0024660
  C        0.1996340     1.1955560    -0.0090950
  C        0.1996160    -1.1955790    -0.0091200
  C       -1.1907070     1.1396190     0.0037780
  C       -1.1907490    -1.1395810     0.0038230
  H        0.7091300     2.1568960    -0.0157440
  H        0.7090670    -2.1569450    -0.0157620
  H       -1.8760549     2.2313631     0.0068022
  H       -1.7697630    -2.0619320     0.0061490
  H        2.7609080    -0.8358400     0.2906890
  H        2.7608480     0.8359780     0.2902720
units angstrom
no_reorient  #important for SAPT in psi4, default
symmetry c1  #important for SAPT in psi4, default
}

set PROPERTIES_ORIGIN ["COM"]
properties('MP2/aug-cc-pvtz', properties = ['dipole'])
--------------------------------------------------------------------------

    Molecular point group: c1
  Charge       = 0
  Multiplicity = 1
  Basis Set: AUG-CC-PVTZ
    Blend: AUG-CC-PVTZ
  Basis Set: (AUG-CC-PVTZ AUX)
    Blend: AUG-CC-PVTZ-JKFIT

    Orbital Energies [Eh]
    ---------------------

    Doubly Occupied:

       1A    -15.586439     2A    -15.553934     3A    -11.304896
       4A    -11.296433     5A    -11.277107     6A    -11.234342
       7A    -11.232970     8A     -1.257082     9A     -1.225553
      10A     -1.053445    11A     -1.025164    12A     -0.854915
      13A     -0.837315    14A     -0.712378    15A     -0.708769
      16A     -0.651641    17A     -0.623221    18A     -0.603431
      19A     -0.576185    20A     -0.556865    21A     -0.497767
      22A     -0.488389    23A     -0.412682    24A     -0.348942
      25A     -0.336699

  @DF-RHF Final Energy:  -301.81503831473833

   => Energetics <=

    Nuclear Repulsion Energy =            272.8022601441692814
    One-Electron Energy =                -948.7214704260056806
    Two-Electron Energy =                 374.1041719670980683
    Total Energy =                       -301.8150383147383309
  Basis Set: (AUG-CC-PVTZ AUX)
    Blend: AUG-CC-PVTZ-RI
    Molecular point group: c1

    Geometry (in Angstrom), charge = 0, multiplicity = 1:

       Center              X                  Y                   Z               Mass
    ------------   -----------------  -----------------  -----------------  -----------------
         N            2.359861728828    -0.001832704914    -0.074848737853    14.003074004430
         N           -1.869743271172    -0.001805704914     0.017633262147    14.003074004430
         C            0.966981728828    -0.001837704914     0.003459262147    12.000000000000
         C            0.236631728828     1.193742295086    -0.003169737853    12.000000000000
         C            0.236613728828    -1.197392704914    -0.003194737853    12.000000000000
         C           -1.153709271172     1.137805295086     0.009703262147    12.000000000000
         C           -1.153751271172    -1.141394704914     0.009748262147    12.000000000000
         H            0.746127728828     2.155082295086    -0.009818737853     1.007825032230
         H            0.746064728828    -2.158758704914    -0.009836737853     1.007825032230
         H           -1.839057171172     2.229549395086     0.012727462147     1.007825032230
         H           -1.732765271172    -2.063745704914     0.012074262147     1.007825032230
         H            2.797905728828    -0.837653704914     0.296614262147     1.007825032230
         H            2.797845728828     0.834164295086     0.296197262147     1.007825032230

  Basis Set: AUG-CC-PVTZ
    Blend: AUG-CC-PVTZ
  Basis Set: (AUG-CC-PVTZ AUX)
    Blend: AUG-CC-PVTZ-JKFIT
	 Reference Energy          =    -301.8150383147383309 [Eh]
	 Singles Energy            =      -0.0000000000000000 [Eh]
	 Same-Spin Energy          =      -0.3287189022025009 [Eh]
	 Opposite-Spin Energy      =      -1.0154259265603298 [Eh]
	 Correlation Energy        =      -1.3441448287628308 [Eh]
	 Total Energy              =    -303.1591831435011386 [Eh]

	 ================> DF-SCS-MP2 Energies <==================
	-----------------------------------------------------------
	 SCS Same-Spin Scale       =       0.3333333333333333 [-]
	 SCS Opposite-Spin Scale   =       1.2000000000000000 [-]
	 SCS Same-Spin Energy      =      -0.1095729674008336 [Eh]
	 SCS Opposite-Spin Energy  =      -1.2185111118723957 [Eh]
	 SCS Correlation Energy    =      -1.3280840792732294 [Eh]
	 SCS Total Energy          =    -303.1431223940115842 [Eh]
	-----------------------------------------------------------

  Dipole Moment: [D]
     X:     3.6463      Y:    -0.1342      Z:     0.9766     Total:     3.7772

*** Psi4 exiting successfully. Buy a developer a beer!
