                               Psi4 1.3.2 release

  ==> Input File <==

--------------------------------------------------------------------------
#psi4
#
memory 32 gb

molecule  {
0 1
  N        2.3228640    -0.0000190    -0.0807740
  N       -1.9067410     0.0000080     0.0117080
  C        0.9403896     0.0063947    -0.0025188
  C        0.1996340     1.1955560    -0.0090950
  C        0.1996160    -1.1955790    -0.0091200
  C       -1.1907070     1.1396190     0.0037780
  C       -1.1907490    -1.1395810     0.0038230
  H        0.7175000     2.1524133    -0.0157259
  H        0.7090670    -2.1569450    -0.0157620
  H       -1.7697200     2.0619740     0.0063330
  H       -1.7697630    -2.0619320     0.0061490
  H        2.7609080    -0.8358400     0.2906890
  H        2.7608480     0.8359780     0.2902720
units angstrom
no_reorient  #important for SAPT in psi4, default
symmetry c1  #important for SAPT in psi4, default
}

set PROPERTIES_ORIGIN ["COM"]
properties('MP2/aug-cc-pvtz', properties = ['dipole'])
--------------------------------------------------------------------------

    Molecular point group: c1
  Charge       = 0
  Multiplicity = 1
  Basis Set: AUG-CC-PVTZ
    Blend: AUG-CC-PVTZ
  Basis Set: (AUG-CC-PVTZ AUX)
    Blend: AUG-CC-PVTZ-JKFIT

    Orbital Energies [Eh]
    ---------------------

    Doubly Occupied:

       1A    -15.586694     2A    -15.550334     3A    -11.303789
       4A    -11.274911     5A    -11.274102     6A    -11.232077
       7A    -11.231261     8A     -1.256681     9A     -1.226575
      10A     -1.050268    11A     -1.026647    12A     -0.857014
      13A     -0.842623    14A     -0.719808    15A     -0.711755
      16A     -0.654460    17A     -0.622265    18A     -0.609126
      19A     -0.589273    20A     -0.555889    21A     -0.508303
      22A     -0.488223    23A     -0.413726    24A     -0.347005
      25A     -0.333556

  @DF-RHF Final Energy:  -301.83690518026788

   => Energetics <=

    Nuclear Repulsion Energy =            273.6303840167412886
    One-Electron Energy =                -950.4018467626729034
    Two-Electron Energy =                 374.9345575656636811
    Total Energy =                       -301.8369051802678769
  Basis Set: (AUG-CC-PVTZ AUX)
    Blend: AUG-CC-PVTZ-RI
    Molecular point group: c1

    Geometry (in Angstrom), charge = 0, multiplicity = 1:

       Center              X                  Y                   Z               Mass
    ------------   -----------------  -----------------  -----------------  -----------------
         N            2.357304985094    -0.000788529291    -0.074837167476    14.003074004430
         N           -1.872300014906    -0.000761529291     0.017644832524    14.003074004430
         C            0.974830585094     0.005625170709     0.003418032524    12.000000000000
         C            0.234074985094     1.194786470709    -0.003158167476    12.000000000000
         C            0.234056985094    -1.196348529291    -0.003183167476    12.000000000000
         C           -1.156266014906     1.138849470709     0.009714832524    12.000000000000
         C           -1.156308014906    -1.140350529291     0.009759832524    12.000000000000
         H            0.751940985094     2.151643770709    -0.009789067476     1.007825032230
         H            0.743507985094    -2.157714529291    -0.009825167476     1.007825032230
         H           -1.735279014906     2.061204470709     0.012269832524     1.007825032230
         H           -1.735322014906    -2.062701529291     0.012085832524     1.007825032230
         H            2.795348985094    -0.836609529291     0.296625832524     1.007825032230
         H            2.795288985094     0.835208470709     0.296208832524     1.007825032230

  Basis Set: AUG-CC-PVTZ
    Blend: AUG-CC-PVTZ
  Basis Set: (AUG-CC-PVTZ AUX)
    Blend: AUG-CC-PVTZ-JKFIT
	 Reference Energy          =    -301.8369051802678769 [Eh]
	 Singles Energy            =      -0.0000000000000000 [Eh]
	 Same-Spin Energy          =      -0.3281604739523807 [Eh]
	 Opposite-Spin Energy      =      -1.0131773275867337 [Eh]
	 Correlation Energy        =      -1.3413378015391144 [Eh]
	 Total Energy              =    -303.1782429818069886 [Eh]

	 ================> DF-SCS-MP2 Energies <==================
	-----------------------------------------------------------
	 SCS Same-Spin Scale       =       0.3333333333333333 [-]
	 SCS Opposite-Spin Scale   =       1.2000000000000000 [-]
	 SCS Same-Spin Energy      =      -0.1093868246507936 [Eh]
	 SCS Opposite-Spin Energy  =      -1.2158127931040805 [Eh]
	 SCS Correlation Energy    =      -1.3251996177548742 [Eh]
	 SCS Total Energy          =    -303.1621047980227672 [Eh]
	-----------------------------------------------------------

  Dipole Moment: [D]
     X:     3.6726      Y:     0.0004      Z:     0.9743     Total:     3.7996

*** Psi4 exiting successfully. Buy a developer a beer!
