                               Psi4 1.3.2 release

  ==> Input File <==

--------------------------------------------------------------------------
#psi4
#
memory 32 gb

molecule  {
0 1
  N        2.3228640    -0.0000190    -0.0807740
  N       -1.9067410     0.0000080     0.0117080
  C        0.9299840    -0.0000240    -0.0024660
  C        0.2517637     1.1102198    -0.0086218
  C        0.1996160    -1.1955790    -0.0091200
  C       -1.1907070     1.1396190     0.0037780
  C       -1.1907490    -1.1395810     0.0038230
  H        0.7091300     2.1568960    -0.0157440
  H        0.7090670    -2.1569450    -0.0157620
  H       -1.7697200     2.0619740     0.0063330
  H       -1.7697630    -2.0619320     0.0061490
  H        2.7609080    -0.8358400     0.2906890
  H        2.7608480     0.8359780     0.2902720
units angstrom
no_reorient  #important for SAPT in psi4, default
symmetry c1  #important for SAPT in psi4, default
}

set PROPERTIES_ORIGIN ["COM"]
properties('MP2/aug-cc-pvtz', properties = ['dipole'])
--------------------------------------------------------------------------

    Molecular point group: c1
  Charge       = 0
  Multiplicity = 1
  Basis Set: AUG-CC-PVTZ
    Blend: AUG-CC-PVTZ
  Basis Set: (AUG-CC-PVTZ AUX)
    Blend: AUG-CC-PVTZ-JKFIT

    Orbital Energies [Eh]
    ---------------------

    Doubly Occupied:

       1A    -15.578922     2A    -15.555486     3A    -11.287130
       4A    -11.284258     5A    -11.272428     6A    -11.233846
       7A    -11.230273     8A     -1.259322     9A     -1.223808
      10A     -1.063071    11A     -1.022652    12A     -0.866583
      13A     -0.836575    14A     -0.720023    15A     -0.707871
      16A     -0.646618    17A     -0.624803    18A     -0.613709
      19A     -0.576920    20A     -0.560461    21A     -0.516156
      22A     -0.484983    23A     -0.412384    24A     -0.346169
      25A     -0.340189

  @DF-RHF Final Energy:  -301.82296534273132

   => Energetics <=

    Nuclear Repulsion Energy =            274.8786867275378540
    One-Electron Energy =                -952.8740212541712253
    Two-Electron Energy =                 376.1723691839019921
    Total Energy =                       -301.8229653427313224
  Basis Set: (AUG-CC-PVTZ AUX)
    Blend: AUG-CC-PVTZ-RI
    Molecular point group: c1

    Geometry (in Angstrom), charge = 0, multiplicity = 1:

       Center              X                  Y                   Z               Mass
    ------------   -----------------  -----------------  -----------------  -----------------
         N            2.352071199988     0.010870215011    -0.074904084552    14.003074004430
         N           -1.877533800012     0.010897215011     0.017577915448    14.003074004430
         C            0.959191199988     0.010865215011     0.003403915448    12.000000000000
         C            0.280970899988     1.121109015011    -0.002751884552    12.000000000000
         C            0.228823199988    -1.184689784989    -0.003250084552    12.000000000000
         C           -1.161499800012     1.150508215011     0.009647915448    12.000000000000
         C           -1.161541800012    -1.128691784989     0.009692915448    12.000000000000
         H            0.738337199988     2.167785215011    -0.009874084552     1.007825032230
         H            0.738274199988    -2.146055784989    -0.009892084552     1.007825032230
         H           -1.740512800012     2.072863215011     0.012202915448     1.007825032230
         H           -1.740555800012    -2.051042784989     0.012018915448     1.007825032230
         H            2.790115199988    -0.824950784989     0.296558915448     1.007825032230
         H            2.790055199988     0.846867215011     0.296141915448     1.007825032230

  Basis Set: AUG-CC-PVTZ
    Blend: AUG-CC-PVTZ
  Basis Set: (AUG-CC-PVTZ AUX)
    Blend: AUG-CC-PVTZ-JKFIT
	 Reference Energy          =    -301.8229653427313224 [Eh]
	 Singles Energy            =      -0.0000000000000000 [Eh]
	 Same-Spin Energy          =      -0.3285020009269446 [Eh]
	 Opposite-Spin Energy      =      -1.0140300825055060 [Eh]
	 Correlation Energy        =      -1.3425320834324506 [Eh]
	 Total Energy              =    -303.1654974261637676 [Eh]

	 ================> DF-SCS-MP2 Energies <==================
	-----------------------------------------------------------
	 SCS Same-Spin Scale       =       0.3333333333333333 [-]
	 SCS Opposite-Spin Scale   =       1.2000000000000000 [-]
	 SCS Same-Spin Energy      =      -0.1095006669756482 [Eh]
	 SCS Opposite-Spin Energy  =      -1.2168360990066072 [Eh]
	 SCS Correlation Energy    =      -1.3263367659822554 [Eh]
	 SCS Total Energy          =    -303.1493021087135844 [Eh]
	-----------------------------------------------------------

  Dipole Moment: [D]
     X:     3.3387      Y:     0.0255      Z:     0.9861     Total:     3.4814

*** Psi4 exiting successfully. Buy a developer a beer!
