                               Psi4 1.3.2 release

  ==> Input File <==

--------------------------------------------------------------------------
#psi4
#
memory 32 gb

molecule  {
0 1
  N        2.3228640    -0.0000190    -0.0807740
  N       -1.9067410     0.0000080     0.0117080
  C        0.9299840    -0.0000240    -0.0024660
  C        0.1996340     1.1955560    -0.0090950
  C        0.1996160    -1.1955790    -0.0091200
  C       -1.1375064     1.2242910     0.0031888
  C       -1.1907490    -1.1395810     0.0038230
  H        0.7091300     2.1568960    -0.0157440
  H        0.7090670    -2.1569450    -0.0157620
  H       -1.7697200     2.0619740     0.0063330
  H       -1.7697630    -2.0619320     0.0061490
  H        2.7609080    -0.8358400     0.2906890
  H        2.7608480     0.8359780     0.2902720
units angstrom
no_reorient  #important for SAPT in psi4, default
symmetry c1  #important for SAPT in psi4, default
}

set PROPERTIES_ORIGIN ["COM"]
properties('MP2/aug-cc-pvtz', properties = ['dipole'])
--------------------------------------------------------------------------

    Molecular point group: c1
  Charge       = 0
  Multiplicity = 1
  Basis Set: AUG-CC-PVTZ
    Blend: AUG-CC-PVTZ
  Basis Set: (AUG-CC-PVTZ AUX)
    Blend: AUG-CC-PVTZ-JKFIT

    Orbital Energies [Eh]
    ---------------------

    Doubly Occupied:

       1A    -15.587403     2A    -15.553787     3A    -11.305903
       4A    -11.272816     5A    -11.272703     6A    -11.231635
       7A    -11.229591     8A     -1.249241     9A     -1.208379
      10A     -1.053601    11A     -1.030597    12A     -0.856418
      13A     -0.843526    14A     -0.722168    15A     -0.709342
      16A     -0.653522    17A     -0.620279    18A     -0.609292
      19A     -0.596600    20A     -0.553382    21A     -0.506797
      22A     -0.478548    23A     -0.410177    24A     -0.359108
      25A     -0.326618

  @DF-RHF Final Energy:  -301.82323442016627

   => Energetics <=

    Nuclear Repulsion Energy =            272.8800754234477495
    One-Electron Energy =                -948.9237574246699296
    Two-Electron Energy =                 374.2204475810558506
    Total Energy =                       -301.8232344201662727
  Basis Set: (AUG-CC-PVTZ AUX)
    Blend: AUG-CC-PVTZ-RI
    Molecular point group: c1

    Geometry (in Angstrom), charge = 0, multiplicity = 1:

       Center              X                  Y                   Z               Mass
    ------------   -----------------  -----------------  -----------------  -----------------
         N            2.351934566531    -0.010820706809    -0.074768535588    14.003074004430
         N           -1.877670433469    -0.010793706809     0.017713464412    14.003074004430
         C            0.959054566531    -0.010825706809     0.003539464412    12.000000000000
         C            0.228704566531     1.184754293191    -0.003089535588    12.000000000000
         C            0.228686566531    -1.206380706809    -0.003114535588    12.000000000000
         C           -1.108435833469     1.213489293191     0.009194264412    12.000000000000
         C           -1.161678433469    -1.150382706809     0.009828464412    12.000000000000
         H            0.738200566531     2.146094293191    -0.009738535588     1.007825032230
         H            0.738137566531    -2.167746706809    -0.009756535588     1.007825032230
         H           -1.740649433469     2.051172293191     0.012338464412     1.007825032230
         H           -1.740692433469    -2.072733706809     0.012154464412     1.007825032230
         H            2.789978566531    -0.846641706809     0.296694464412     1.007825032230
         H            2.789918566531     0.825176293191     0.296277464412     1.007825032230

  Basis Set: AUG-CC-PVTZ
    Blend: AUG-CC-PVTZ
  Basis Set: (AUG-CC-PVTZ AUX)
    Blend: AUG-CC-PVTZ-JKFIT
	 Reference Energy          =    -301.8232344201662727 [Eh]
	 Singles Energy            =      -0.0000000000000000 [Eh]
	 Same-Spin Energy          =      -0.3286155888705233 [Eh]
	 Opposite-Spin Energy      =      -1.0156068284003184 [Eh]
	 Correlation Energy        =      -1.3442224172708417 [Eh]
	 Total Energy              =    -303.1674568374371006 [Eh]

	 ================> DF-SCS-MP2 Energies <==================
	-----------------------------------------------------------
	 SCS Same-Spin Scale       =       0.3333333333333333 [-]
	 SCS Opposite-Spin Scale   =       1.2000000000000000 [-]
	 SCS Same-Spin Energy      =      -0.1095385296235078 [Eh]
	 SCS Opposite-Spin Energy  =      -1.2187281940803820 [Eh]
	 SCS Correlation Energy    =      -1.3282667237038899 [Eh]
	 SCS Total Energy          =    -303.1515011438701777 [Eh]
	-----------------------------------------------------------

  Dipole Moment: [D]
     X:     3.6660      Y:     0.0806      Z:     0.9761     Total:     3.7946

*** Psi4 exiting successfully. Buy a developer a beer!
