                               Psi4 1.3.2 release

  ==> Input File <==

--------------------------------------------------------------------------
#psi4
#
memory 32 gb

molecule  {
0 1
  N        2.3228640    -0.0000190    -0.0807740
  N       -1.9067410     0.0000080     0.0117080
  C        0.9299840    -0.0000240    -0.0024660
  C        0.1583555     1.1693378    -0.0094706
  C        0.1583384    -1.1693602    -0.0094951
  C       -1.1907070     1.1396190     0.0037780
  C       -1.1907490    -1.1395810     0.0038230
  H        0.7091300     2.1568960    -0.0157440
  H        0.7090670    -2.1569450    -0.0157620
  H       -1.7697200     2.0619740     0.0063330
  H       -1.7697630    -2.0619320     0.0061490
  H        2.7609080    -0.8358400     0.2906890
  H        2.7608480     0.8359780     0.2902720
units angstrom
no_reorient  #important for SAPT in psi4, default
symmetry c1  #important for SAPT in psi4, default
}

set PROPERTIES_ORIGIN ["COM"]
properties('MP2/aug-cc-pvtz', properties = ['dipole'])
--------------------------------------------------------------------------

    Molecular point group: c1
  Charge       = 0
  Multiplicity = 1
  Basis Set: AUG-CC-PVTZ
    Blend: AUG-CC-PVTZ
  Basis Set: (AUG-CC-PVTZ AUX)
    Blend: AUG-CC-PVTZ-JKFIT

    Orbital Energies [Eh]
    ---------------------

    Doubly Occupied:

       1A    -15.590009     2A    -15.548025     3A    -11.304461
       4A    -11.267627     5A    -11.267610     6A    -11.231340
       7A    -11.231325     8A     -1.259154     9A     -1.226011
      10A     -1.055667    11A     -1.035306    12A     -0.851200
      13A     -0.850362    14A     -0.722284    15A     -0.714141
      16A     -0.639789    17A     -0.627154    18A     -0.613039
      19A     -0.588990    20A     -0.560361    21A     -0.494729
      22A     -0.489449    23A     -0.413636    24A     -0.356374
      25A     -0.334325

  @DF-RHF Final Energy:  -301.83059553937238

   => Energetics <=

    Nuclear Repulsion Energy =            274.9589283077199866
    One-Electron Energy =                -953.0343123906822029
    Two-Electron Energy =                 376.2447885435898911
    Total Energy =                       -301.8305955393723821
  Basis Set: (AUG-CC-PVTZ AUX)
    Blend: AUG-CC-PVTZ-RI
    Molecular point group: c1

    Geometry (in Angstrom), charge = 0, multiplicity = 1:

       Center              X                  Y                   Z               Mass
    ------------   -----------------  -----------------  -----------------  -----------------
         N            2.369255424973    -0.000017694262    -0.074747930207    14.003074004430
         N           -1.860349575027     0.000009305738     0.017734069793    14.003074004430
         C            0.976375424973    -0.000022694262     0.003560069793    12.000000000000
         C            0.204746924973     1.169339105738    -0.003444530207    12.000000000000
         C            0.204729824973    -1.169358894262    -0.003469030207    12.000000000000
         C           -1.144315575027     1.139620305738     0.009804069793    12.000000000000
         C           -1.144357575027    -1.139579694262     0.009849069793    12.000000000000
         H            0.755521424973     2.156897305738    -0.009717930207     1.007825032230
         H            0.755458424973    -2.156943694262    -0.009735930207     1.007825032230
         H           -1.723328575027     2.061975305738     0.012359069793     1.007825032230
         H           -1.723371575027    -2.061930694262     0.012175069793     1.007825032230
         H            2.807299424973    -0.835838694262     0.296715069793     1.007825032230
         H            2.807239424973     0.835979305738     0.296298069793     1.007825032230

  Basis Set: AUG-CC-PVTZ
    Blend: AUG-CC-PVTZ
  Basis Set: (AUG-CC-PVTZ AUX)
    Blend: AUG-CC-PVTZ-JKFIT
	 Reference Energy          =    -301.8305955393723821 [Eh]
	 Singles Energy            =      -0.0000000000000000 [Eh]
	 Same-Spin Energy          =      -0.3285563504736352 [Eh]
	 Opposite-Spin Energy      =      -1.0134850947394107 [Eh]
	 Correlation Energy        =      -1.3420414452130460 [Eh]
	 Total Energy              =    -303.1726369845854379 [Eh]

	 ================> DF-SCS-MP2 Energies <==================
	-----------------------------------------------------------
	 SCS Same-Spin Scale       =       0.3333333333333333 [-]
	 SCS Opposite-Spin Scale   =       1.2000000000000000 [-]
	 SCS Same-Spin Energy      =      -0.1095187834912117 [Eh]
	 SCS Opposite-Spin Energy  =      -1.2161821136872928 [Eh]
	 SCS Correlation Energy    =      -1.3257008971785045 [Eh]
	 SCS Total Energy          =    -303.1562964365508606 [Eh]
	-----------------------------------------------------------

  Dipole Moment: [D]
     X:     3.6658      Y:     0.0002      Z:     0.9787     Total:     3.7942

*** Psi4 exiting successfully. Buy a developer a beer!
