                               Psi4 1.3.2 release

  ==> Input File <==

--------------------------------------------------------------------------
#psi4
#
memory 32 gb

molecule  {
0 1
  N        2.3228640    -0.0000190    -0.0807740
  N       -1.9067410     0.0000080     0.0117080
  C        1.1296687    -0.0000233    -0.0136923
  C        0.1996340     1.1955560    -0.0090950
  C        0.1996160    -1.1955790    -0.0091200
  C       -1.1907070     1.1396190     0.0037780
  C       -1.1907490    -1.1395810     0.0038230
  H        0.7091300     2.1568960    -0.0157440
  H        0.7090670    -2.1569450    -0.0157620
  H       -1.7697200     2.0619740     0.0063330
  H       -1.7697630    -2.0619320     0.0061490
  H        2.7609080    -0.8358400     0.2906890
  H        2.7608480     0.8359780     0.2902720
units angstrom
no_reorient  #important for SAPT in psi4, default
symmetry c1  #important for SAPT in psi4, default
}

set PROPERTIES_ORIGIN ["COM"]
properties('MP2/aug-cc-pvtz', properties = ['dipole'])
--------------------------------------------------------------------------

    Molecular point group: c1
  Charge       = 0
  Multiplicity = 1
  Basis Set: AUG-CC-PVTZ
    Blend: AUG-CC-PVTZ
  Basis Set: (AUG-CC-PVTZ AUX)
    Blend: AUG-CC-PVTZ-JKFIT

    Orbital Energies [Eh]
    ---------------------

    Doubly Occupied:

       1A    -15.617341     2A    -15.530544     3A    -11.319361
       4A    -11.266925     5A    -11.266909     6A    -11.229170
       7A    -11.229162     8A     -1.344818     9A     -1.223255
      10A     -1.019760    11A     -1.008925    12A     -0.860626
      13A     -0.847483    14A     -0.749496    15A     -0.748799
      16A     -0.652537    17A     -0.615115    18A     -0.606976
      19A     -0.595040    20A     -0.570628    21A     -0.498662
      22A     -0.463178    23A     -0.400999    24A     -0.338516
      25A     -0.303838

  @DF-RHF Final Energy:  -301.77227703216113

   => Energetics <=

    Nuclear Repulsion Energy =            272.8854190269050832
    One-Electron Energy =                -948.6992604875080133
    Two-Electron Energy =                 374.0415644284418022
    Total Energy =                       -301.7722770321611279
  Basis Set: (AUG-CC-PVTZ AUX)
    Blend: AUG-CC-PVTZ-RI
    Molecular point group: c1

    Geometry (in Angstrom), charge = 0, multiplicity = 1:

       Center              X                  Y                   Z               Mass
    ------------   -----------------  -----------------  -----------------  -----------------
         N            2.333245025903    -0.000017707020    -0.073411374554    14.003074004430
         N           -1.896359974097     0.000009292980     0.019070625446    14.003074004430
         C            1.140049725903    -0.000022007020    -0.006329674554    12.000000000000
         C            0.210015025903     1.195557292980    -0.001732374554    12.000000000000
         C            0.209997025903    -1.195577707020    -0.001757374554    12.000000000000
         C           -1.180325974097     1.139620292980     0.011140625446    12.000000000000
         C           -1.180367974097    -1.139579707020     0.011185625446    12.000000000000
         H            0.719511025903     2.156897292980    -0.008381374554     1.007825032230
         H            0.719448025903    -2.156943707020    -0.008399374554     1.007825032230
         H           -1.759338974097     2.061975292980     0.013695625446     1.007825032230
         H           -1.759381974097    -2.061930707020     0.013511625446     1.007825032230
         H            2.771289025903    -0.835838707020     0.298051625446     1.007825032230
         H            2.771229025903     0.835979292980     0.297634625446     1.007825032230

  Basis Set: AUG-CC-PVTZ
    Blend: AUG-CC-PVTZ
  Basis Set: (AUG-CC-PVTZ AUX)
    Blend: AUG-CC-PVTZ-JKFIT
	 Reference Energy          =    -301.7722770321611279 [Eh]
	 Singles Energy            =      -0.0000000000000000 [Eh]
	 Same-Spin Energy          =      -0.3292257854684367 [Eh]
	 Opposite-Spin Energy      =      -1.0146173073310438 [Eh]
	 Correlation Energy        =      -1.3438430927994807 [Eh]
	 Total Energy              =    -303.1161201249606165 [Eh]

	 ================> DF-SCS-MP2 Energies <==================
	-----------------------------------------------------------
	 SCS Same-Spin Scale       =       0.3333333333333333 [-]
	 SCS Opposite-Spin Scale   =       1.2000000000000000 [-]
	 SCS Same-Spin Energy      =      -0.1097419284894789 [Eh]
	 SCS Opposite-Spin Energy  =      -1.2175407687972526 [Eh]
	 SCS Correlation Energy    =      -1.3272826972867315 [Eh]
	 SCS Total Energy          =    -303.0995597294478330 [Eh]
	-----------------------------------------------------------

  Dipole Moment: [D]
     X:     5.2768      Y:     0.0002      Z:     0.9127     Total:     5.3552

*** Psi4 exiting successfully. Buy a developer a beer!
