                               Psi4 1.3.2 release

  ==> Input File <==

--------------------------------------------------------------------------
#psi4
#
memory 32 gb

molecule  {
0 1
  N        2.3228640    -0.0000190    -0.0807740
  N       -1.9067410     0.0000080     0.0117080
  C        0.9299840    -0.0000240    -0.0024660
  C        0.1475043     1.2808922    -0.0095682
  C        0.1996160    -1.1955790    -0.0091200
  C       -1.1907070     1.1396190     0.0037780
  C       -1.1907490    -1.1395810     0.0038230
  H        0.7091300     2.1568960    -0.0157440
  H        0.7090670    -2.1569450    -0.0157620
  H       -1.7697200     2.0619740     0.0063330
  H       -1.7697630    -2.0619320     0.0061490
  H        2.7609080    -0.8358400     0.2906890
  H        2.7608480     0.8359780     0.2902720
units angstrom
no_reorient  #important for SAPT in psi4, default
symmetry c1  #important for SAPT in psi4, default
}

set PROPERTIES_ORIGIN ["COM"]
properties('MP2/aug-cc-pvtz', properties = ['dipole'])
--------------------------------------------------------------------------

    Molecular point group: c1
  Charge       = 0
  Multiplicity = 1
  Basis Set: AUG-CC-PVTZ
    Blend: AUG-CC-PVTZ
  Basis Set: (AUG-CC-PVTZ AUX)
    Blend: AUG-CC-PVTZ-JKFIT

    Orbital Energies [Eh]
    ---------------------

    Doubly Occupied:

       1A    -15.590460     2A    -15.547386     3A    -11.314586
       4A    -11.277397     5A    -11.266104     6A    -11.232916
       7A    -11.229784     8A     -1.252893     9A     -1.224750
      10A     -1.043474    11A     -1.033984    12A     -0.857091
      13A     -0.839737    14A     -0.717003    15A     -0.711972
      16A     -0.669691    17A     -0.623652    18A     -0.602538
      19A     -0.593570    20A     -0.551684    21A     -0.497628
      22A     -0.488584    23A     -0.414233    24A     -0.354793
      25A     -0.327678

  @DF-RHF Final Energy:  -301.82624950374037

   => Energetics <=

    Nuclear Repulsion Energy =            272.6412179310354986
    One-Electron Energy =                -948.4077568645734573
    Two-Electron Energy =                 373.9402894297975877
    Total Energy =                       -301.8262495037403710
  Basis Set: (AUG-CC-PVTZ AUX)
    Blend: AUG-CC-PVTZ-RI
    Molecular point group: c1

    Geometry (in Angstrom), charge = 0, multiplicity = 1:

       Center              X                  Y                   Z               Mass
    ------------   -----------------  -----------------  -----------------  -----------------
         N            2.365373396555    -0.010905450429    -0.074783335739    14.003074004430
         N           -1.864231603445    -0.010878450429     0.017698664261    14.003074004430
         C            0.972493396555    -0.010910450429     0.003524664261    12.000000000000
         C            0.190013696555     1.270005749571    -0.003577535739    12.000000000000
         C            0.242125396555    -1.206465450429    -0.003129335739    12.000000000000
         C           -1.148197603445     1.128732549571     0.009768664261    12.000000000000
         C           -1.148239603445    -1.150467450429     0.009813664261    12.000000000000
         H            0.751639396555     2.146009549571    -0.009753335739     1.007825032230
         H            0.751576396555    -2.167831450429    -0.009771335739     1.007825032230
         H           -1.727210603445     2.051087549571     0.012323664261     1.007825032230
         H           -1.727253603445    -2.072818450429     0.012139664261     1.007825032230
         H            2.803417396555    -0.846726450429     0.296679664261     1.007825032230
         H            2.803357396555     0.825091549571     0.296262664261     1.007825032230

  Basis Set: AUG-CC-PVTZ
    Blend: AUG-CC-PVTZ
  Basis Set: (AUG-CC-PVTZ AUX)
    Blend: AUG-CC-PVTZ-JKFIT
	 Reference Energy          =    -301.8262495037403710 [Eh]
	 Singles Energy            =      -0.0000000000000000 [Eh]
	 Same-Spin Energy          =      -0.3274960075731936 [Eh]
	 Opposite-Spin Energy      =      -1.0130089287680009 [Eh]
	 Correlation Energy        =      -1.3405049363411945 [Eh]
	 Total Energy              =    -303.1667544400815473 [Eh]

	 ================> DF-SCS-MP2 Energies <==================
	-----------------------------------------------------------
	 SCS Same-Spin Scale       =       0.3333333333333333 [-]
	 SCS Opposite-Spin Scale   =       1.2000000000000000 [-]
	 SCS Same-Spin Energy      =      -0.1091653358577312 [Eh]
	 SCS Opposite-Spin Energy  =      -1.2156107145216011 [Eh]
	 SCS Correlation Energy    =      -1.3247760503793322 [Eh]
	 SCS Total Energy          =    -303.1510255541197125 [Eh]
	-----------------------------------------------------------

  Dipole Moment: [D]
     X:     3.7867      Y:    -0.0314      Z:     0.9687     Total:     3.9088

*** Psi4 exiting successfully. Buy a developer a beer!
