                               Psi4 1.3.2 release

  ==> Input File <==

--------------------------------------------------------------------------
#psi4
#
memory 32 gb

molecule  {
0 1
  N        2.3228640    -0.0000190    -0.0807740
  N       -1.9067410     0.0000080     0.0117080
  C        0.9299840    -0.0000240    -0.0024660
  C        0.1996340     1.1955560    -0.0090950
  C        0.1996160    -1.1955790    -0.0091200
  C       -1.1907070     1.1396190     0.0037780
  C       -1.1907490    -1.1395810     0.0038230
  H        0.7091300     2.1568960    -0.0157440
  H        0.7090670    -2.1569450    -0.0157620
  H       -1.7697200     2.0619740     0.0063330
  H       -1.8760984    -2.2313209     0.0065762
  H        2.7609080    -0.8358400     0.2906890
  H        2.7608480     0.8359780     0.2902720
units angstrom
no_reorient  #important for SAPT in psi4, default
symmetry c1  #important for SAPT in psi4, default
}

set PROPERTIES_ORIGIN ["COM"]
properties('MP2/aug-cc-pvtz', properties = ['dipole'])
--------------------------------------------------------------------------

    Molecular point group: c1
  Charge       = 0
  Multiplicity = 1
  Basis Set: AUG-CC-PVTZ
    Blend: AUG-CC-PVTZ
  Basis Set: (AUG-CC-PVTZ AUX)
    Blend: AUG-CC-PVTZ-JKFIT

    Orbital Energies [Eh]
    ---------------------

    Doubly Occupied:

       1A    -15.586439     2A    -15.553934     3A    -11.304896
       4A    -11.296431     5A    -11.277109     6A    -11.234340
       7A    -11.232973     8A     -1.257083     9A     -1.225553
      10A     -1.053445    11A     -1.025165    12A     -0.854916
      13A     -0.837314    14A     -0.712376    15A     -0.708772
      16A     -0.651639    17A     -0.623219    18A     -0.603438
      19A     -0.576183    20A     -0.556864    21A     -0.497769
      22A     -0.488389    23A     -0.412680    24A     -0.348942
      25A     -0.336699

  @DF-RHF Final Energy:  -301.81503947951671

   => Energetics <=

    Nuclear Repulsion Energy =            272.8022539705694385
    One-Electron Energy =                -948.7214515979176213
    Two-Electron Energy =                 374.1041581478315265
    Total Energy =                       -301.8150394795167131
  Basis Set: (AUG-CC-PVTZ AUX)
    Blend: AUG-CC-PVTZ-RI
    Molecular point group: c1

    Geometry (in Angstrom), charge = 0, multiplicity = 1:

       Center              X                  Y                   Z               Mass
    ------------   -----------------  -----------------  -----------------  -----------------
         N            2.359861734186     0.001797467353    -0.074848287803    14.003074004430
         N           -1.869743265814     0.001824467353     0.017633712197    14.003074004430
         C            0.966981734186     0.001792467353     0.003459712197    12.000000000000
         C            0.236631734186     1.197372467353    -0.003169287803    12.000000000000
         C            0.236613734186    -1.193762532647    -0.003194287803    12.000000000000
         C           -1.153709265814     1.141435467353     0.009703712197    12.000000000000
         C           -1.153751265814    -1.137764532647     0.009748712197    12.000000000000
         H            0.746127734186     2.158712467353    -0.009818287803     1.007825032230
         H            0.746064734186    -2.155128532647    -0.009836287803     1.007825032230
         H           -1.732722265814     2.063790467353     0.012258712197     1.007825032230
         H           -1.839100665814    -2.229504432647     0.012501912197     1.007825032230
         H            2.797905734186    -0.834023532647     0.296614712197     1.007825032230
         H            2.797845734186     0.837794467353     0.296197712197     1.007825032230

  Basis Set: AUG-CC-PVTZ
    Blend: AUG-CC-PVTZ
  Basis Set: (AUG-CC-PVTZ AUX)
    Blend: AUG-CC-PVTZ-JKFIT
	 Reference Energy          =    -301.8150394795167131 [Eh]
	 Singles Energy            =      -0.0000000000000000 [Eh]
	 Same-Spin Energy          =      -0.3287188874029432 [Eh]
	 Opposite-Spin Energy      =      -1.0154258690161220 [Eh]
	 Correlation Energy        =      -1.3441447564190652 [Eh]
	 Total Energy              =    -303.1591842359357543 [Eh]

	 ================> DF-SCS-MP2 Energies <==================
	-----------------------------------------------------------
	 SCS Same-Spin Scale       =       0.3333333333333333 [-]
	 SCS Opposite-Spin Scale   =       1.2000000000000000 [-]
	 SCS Same-Spin Energy      =      -0.1095729624676477 [Eh]
	 SCS Opposite-Spin Energy  =      -1.2185110428193464 [Eh]
	 SCS Correlation Energy    =      -1.3280840052869942 [Eh]
	 SCS Total Energy          =    -303.1431234848037093 [Eh]
	-----------------------------------------------------------

  Dipole Moment: [D]
     X:     3.6463      Y:     0.1347      Z:     0.9766     Total:     3.7772

*** Psi4 exiting successfully. Buy a developer a beer!
