                               Psi4 1.3.2 release

  ==> Input File <==

--------------------------------------------------------------------------
#psi4
#
memory 32 gb

molecule  {
0 1
  N        2.3228640    -0.0000190    -0.0807740
  N       -1.9067410     0.0000080     0.0117080
  C        0.9299840    -0.0000240    -0.0024660
  C        0.1892290     1.1891368    -0.0091897
  C        0.1892112    -1.1891596    -0.0092145
  C       -1.1907070     1.1396190     0.0037780
  C       -1.1907490    -1.1395810     0.0038230
  H        0.7091300     2.1568960    -0.0157440
  H        0.7090670    -2.1569450    -0.0157620
  H       -1.7697200     2.0619740     0.0063330
  H       -1.7697630    -2.0619320     0.0061490
  H        2.7609080    -0.8358400     0.2906890
  H        2.7608480     0.8359780     0.2902720
units angstrom
no_reorient  #important for SAPT in psi4, default
symmetry c1  #important for SAPT in psi4, default
}

set PROPERTIES_ORIGIN ["COM"]
properties('MP2/aug-cc-pvtz', properties = ['dipole'])
--------------------------------------------------------------------------

    Molecular point group: c1
  Charge       = 0
  Multiplicity = 1
  Basis Set: AUG-CC-PVTZ
    Blend: AUG-CC-PVTZ
  Basis Set: (AUG-CC-PVTZ AUX)
    Blend: AUG-CC-PVTZ-JKFIT

    Orbital Energies [Eh]
    ---------------------

    Doubly Occupied:

       1A    -15.586427     2A    -15.550268     3A    -11.303353
       4A    -11.272991     5A    -11.272975     6A    -11.231602
       7A    -11.231586     8A     -1.256379     9A     -1.224587
      10A     -1.052651    11A     -1.029513    12A     -0.855818
      13A     -0.844596    14A     -0.719434    15A     -0.711175
      16A     -0.650294    17A     -0.623882    18A     -0.609340
      19A     -0.589726    20A     -0.556539    21A     -0.506962
      22A     -0.487346    23A     -0.414022    24A     -0.349599
      25A     -0.334910

  @DF-RHF Final Energy:  -301.83690893876201

   => Energetics <=

    Nuclear Repulsion Energy =            274.0001744526321659
    One-Electron Energy =                -951.1422159288352987
    Two-Electron Energy =                 375.3051325374410681
    Total Energy =                       -301.8369089387620079
  Basis Set: (AUG-CC-PVTZ AUX)
    Blend: AUG-CC-PVTZ-RI
    Molecular point group: c1

    Geometry (in Angstrom), charge = 0, multiplicity = 1:

       Center              X                  Y                   Z               Mass
    ------------   -----------------  -----------------  -----------------  -----------------
         N            2.361377368703    -0.000017643227    -0.074819570590    14.003074004430
         N           -1.868227631297     0.000009356773     0.017662429410    14.003074004430
         C            0.968497368703    -0.000022643227     0.003488429410    12.000000000000
         C            0.227742368703     1.189138156773    -0.003235270590    12.000000000000
         C            0.227724568703    -1.189158243227    -0.003260070590    12.000000000000
         C           -1.152193631297     1.139620356773     0.009732429410    12.000000000000
         C           -1.152235631297    -1.139579643227     0.009777429410    12.000000000000
         H            0.747643368703     2.156897356773    -0.009789570590     1.007825032230
         H            0.747580368703    -2.156943643227    -0.009807570590     1.007825032230
         H           -1.731206631297     2.061975356773     0.012287429410     1.007825032230
         H           -1.731249631297    -2.061930643227     0.012103429410     1.007825032230
         H            2.799421368703    -0.835838643227     0.296643429410     1.007825032230
         H            2.799361368703     0.835979356773     0.296226429410     1.007825032230

  Basis Set: AUG-CC-PVTZ
    Blend: AUG-CC-PVTZ
  Basis Set: (AUG-CC-PVTZ AUX)
    Blend: AUG-CC-PVTZ-JKFIT
	 Reference Energy          =    -301.8369089387620079 [Eh]
	 Singles Energy            =      -0.0000000000000000 [Eh]
	 Same-Spin Energy          =      -0.3281937530139648 [Eh]
	 Opposite-Spin Energy      =      -1.0131489283519604 [Eh]
	 Correlation Energy        =      -1.3413426813659250 [Eh]
	 Total Energy              =    -303.1782516201279236 [Eh]

	 ================> DF-SCS-MP2 Energies <==================
	-----------------------------------------------------------
	 SCS Same-Spin Scale       =       0.3333333333333333 [-]
	 SCS Opposite-Spin Scale   =       1.2000000000000000 [-]
	 SCS Same-Spin Energy      =      -0.1093979176713216 [Eh]
	 SCS Opposite-Spin Energy  =      -1.2157787140223524 [Eh]
	 SCS Correlation Energy    =      -1.3251766316936739 [Eh]
	 SCS Total Energy          =    -303.1620855704557016 [Eh]
	-----------------------------------------------------------

  Dipole Moment: [D]
     X:     3.6133      Y:     0.0002      Z:     0.9773     Total:     3.7432

*** Psi4 exiting successfully. Buy a developer a beer!
