                               Psi4 1.3.2 release

  ==> Input File <==

--------------------------------------------------------------------------
#psi4
#
memory 32 gb

molecule  {
0 1
  N        2.3211185    -0.0729740    -0.0777658
  N       -1.9067410     0.0000080     0.0117080
  C        0.9299840    -0.0000240    -0.0024660
  C        0.1381974     1.1558039    -0.0040554
  C        0.1996160    -1.1955790    -0.0091200
  C       -1.1907070     1.1396190     0.0037780
  C       -1.1907490    -1.1395810     0.0038230
  H        0.7091300     2.1568960    -0.0157440
  H        0.7090670    -2.1569450    -0.0157620
  H       -1.7697200     2.0619740     0.0063330
  H       -1.7697630    -2.0619320     0.0061490
  H        2.7609080    -0.8358400     0.2906890
  H        2.7608480     0.8359780     0.2902720
units angstrom
no_reorient  #important for SAPT in psi4, default
symmetry c1  #important for SAPT in psi4, default
}

set PROPERTIES_ORIGIN ["COM"]
properties('MP2/aug-cc-pvtz', properties = ['dipole'])
--------------------------------------------------------------------------

    Molecular point group: c1
  Charge       = 0
  Multiplicity = 1
  Basis Set: AUG-CC-PVTZ
    Blend: AUG-CC-PVTZ
  Basis Set: (AUG-CC-PVTZ AUX)
    Blend: AUG-CC-PVTZ-JKFIT

    Orbital Energies [Eh]
    ---------------------

    Doubly Occupied:

       1A    -15.588541     2A    -15.548919     3A    -11.304766
       4A    -11.272592     5A    -11.266290     6A    -11.233702
       7A    -11.229704     8A     -1.258899     9A     -1.226605
      10A     -1.056181    11A     -1.032948    12A     -0.855618
      13A     -0.847899    14A     -0.731086    15A     -0.704215
      16A     -0.647824    17A     -0.631644    18A     -0.604125
      19A     -0.585358    20A     -0.559377    21A     -0.498077
      22A     -0.489085    23A     -0.413378    24A     -0.354714
      25A     -0.334192

  @DF-RHF Final Energy:  -301.82179045970599

   => Energetics <=

    Nuclear Repulsion Energy =            274.7013017176641938
    One-Electron Energy =                -952.4947072634450933
    Two-Electron Energy =                 375.9716150860748485
    Total Energy =                       -301.8217904597059942
  Basis Set: (AUG-CC-PVTZ AUX)
    Blend: AUG-CC-PVTZ-RI
    Molecular point group: c1

    Geometry (in Angstrom), charge = 0, multiplicity = 1:

       Center              X                  Y                   Z               Mass
    ------------   -----------------  -----------------  -----------------  -----------------
         N            2.365075219060    -0.057038858028    -0.072926375297    14.003074004430
         N           -1.862784280940     0.015943141972     0.016547424703    14.003074004430
         C            0.973940719060     0.015911141972     0.002373424703    12.000000000000
         C            0.182154119060     1.171739041972     0.000784024703    12.000000000000
         C            0.243572719060    -1.179643858028    -0.004280575297    12.000000000000
         C           -1.146750280940     1.155554141972     0.008617424703    12.000000000000
         C           -1.146792280940    -1.123645858028     0.008662424703    12.000000000000
         H            0.753086719060     2.172831141972    -0.010904575297     1.007825032230
         H            0.753023719060    -2.141009858028    -0.010922575297     1.007825032230
         H           -1.725763280940     2.077909141972     0.011172424703     1.007825032230
         H           -1.725806280940    -2.045996858028     0.010988424703     1.007825032230
         H            2.804864719060    -0.819904858028     0.295528424703     1.007825032230
         H            2.804804719060     0.851913141972     0.295111424703     1.007825032230

  Basis Set: AUG-CC-PVTZ
    Blend: AUG-CC-PVTZ
  Basis Set: (AUG-CC-PVTZ AUX)
    Blend: AUG-CC-PVTZ-JKFIT
	 Reference Energy          =    -301.8217904597059942 [Eh]
	 Singles Energy            =      -0.0000000000000000 [Eh]
	 Same-Spin Energy          =      -0.3285684134599983 [Eh]
	 Opposite-Spin Energy      =      -1.0138655264027625 [Eh]
	 Correlation Energy        =      -1.3424339398627607 [Eh]
	 Total Energy              =    -303.1642243995687522 [Eh]

	 ================> DF-SCS-MP2 Energies <==================
	-----------------------------------------------------------
	 SCS Same-Spin Scale       =       0.3333333333333333 [-]
	 SCS Opposite-Spin Scale   =       1.2000000000000000 [-]
	 SCS Same-Spin Energy      =      -0.1095228044866661 [Eh]
	 SCS Opposite-Spin Energy  =      -1.2166386316833149 [Eh]
	 SCS Correlation Energy    =      -1.3261614361699809 [Eh]
	 SCS Total Energy          =    -303.1479518958759627 [Eh]
	-----------------------------------------------------------

  Dipole Moment: [D]
     X:     3.6293      Y:     0.0219      Z:     0.9698     Total:     3.7567

*** Psi4 exiting successfully. Buy a developer a beer!
