                               Psi4 1.3.2 release

  ==> Input File <==

--------------------------------------------------------------------------
#psi4
#
memory 32 gb

molecule  {
0 1
  N        2.3228640    -0.0000190    -0.0807740
  N       -1.9067410     0.0000080     0.0117080
  C        0.9299840    -0.0000240    -0.0024660
  C        0.1996340     1.1955560    -0.0090950
  C        0.1996160    -1.1955790    -0.0091200
  C       -1.1513738     1.1139340     0.0033441
  C       -1.1514165    -1.1138975     0.0033881
  H        0.7091300     2.1568960    -0.0157440
  H        0.7090670    -2.1569450    -0.0157620
  H       -1.7697200     2.0619740     0.0063330
  H       -1.7697630    -2.0619320     0.0061490
  H        2.7609080    -0.8358400     0.2906890
  H        2.7608480     0.8359780     0.2902720
units angstrom
no_reorient  #important for SAPT in psi4, default
symmetry c1  #important for SAPT in psi4, default
}

set PROPERTIES_ORIGIN ["COM"]
properties('MP2/aug-cc-pvtz', properties = ['dipole'])
--------------------------------------------------------------------------

    Molecular point group: c1
  Charge       = 0
  Multiplicity = 1
  Basis Set: AUG-CC-PVTZ
    Blend: AUG-CC-PVTZ
  Basis Set: (AUG-CC-PVTZ AUX)
    Blend: AUG-CC-PVTZ-JKFIT

    Orbital Energies [Eh]
    ---------------------

    Doubly Occupied:

       1A    -15.587877     2A    -15.550300     3A    -11.305856
       4A    -11.272721     5A    -11.272709     6A    -11.227812
       7A    -11.227795     8A     -1.261140     9A     -1.227029
      10A     -1.059046    11A     -1.034746    12A     -0.851305
      13A     -0.847236    14A     -0.716560    15A     -0.714615
      16A     -0.653013    17A     -0.625298    18A     -0.599395
      19A     -0.590008    20A     -0.560549    21A     -0.493181
      22A     -0.489117    23A     -0.423222    24A     -0.356834
      25A     -0.336104

  @DF-RHF Final Energy:  -301.83149245193295

   => Energetics <=

    Nuclear Repulsion Energy =            275.2080683359378668
    One-Electron Energy =                -953.5121873278663998
    Two-Electron Energy =                 376.4726265399956446
    Total Energy =                       -301.8314924519329452
  Basis Set: (AUG-CC-PVTZ AUX)
    Blend: AUG-CC-PVTZ-RI
    Molecular point group: c1

    Geometry (in Angstrom), charge = 0, multiplicity = 1:

       Center              X                  Y                   Z               Mass
    ------------   -----------------  -----------------  -----------------  -----------------
         N            2.348685537994    -0.000017426328    -0.074732862122    14.003074004430
         N           -1.880919462006     0.000009573672     0.017749137878    14.003074004430
         C            0.955805537994    -0.000022426328     0.003575137878    12.000000000000
         C            0.225455537994     1.195557573672    -0.003053862122    12.000000000000
         C            0.225437537994    -1.195577426328    -0.003078862122    12.000000000000
         C           -1.125552262006     1.113935573672     0.009385237878    12.000000000000
         C           -1.125594962006    -1.113895926328     0.009429237878    12.000000000000
         H            0.734951537994     2.156897573672    -0.009702862122     1.007825032230
         H            0.734888537994    -2.156943426328    -0.009720862122     1.007825032230
         H           -1.743898462006     2.061975573672     0.012374137878     1.007825032230
         H           -1.743941462006    -2.061930426328     0.012190137878     1.007825032230
         H            2.786729537994    -0.835838426328     0.296730137878     1.007825032230
         H            2.786669537994     0.835979573672     0.296313137878     1.007825032230

  Basis Set: AUG-CC-PVTZ
    Blend: AUG-CC-PVTZ
  Basis Set: (AUG-CC-PVTZ AUX)
    Blend: AUG-CC-PVTZ-JKFIT
	 Reference Energy          =    -301.8314924519329452 [Eh]
	 Singles Energy            =      -0.0000000000000000 [Eh]
	 Same-Spin Energy          =      -0.3280920364522042 [Eh]
	 Opposite-Spin Energy      =      -1.0129566202063982 [Eh]
	 Correlation Energy        =      -1.3410486566586024 [Eh]
	 Total Energy              =    -303.1725411085915312 [Eh]

	 ================> DF-SCS-MP2 Energies <==================
	-----------------------------------------------------------
	 SCS Same-Spin Scale       =       0.3333333333333333 [-]
	 SCS Opposite-Spin Scale   =       1.2000000000000000 [-]
	 SCS Same-Spin Energy      =      -0.1093640121507347 [Eh]
	 SCS Opposite-Spin Energy  =      -1.2155479442476778 [Eh]
	 SCS Correlation Energy    =      -1.3249119563984124 [Eh]
	 SCS Total Energy          =    -303.1564044083313547 [Eh]
	-----------------------------------------------------------

  Dipole Moment: [D]
     X:     3.7510      Y:     0.0002      Z:     0.9749     Total:     3.8756

*** Psi4 exiting successfully. Buy a developer a beer!
