                               Psi4 1.3.2 release

  ==> Input File <==

--------------------------------------------------------------------------
#psi4
#
memory 32 gb

molecule  {
0 1
  N        2.3207922    -0.0729739    -0.0835692
  N       -1.9067410     0.0000080     0.0117080
  C        0.9299840    -0.0000240    -0.0024660
  C        0.1996340     1.1955560    -0.0090950
  C        0.2630531    -1.2320550    -0.0141422
  C       -1.1907070     1.1396190     0.0037780
  C       -1.1907490    -1.1395810     0.0038230
  H        0.7091300     2.1568960    -0.0157440
  H        0.7090670    -2.1569450    -0.0157620
  H       -1.7697200     2.0619740     0.0063330
  H       -1.7697630    -2.0619320     0.0061490
  H        2.7609080    -0.8358400     0.2906890
  H        2.7608480     0.8359780     0.2902720
units angstrom
no_reorient  #important for SAPT in psi4, default
symmetry c1  #important for SAPT in psi4, default
}

set PROPERTIES_ORIGIN ["COM"]
properties('MP2/aug-cc-pvtz', properties = ['dipole'])
--------------------------------------------------------------------------

    Molecular point group: c1
  Charge       = 0
  Multiplicity = 1
  Basis Set: AUG-CC-PVTZ
    Blend: AUG-CC-PVTZ
  Basis Set: (AUG-CC-PVTZ AUX)
    Blend: AUG-CC-PVTZ-JKFIT

    Orbital Energies [Eh]
    ---------------------

    Doubly Occupied:

       1A    -15.581972     2A    -15.553881     3A    -11.303186
       4A    -11.283045     5A    -11.277597     6A    -11.234525
       7A    -11.230860     8A     -1.254245     9A     -1.224271
      10A     -1.050065    11A     -1.022678    12A     -0.863898
      13A     -0.838705    14A     -0.725575    15A     -0.697670
      16A     -0.669019    17A     -0.626317    18A     -0.599101
      19A     -0.585319    20A     -0.552474    21A     -0.518028
      22A     -0.485692    23A     -0.413346    24A     -0.343136
      25A     -0.334440

  @DF-RHF Final Energy:  -301.82092201873257

   => Energetics <=

    Nuclear Repulsion Energy =            272.8580703390573490
    One-Electron Energy =                -948.8198968014881984
    Two-Electron Energy =                 374.1409044436982754
    Total Energy =                       -301.8209220187325741
  Basis Set: (AUG-CC-PVTZ AUX)
    Blend: AUG-CC-PVTZ-RI
    Molecular point group: c1

    Geometry (in Angstrom), charge = 0, multiplicity = 1:

       Center              X                  Y                   Z               Mass
    ------------   -----------------  -----------------  -----------------  -----------------
         N            2.348865176520    -0.057456762337    -0.076581977473    14.003074004430
         N           -1.878668023480     0.015525137663     0.018695222527    14.003074004430
         C            0.958056976520     0.015493137663     0.004521222527    12.000000000000
         C            0.227706976520     1.211073137663    -0.002107777473    12.000000000000
         C            0.291126076520    -1.216537862337    -0.007154977473    12.000000000000
         C           -1.162634023480     1.155136137663     0.010765222527    12.000000000000
         C           -1.162676023480    -1.124063862337     0.010810222527    12.000000000000
         H            0.737202976520     2.172413137663    -0.008756777473     1.007825032230
         H            0.737139976520    -2.141427862337    -0.008774777473     1.007825032230
         H           -1.741647023480     2.077491137663     0.013320222527     1.007825032230
         H           -1.741690023480    -2.046414862337     0.013136222527     1.007825032230
         H            2.788980976520    -0.820322862337     0.297676222527     1.007825032230
         H            2.788920976520     0.851495137663     0.297259222527     1.007825032230

  Basis Set: AUG-CC-PVTZ
    Blend: AUG-CC-PVTZ
  Basis Set: (AUG-CC-PVTZ AUX)
    Blend: AUG-CC-PVTZ-JKFIT
	 Reference Energy          =    -301.8209220187325741 [Eh]
	 Singles Energy            =      -0.0000000000000000 [Eh]
	 Same-Spin Energy          =      -0.3282000416148870 [Eh]
	 Opposite-Spin Energy      =      -1.0141059263499899 [Eh]
	 Correlation Energy        =      -1.3423059679648768 [Eh]
	 Total Energy              =    -303.1632279866974500 [Eh]

	 ================> DF-SCS-MP2 Energies <==================
	-----------------------------------------------------------
	 SCS Same-Spin Scale       =       0.3333333333333333 [-]
	 SCS Opposite-Spin Scale   =       1.2000000000000000 [-]
	 SCS Same-Spin Energy      =      -0.1094000138716290 [Eh]
	 SCS Opposite-Spin Energy  =      -1.2169271116199878 [Eh]
	 SCS Correlation Energy    =      -1.3263271254916167 [Eh]
	 SCS Total Energy          =    -303.1472491442241903 [Eh]
	-----------------------------------------------------------

  Dipole Moment: [D]
     X:     3.4967      Y:     0.0455      Z:     0.9830     Total:     3.6325

*** Psi4 exiting successfully. Buy a developer a beer!
