                               Psi4 1.3.2 release

  ==> Input File <==

--------------------------------------------------------------------------
#psi4
#
memory 32 gb

molecule  {
0 1
  N        2.3228640    -0.0000190    -0.0807740
  N       -1.9067410     0.0000080     0.0117080
  C        0.9299840    -0.0000240    -0.0024660
  C        0.1996340     1.1955560    -0.0090950
  C        0.1996160    -1.1955790    -0.0091200
  C       -1.1907070     1.1396190     0.0037780
  C       -1.1907490    -1.1395810     0.0038230
  H        0.7091300     2.1568960    -0.0157440
  H        0.7090670    -2.1569450    -0.0157620
  H       -1.7697200     2.0619740     0.0063330
  H       -1.7697630    -2.0619320     0.0061490
  H        2.8472960    -1.0006747     0.3639463
  H        2.7608480     0.8359780     0.2902720
units angstrom
no_reorient  #important for SAPT in psi4, default
symmetry c1  #important for SAPT in psi4, default
}

set PROPERTIES_ORIGIN ["COM"]
properties('MP2/aug-cc-pvtz', properties = ['dipole'])
--------------------------------------------------------------------------

    Molecular point group: c1
  Charge       = 0
  Multiplicity = 1
  Basis Set: AUG-CC-PVTZ
    Blend: AUG-CC-PVTZ
  Basis Set: (AUG-CC-PVTZ AUX)
    Blend: AUG-CC-PVTZ-JKFIT

    Orbital Energies [Eh]
    ---------------------

    Doubly Occupied:

       1A    -15.602065     2A    -15.550762     3A    -11.303187
       4A    -11.274804     5A    -11.274339     6A    -11.232082
       7A    -11.231174     8A     -1.251460     9A     -1.211794
      10A     -1.044148    11A     -1.027392    12A     -0.856273
      13A     -0.836729    14A     -0.716359    15A     -0.686809
      16A     -0.653592    17A     -0.611290    18A     -0.594693
      19A     -0.587029    20A     -0.554456    21A     -0.508786
      22A     -0.484686    23A     -0.413792    24A     -0.347233
      25A     -0.333597

  @DF-RHF Final Energy:  -301.80805077884969

   => Energetics <=

    Nuclear Repulsion Energy =            272.7911529925544301
    One-Electron Energy =                -948.8213511011066430
    Two-Electron Energy =                 374.2221473297025227
    Total Energy =                       -301.8080507788496902
  Basis Set: (AUG-CC-PVTZ AUX)
    Blend: AUG-CC-PVTZ-RI
    Molecular point group: c1

    Geometry (in Angstrom), charge = 0, multiplicity = 1:

       Center              X                  Y                   Z               Mass
    ------------   -----------------  -----------------  -----------------  -----------------
         N            2.357796608522     0.001748666869    -0.075628698010    14.003074004430
         N           -1.871808391478     0.001775666869     0.016853301990    14.003074004430
         C            0.964916608522     0.001743666869     0.002679301990    12.000000000000
         C            0.234566608522     1.197323666869    -0.003949698010    12.000000000000
         C            0.234548608522    -1.193811333131    -0.003974698010    12.000000000000
         C           -1.155774391478     1.141386666869     0.008923301990    12.000000000000
         C           -1.155816391478    -1.137813333131     0.008968301990    12.000000000000
         H            0.744062608522     2.158663666869    -0.010598698010     1.007825032230
         H            0.743999608522    -2.155177333131    -0.010616698010     1.007825032230
         H           -1.734787391478     2.063741666869     0.011478301990     1.007825032230
         H           -1.734830391478    -2.060164333131     0.011294301990     1.007825032230
         H            2.882228608522    -0.998907033131     0.369091601990     1.007825032230
         H            2.795780608522     0.837745666869     0.295417301990     1.007825032230

  Basis Set: AUG-CC-PVTZ
    Blend: AUG-CC-PVTZ
  Basis Set: (AUG-CC-PVTZ AUX)
    Blend: AUG-CC-PVTZ-JKFIT
	 Reference Energy          =    -301.8080507788496902 [Eh]
	 Singles Energy            =      -0.0000000000000000 [Eh]
	 Same-Spin Energy          =      -0.3293169916181111 [Eh]
	 Opposite-Spin Energy      =      -1.0170399480428687 [Eh]
	 Correlation Energy        =      -1.3463569396609798 [Eh]
	 Total Energy              =    -303.1544077185106971 [Eh]

	 ================> DF-SCS-MP2 Energies <==================
	-----------------------------------------------------------
	 SCS Same-Spin Scale       =       0.3333333333333333 [-]
	 SCS Opposite-Spin Scale   =       1.2000000000000000 [-]
	 SCS Same-Spin Energy      =      -0.1097723305393704 [Eh]
	 SCS Opposite-Spin Energy  =      -1.2204479376514423 [Eh]
	 SCS Correlation Energy    =      -1.3302202681908126 [Eh]
	 SCS Total Energy          =    -303.1382710470405186 [Eh]
	-----------------------------------------------------------

  Dipole Moment: [D]
     X:     3.6335      Y:    -0.0943      Z:     1.0081     Total:     3.7719

*** Psi4 exiting successfully. Buy a developer a beer!
