                               Psi4 1.3.2 release

  ==> Input File <==

--------------------------------------------------------------------------
#psi4
#
memory 32 gb

molecule  {
0 1
  N        2.3228640    -0.0000190    -0.0807740
  N       -1.9067410     0.0000080     0.0117080
  C        0.9299840    -0.0000240    -0.0024660
  C        0.1996340     1.1955560    -0.0090950
  C        0.1996160    -1.1955790    -0.0091200
  C       -1.0843057     1.3089630     0.0025996
  C       -1.1907490    -1.1395810     0.0038230
  H        0.7091300     2.1568960    -0.0157440
  H        0.7090670    -2.1569450    -0.0157620
  H       -1.7697200     2.0619740     0.0063330
  H       -1.7697630    -2.0619320     0.0061490
  H        2.7609080    -0.8358400     0.2906890
  H        2.7608480     0.8359780     0.2902720
units angstrom
no_reorient  #important for SAPT in psi4, default
symmetry c1  #important for SAPT in psi4, default
}

set PROPERTIES_ORIGIN ["COM"]
properties('MP2/aug-cc-pvtz', properties = ['dipole'])
--------------------------------------------------------------------------

    Molecular point group: c1
  Charge       = 0
  Multiplicity = 1
  Basis Set: AUG-CC-PVTZ
    Blend: AUG-CC-PVTZ
  Basis Set: (AUG-CC-PVTZ AUX)
    Blend: AUG-CC-PVTZ-JKFIT

    Orbital Energies [Eh]
    ---------------------

    Doubly Occupied:

       1A    -15.589117     2A    -15.554765     3A    -11.308088
       4A    -11.270610     5A    -11.270591     6A    -11.231623
       7A    -11.228429     8A     -1.248342     9A     -1.194185
      10A     -1.062753    11A     -1.027477    12A     -0.862735
      13A     -0.837479    14A     -0.727405    15A     -0.710046
      16A     -0.653627    17A     -0.628921    18A     -0.603720
      19A     -0.597207    20A     -0.553022    21A     -0.500438
      22A     -0.472669    23A     -0.398961    24A     -0.372715
      25A     -0.318695

  @DF-RHF Final Energy:  -301.79201348082995

   => Energetics <=

    Nuclear Repulsion Energy =            272.1844124657335442
    One-Electron Energy =                -947.5056131836255418
    Two-Electron Energy =                 373.5291872370620467
    Total Energy =                       -301.7920134808299508
  Basis Set: (AUG-CC-PVTZ AUX)
    Blend: AUG-CC-PVTZ-RI
    Molecular point group: c1

    Geometry (in Angstrom), charge = 0, multiplicity = 1:

       Center              X                  Y                   Z               Mass
    ------------   -----------------  -----------------  -----------------  -----------------
         N            2.345146822031    -0.021623795909    -0.074693361031    14.003074004430
         N           -1.884458177969    -0.021596795909     0.017788638969    14.003074004430
         C            0.952266822031    -0.021628795909     0.003614638969    12.000000000000
         C            0.221916822031     1.173951204091    -0.003014361031    12.000000000000
         C            0.221898822031    -1.217183795909    -0.003039361031    12.000000000000
         C           -1.062022877969     1.287358204091     0.008680238969    12.000000000000
         C           -1.168466177969    -1.161185795909     0.009903638969    12.000000000000
         H            0.731412822031     2.135291204091    -0.009663361031     1.007825032230
         H            0.731349822031    -2.178549795909    -0.009681361031     1.007825032230
         H           -1.747437177969     2.040369204091     0.012413638969     1.007825032230
         H           -1.747480177969    -2.083536795909     0.012229638969     1.007825032230
         H            2.783190822031    -0.857444795909     0.296769638969     1.007825032230
         H            2.783130822031     0.814373204091     0.296352638969     1.007825032230

  Basis Set: AUG-CC-PVTZ
    Blend: AUG-CC-PVTZ
  Basis Set: (AUG-CC-PVTZ AUX)
    Blend: AUG-CC-PVTZ-JKFIT
	 Reference Energy          =    -301.7920134808299508 [Eh]
	 Singles Energy            =      -0.0000000000000000 [Eh]
	 Same-Spin Energy          =      -0.3290832900297699 [Eh]
	 Opposite-Spin Energy      =      -1.0190195376657529 [Eh]
	 Correlation Energy        =      -1.3481028276955229 [Eh]
	 Total Energy              =    -303.1401163085254780 [Eh]

	 ================> DF-SCS-MP2 Energies <==================
	-----------------------------------------------------------
	 SCS Same-Spin Scale       =       0.3333333333333333 [-]
	 SCS Opposite-Spin Scale   =       1.2000000000000000 [-]
	 SCS Same-Spin Energy      =      -0.1096944300099233 [Eh]
	 SCS Opposite-Spin Energy  =      -1.2228234451989035 [Eh]
	 SCS Correlation Energy    =      -1.3325178752088269 [Eh]
	 SCS Total Energy          =    -303.1245313560388013 [Eh]
	-----------------------------------------------------------

  Dipole Moment: [D]
     X:     3.7055      Y:     0.1413      Z:     0.9755     Total:     3.8343

*** Psi4 exiting successfully. Buy a developer a beer!
