                               Psi4 1.3.2 release

  ==> Input File <==

--------------------------------------------------------------------------
#psi4
#
memory 32 gb

molecule  {
0 1
  N        2.3228640    -0.0000190    -0.0807740
  N       -1.9067410     0.0000080     0.0117080
  C        0.9299840    -0.0000240    -0.0024660
  C        0.1996340     1.1955560    -0.0090950
  C        0.1996160    -1.1955790    -0.0091200
  C       -1.2107038     1.1519427     0.0039986
  C       -1.2107454    -1.1519040     0.0040441
  H        0.7091300     2.1568960    -0.0157440
  H        0.7090670    -2.1569450    -0.0157620
  H       -1.7697200     2.0619740     0.0063330
  H       -1.7697630    -2.0619320     0.0061490
  H        2.7609080    -0.8358400     0.2906890
  H        2.7608480     0.8359780     0.2902720
units angstrom
no_reorient  #important for SAPT in psi4, default
symmetry c1  #important for SAPT in psi4, default
}

set PROPERTIES_ORIGIN ["COM"]
properties('MP2/aug-cc-pvtz', properties = ['dipole'])
--------------------------------------------------------------------------

    Molecular point group: c1
  Charge       = 0
  Multiplicity = 1
  Basis Set: AUG-CC-PVTZ
    Blend: AUG-CC-PVTZ
  Basis Set: (AUG-CC-PVTZ AUX)
    Blend: AUG-CC-PVTZ-JKFIT

    Orbital Energies [Eh]
    ---------------------

    Doubly Occupied:

       1A    -15.584021     2A    -15.551680     3A    -11.301836
       4A    -11.276035     5A    -11.276019     6A    -11.233862
       7A    -11.233845     8A     -1.253118     9A     -1.222912
      10A     -1.048354    11A     -1.024793    12A     -0.860669
      13A     -0.840724    14A     -0.720567    15A     -0.708048
      16A     -0.655584    17A     -0.623544    18A     -0.609929
      19A     -0.589927    20A     -0.552982    21A     -0.517476
      22A     -0.485682    23A     -0.409271    24A     -0.342957
      25A     -0.334738

  @DF-RHF Final Energy:  -301.83510429155262

   => Energetics <=

    Nuclear Repulsion Energy =            272.9583347410364809
    One-Electron Energy =                -949.0697339317720207
    Two-Electron Energy =                 374.2762948991828580
    Total Energy =                       -301.8351042915526250
  Basis Set: (AUG-CC-PVTZ AUX)
    Blend: AUG-CC-PVTZ-RI
    Molecular point group: c1

    Geometry (in Angstrom), charge = 0, multiplicity = 1:

       Center              X                  Y                   Z               Mass
    ------------   -----------------  -----------------  -----------------  -----------------
         N            2.363824930818    -0.000017707020    -0.074900065546    14.003074004430
         N           -1.865780069182     0.000009292980     0.017581934454    14.003074004430
         C            0.970944930818    -0.000022707020     0.003407934454    12.000000000000
         C            0.240594930818     1.195557292980    -0.003221065546    12.000000000000
         C            0.240576930818    -1.195577707020    -0.003246065546    12.000000000000
         C           -1.169742869182     1.151943992980     0.009872534454    12.000000000000
         C           -1.169784469182    -1.151902707020     0.009918034454    12.000000000000
         H            0.750090930818     2.156897292980    -0.009870065546     1.007825032230
         H            0.750027930818    -2.156943707020    -0.009888065546     1.007825032230
         H           -1.728759069182     2.061975292980     0.012206934454     1.007825032230
         H           -1.728802069182    -2.061930707020     0.012022934454     1.007825032230
         H            2.801868930818    -0.835838707020     0.296562934454     1.007825032230
         H            2.801808930818     0.835979292980     0.296145934454     1.007825032230

  Basis Set: AUG-CC-PVTZ
    Blend: AUG-CC-PVTZ
  Basis Set: (AUG-CC-PVTZ AUX)
    Blend: AUG-CC-PVTZ-JKFIT
	 Reference Energy          =    -301.8351042915526250 [Eh]
	 Singles Energy            =      -0.0000000000000000 [Eh]
	 Same-Spin Energy          =      -0.3282486016142873 [Eh]
	 Opposite-Spin Energy      =      -1.0135472360390256 [Eh]
	 Correlation Energy        =      -1.3417958376533128 [Eh]
	 Total Energy              =    -303.1769001292059329 [Eh]

	 ================> DF-SCS-MP2 Energies <==================
	-----------------------------------------------------------
	 SCS Same-Spin Scale       =       0.3333333333333333 [-]
	 SCS Opposite-Spin Scale   =       1.2000000000000000 [-]
	 SCS Same-Spin Energy      =      -0.1094162005380958 [Eh]
	 SCS Opposite-Spin Energy  =      -1.2162566832468307 [Eh]
	 SCS Correlation Energy    =      -1.3256728837849265 [Eh]
	 SCS Total Energy          =    -303.1607771753375573 [Eh]
	-----------------------------------------------------------

  Dipole Moment: [D]
     X:     3.5200      Y:     0.0002      Z:     0.9777     Total:     3.6532

*** Psi4 exiting successfully. Buy a developer a beer!
