                               Psi4 1.3.2 release

  ==> Input File <==

--------------------------------------------------------------------------
#psi4
#
memory 32 gb

molecule  {
0 1
  N        2.3228640    -0.0000190    -0.0807740
  N       -1.9654013     0.0390461     0.0120807
  C        0.9299840    -0.0000240    -0.0024660
  C        0.1996340     1.1955560    -0.0090950
  C        0.1996160    -1.1955790    -0.0091200
  C       -1.1907070     1.1396190     0.0037780
  C       -1.1907490    -1.1395810     0.0038230
  H        0.7091300     2.1568960    -0.0157440
  H        0.7090670    -2.1569450    -0.0157620
  H       -1.8171970     2.0304067     0.0067668
  H       -1.7697630    -2.0619320     0.0061490
  H        2.7609080    -0.8358400     0.2906890
  H        2.7608480     0.8359780     0.2902720
units angstrom
no_reorient  #important for SAPT in psi4, default
symmetry c1  #important for SAPT in psi4, default
}

set PROPERTIES_ORIGIN ["COM"]
properties('MP2/aug-cc-pvtz', properties = ['dipole'])
--------------------------------------------------------------------------

    Molecular point group: c1
  Charge       = 0
  Multiplicity = 1
  Basis Set: AUG-CC-PVTZ
    Blend: AUG-CC-PVTZ
  Basis Set: (AUG-CC-PVTZ AUX)
    Blend: AUG-CC-PVTZ-JKFIT

    Orbital Energies [Eh]
    ---------------------

    Doubly Occupied:

       1A    -15.587678     2A    -15.558870     3A    -11.306281
       4A    -11.281891     5A    -11.273981     6A    -11.235610
       7A    -11.231653     8A     -1.251040     9A     -1.217325
      10A     -1.054397    11A     -1.024055    12A     -0.854505
      13A     -0.842114    14A     -0.717845    15A     -0.709039
      16A     -0.656553    17A     -0.618751    18A     -0.605749
      19A     -0.588157    20A     -0.553645    21A     -0.502756
      22A     -0.482599    23A     -0.424542    24A     -0.349633
      25A     -0.333821

  @DF-RHF Final Energy:  -301.82875238565487

   => Energetics <=

    Nuclear Repulsion Energy =            272.2611522618055915
    One-Electron Energy =                -947.6548311539913811
    Two-Electron Energy =                 373.5649265065309237
    Total Energy =                       -301.8287523856548660
  Basis Set: (AUG-CC-PVTZ AUX)
    Blend: AUG-CC-PVTZ-RI
    Molecular point group: c1

    Geometry (in Angstrom), charge = 0, multiplicity = 1:

       Center              X                  Y                   Z               Mass
    ------------   -----------------  -----------------  -----------------  -----------------
         N            2.367964662933    -0.005491537208    -0.074903847879    14.003074004430
         N           -1.920300637067     0.033573562792     0.017950852121    14.003074004430
         C            0.975084662933    -0.005496537208     0.003404152121    12.000000000000
         C            0.244734662933     1.190083462792    -0.003224847879    12.000000000000
         C            0.244716662933    -1.201051537208    -0.003249847879    12.000000000000
         C           -1.145606337067     1.134146462792     0.009648152121    12.000000000000
         C           -1.145648337067    -1.145053537208     0.009693152121    12.000000000000
         H            0.754230662933     2.151423462792    -0.009873847879     1.007825032230
         H            0.754167662933    -2.162417537208    -0.009891847879     1.007825032230
         H           -1.772096337067     2.024934162792     0.012636952121     1.007825032230
         H           -1.724662337067    -2.067404537208     0.012019152121     1.007825032230
         H            2.806008662933    -0.841312537208     0.296559152121     1.007825032230
         H            2.805948662933     0.830505462792     0.296142152121     1.007825032230

  Basis Set: AUG-CC-PVTZ
    Blend: AUG-CC-PVTZ
  Basis Set: (AUG-CC-PVTZ AUX)
    Blend: AUG-CC-PVTZ-JKFIT
	 Reference Energy          =    -301.8287523856548660 [Eh]
	 Singles Energy            =      -0.0000000000000000 [Eh]
	 Same-Spin Energy          =      -0.3285188984279651 [Eh]
	 Opposite-Spin Energy      =      -1.0151900236788634 [Eh]
	 Correlation Energy        =      -1.3437089221068286 [Eh]
	 Total Energy              =    -303.1724613077616937 [Eh]

	 ================> DF-SCS-MP2 Energies <==================
	-----------------------------------------------------------
	 SCS Same-Spin Scale       =       0.3333333333333333 [-]
	 SCS Opposite-Spin Scale   =       1.2000000000000000 [-]
	 SCS Same-Spin Energy      =      -0.1095062994759884 [Eh]
	 SCS Opposite-Spin Energy  =      -1.2182280284146361 [Eh]
	 SCS Correlation Energy    =      -1.3277343278906244 [Eh]
	 SCS Total Energy          =    -303.1564867135455188 [Eh]
	-----------------------------------------------------------

  Dipole Moment: [D]
     X:     3.7352      Y:    -0.0909      Z:     0.9750     Total:     3.8614

*** Psi4 exiting successfully. Buy a developer a beer!
