                               Psi4 1.3.2 release

  ==> Input File <==

--------------------------------------------------------------------------
#psi4
#
memory 32 gb

molecule  {
0 1
  N        2.3227837     0.0121456    -0.0812547
  N       -1.9067410     0.0000080     0.0117080
  C        0.9299840    -0.0000240    -0.0024660
  C        0.2100727     1.2018656    -0.0099335
  C        0.1996160    -1.1955790    -0.0091200
  C       -1.1907070     1.1396190     0.0037780
  C       -1.1907490    -1.1395810     0.0038230
  H        0.7091300     2.1568960    -0.0157440
  H        0.7090670    -2.1569450    -0.0157620
  H       -1.7697200     2.0619740     0.0063330
  H       -1.7697630    -2.0619320     0.0061490
  H        2.7609080    -0.8358400     0.2906890
  H        2.7608480     0.8359780     0.2902720
units angstrom
no_reorient  #important for SAPT in psi4, default
symmetry c1  #important for SAPT in psi4, default
}

set PROPERTIES_ORIGIN ["COM"]
properties('MP2/aug-cc-pvtz', properties = ['dipole'])
--------------------------------------------------------------------------

    Molecular point group: c1
  Charge       = 0
  Multiplicity = 1
  Basis Set: AUG-CC-PVTZ
    Blend: AUG-CC-PVTZ
  Basis Set: (AUG-CC-PVTZ AUX)
    Blend: AUG-CC-PVTZ-JKFIT

    Orbital Energies [Eh]
    ---------------------

    Doubly Occupied:

       1A    -15.584683     2A    -15.551509     3A    -11.302975
       4A    -11.276214     5A    -11.275233     6A    -11.232152
       7A    -11.231512     8A     -1.255226     9A     -1.224055
      10A     -1.051160    11A     -1.026896    12A     -0.858584
      13A     -0.841589    14A     -0.718677    15A     -0.709169
      16A     -0.656497    17A     -0.622568    18A     -0.606276
      19A     -0.590464    20A     -0.554798    21A     -0.512197
      22A     -0.486460    23A     -0.414043    24A     -0.346412
      25A     -0.335208

  @DF-RHF Final Energy:  -301.83669225523806

   => Energetics <=

    Nuclear Repulsion Energy =            273.5404322332260563
    One-Electron Energy =                -950.2251351590024342
    Two-Electron Energy =                 374.8480106705383150
    Total Energy =                       -301.8366922552380629
  Basis Set: (AUG-CC-PVTZ AUX)
    Blend: AUG-CC-PVTZ-RI
    Molecular point group: c1

    Geometry (in Angstrom), charge = 0, multiplicity = 1:

       Center              X                  Y                   Z               Mass
    ------------   -----------------  -----------------  -----------------  -----------------
         N            2.357322106046     0.009530832491    -0.075145859114    14.003074004430
         N           -1.872202593954    -0.002606767509     0.017816840886    14.003074004430
         C            0.964522406046    -0.002638767509     0.003642840886    12.000000000000
         C            0.244611106046     1.199250832491    -0.003824659114    12.000000000000
         C            0.234154406046    -1.198193767509    -0.003011159114    12.000000000000
         C           -1.156168593954     1.137004232491     0.009886840886    12.000000000000
         C           -1.156210593954    -1.142195767509     0.009931840886    12.000000000000
         H            0.743668406046     2.154281232491    -0.009635159114     1.007825032230
         H            0.743605406046    -2.159559767509    -0.009653159114     1.007825032230
         H           -1.735181593954     2.059359232491     0.012441840886     1.007825032230
         H           -1.735224593954    -2.064546767509     0.012257840886     1.007825032230
         H            2.795446406046    -0.838454767509     0.296797840886     1.007825032230
         H            2.795386406046     0.833363232491     0.296380840886     1.007825032230

  Basis Set: AUG-CC-PVTZ
    Blend: AUG-CC-PVTZ
  Basis Set: (AUG-CC-PVTZ AUX)
    Blend: AUG-CC-PVTZ-JKFIT
	 Reference Energy          =    -301.8366922552380629 [Eh]
	 Singles Energy            =      -0.0000000000000000 [Eh]
	 Same-Spin Energy          =      -0.3280923128834370 [Eh]
	 Opposite-Spin Energy      =      -1.0131837705156983 [Eh]
	 Correlation Energy        =      -1.3412760833991353 [Eh]
	 Total Energy              =    -303.1779683386371858 [Eh]

	 ================> DF-SCS-MP2 Energies <==================
	-----------------------------------------------------------
	 SCS Same-Spin Scale       =       0.3333333333333333 [-]
	 SCS Opposite-Spin Scale   =       1.2000000000000000 [-]
	 SCS Same-Spin Energy      =      -0.1093641042944790 [Eh]
	 SCS Opposite-Spin Energy  =      -1.2158205246188378 [Eh]
	 SCS Correlation Energy    =      -1.3251846289133169 [Eh]
	 SCS Total Energy          =    -303.1618768841513543 [Eh]
	-----------------------------------------------------------

  Dipole Moment: [D]
     X:     3.5809      Y:    -0.0061      Z:     0.9779     Total:     3.7120

*** Psi4 exiting successfully. Buy a developer a beer!
