                               Psi4 1.4a3.dev225

  ==> Input File <==

--------------------------------------------------------------------------
#psi4
#
memory 32 gb

molecule  {
0 1
  N        2.3220460    -0.0000010    -0.0807810
  N       -1.9068710     0.0000000     0.0099480
  C        0.9306030     0.0000000    -0.0018200
  C        0.1994710     1.1952220    -0.0074850
  C        0.1994710    -1.1952220    -0.0074870
  C       -1.1908010     1.1392150     0.0036550
  C       -1.1908010    -1.1392150     0.0036580
  H        0.7083710     2.1567710    -0.0146740
  H        0.7083720    -2.1567700    -0.0146820
  H       -1.7689000     2.0620960     0.0068010
  H       -1.7689000    -2.0620960     0.0067980
  H        2.7853533    -0.8779581     0.3022406
  H        2.7635810     0.8367080     0.2842220
units angstrom
no_reorient  #important for SAPT in psi4, default
symmetry c1  #important for SAPT in psi4, default
}

set PROPERTIES_ORIGIN ["COM"]
properties('MP2/aug-cc-pvtz', properties = ['dipole'])
--------------------------------------------------------------------------

    Molecular point group: c1
  Charge       = 0
  Multiplicity = 1
  Basis Set: AUG-CC-PVTZ
    Blend: AUG-CC-PVTZ
  Basis Set: (AUG-CC-PVTZ AUX)
    Blend: AUG-CC-PVTZ-JKFIT

    Orbital Energies [Eh]
    ---------------------

    Doubly Occupied:

       1A    -15.590024     2A    -15.550691     3A    -11.303083
       4A    -11.274586     5A    -11.274482     6A    -11.231526
       7A    -11.231326     8A     -1.254024     9A     -1.220685
      10A     -1.049275    11A     -1.027485    12A     -0.857047
      13A     -0.840832    14A     -0.717675    15A     -0.703729
      16A     -0.654055    17A     -0.618698    18A     -0.606508
      19A     -0.589822    20A     -0.555147    21A     -0.510010
      22A     -0.486139    23A     -0.413806    24A     -0.347242
      25A     -0.334292

  @DF-RHF Final Energy:  -301.83372050064378

   => Energetics <=

    Nuclear Repulsion Energy =            273.4785928791367269
    One-Electron Energy =                -950.1402488683862657
    Two-Electron Energy =                 374.8279354886057604
    Total Energy =                       -301.8337205006437785
  Basis Set: (AUG-CC-PVTZ AUX)
    Blend: AUG-CC-PVTZ-RI
    Molecular point group: c1

    Geometry (in Angstrom), charge = 0, multiplicity = 1:

       Center              X                  Y                   Z               Mass
    ------------   -----------------  -----------------  -----------------  -----------------
         N            2.357730706448     0.000441153203    -0.075141033201    14.003074004430
         N           -1.871186293552     0.000442153203     0.015587966799    14.003074004430
         C            0.966287706448     0.000442153203     0.003819966799    12.000000000000
         C            0.235155706448     1.195664153203    -0.001845033201    12.000000000000
         C            0.235155706448    -1.194779846797    -0.001847033201    12.000000000000
         C           -1.155116293552     1.139657153203     0.009294966799    12.000000000000
         C           -1.155116293552    -1.138772846797     0.009297966799    12.000000000000
         H            0.744055706448     2.157213153203    -0.009034033201     1.007825032230
         H            0.744056706448    -2.156327846797    -0.009042033201     1.007825032230
         H           -1.733215293552     2.062538153203     0.012440966799     1.007825032230
         H           -1.733215293552    -2.061653846797     0.012437966799     1.007825032230
         H            2.821038006448    -0.877515946797     0.307880566799     1.007825032230
         H            2.799265706448     0.837150153203     0.289861966799     1.007825032230

  Basis Set: AUG-CC-PVTZ
    Blend: AUG-CC-PVTZ
  Basis Set: (AUG-CC-PVTZ AUX)
    Blend: AUG-CC-PVTZ-JKFIT
	 Reference Energy          =    -301.8337205006437785 [Eh]
	 Singles Energy            =      -0.0000000000000000 [Eh]
	 Same-Spin Energy          =      -0.3284128296903666 [Eh]
	 Opposite-Spin Energy      =      -1.0139753201473916 [Eh]
	 Correlation Energy        =      -1.3423881498377581 [Eh]
	 Total Energy              =    -303.1761086504815239 [Eh]

	 ================> DF-SCS-MP2 Energies <==================
	-----------------------------------------------------------
	 SCS Same-Spin Scale       =       0.3333333333333333 [-]
	 SCS Opposite-Spin Scale   =       1.2000000000000000 [-]
	 SCS Same-Spin Energy      =      -0.1094709432301222 [Eh]
	 SCS Opposite-Spin Energy  =      -1.2167703841768698 [Eh]
	 SCS Correlation Energy    =      -1.3262413274069920 [Eh]
	 SCS Total Energy          =    -303.1599618280507684 [Eh]
	-----------------------------------------------------------

  Dipole Moment: [D]
     X:     3.6342      Y:    -0.0257      Z:     0.9723     Total:     3.7621

*** Psi4 exiting successfully. Buy a developer a beer!
