                               Psi4 1.4a3.dev225

  ==> Input File <==

--------------------------------------------------------------------------
#psi4
#
memory 32 gb

molecule  {
0 1
  N        2.3220460    -0.0000010    -0.0807810
  N       -1.9068710     0.0000000     0.0099480
  C        0.9306030     0.0000000    -0.0018200
  C        0.1994710     1.1952220    -0.0074850
  C        0.1994710    -1.1952220    -0.0074870
  C       -1.1908010     1.1392150     0.0036550
  C       -1.1801578    -1.1561476     0.0035645
  H        0.7083710     2.1567710    -0.0146740
  H        0.7083720    -2.1567700    -0.0146820
  H       -1.7689000     2.0620960     0.0068010
  H       -1.7689000    -2.0620960     0.0067980
  H        2.7635820    -0.8367020     0.2842420
  H        2.7635810     0.8367080     0.2842220
units angstrom
no_reorient  #important for SAPT in psi4, default
symmetry c1  #important for SAPT in psi4, default
}

set PROPERTIES_ORIGIN ["COM"]
properties('MP2/aug-cc-pvtz', properties = ['dipole'])
--------------------------------------------------------------------------

    Molecular point group: c1
  Charge       = 0
  Multiplicity = 1
  Basis Set: AUG-CC-PVTZ
    Blend: AUG-CC-PVTZ
  Basis Set: (AUG-CC-PVTZ AUX)
    Blend: AUG-CC-PVTZ-JKFIT

    Orbital Energies [Eh]
    ---------------------

    Doubly Occupied:

       1A    -15.585754     2A    -15.551508     3A    -11.303710
       4A    -11.274332     5A    -11.274191     6A    -11.231521
       7A    -11.231001     8A     -1.253477     9A     -1.221522
      10A     -1.051180    11A     -1.028888    12A     -0.856147
      13A     -0.844044    14A     -0.719518    15A     -0.710242
      16A     -0.654094    17A     -0.621817    18A     -0.608144
      19A     -0.591922    20A     -0.554854    21A     -0.509869
      22A     -0.484865    23A     -0.413803    24A     -0.349174
      25A     -0.333293

  @DF-RHF Final Energy:  -301.83621235294640

   => Energetics <=

    Nuclear Repulsion Energy =            273.5524847754874145
    One-Electron Energy =                -950.2596548997478294
    Two-Electron Energy =                 374.8709577713140106
    Total Energy =                       -301.8362123529464043
  Basis Set: (AUG-CC-PVTZ AUX)
    Blend: AUG-CC-PVTZ-RI
    Molecular point group: c1

    Geometry (in Angstrom), charge = 0, multiplicity = 1:

       Center              X                  Y                   Z               Mass
    ------------   -----------------  -----------------  -----------------  -----------------
         N            2.356606057277     0.002159462039    -0.074936239951    14.003074004430
         N           -1.872310942723     0.002160462039     0.015792760049    14.003074004430
         C            0.965163057277     0.002160462039     0.004024760049    12.000000000000
         C            0.234031057277     1.197382462039    -0.001640239951    12.000000000000
         C            0.234031057277    -1.193061537961    -0.001642239951    12.000000000000
         C           -1.156240942723     1.141375462039     0.009499760049    12.000000000000
         C           -1.145597742723    -1.153987137961     0.009409260049    12.000000000000
         H            0.742931057277     2.158931462039    -0.008829239951     1.007825032230
         H            0.742932057277    -2.154609537961    -0.008837239951     1.007825032230
         H           -1.734339942723     2.064256462039     0.012645760049     1.007825032230
         H           -1.734339942723    -2.059935537961     0.012642760049     1.007825032230
         H            2.798142057277    -0.834541537961     0.290086760049     1.007825032230
         H            2.798141057277     0.838868462039     0.290066760049     1.007825032230

  Basis Set: AUG-CC-PVTZ
    Blend: AUG-CC-PVTZ
  Basis Set: (AUG-CC-PVTZ AUX)
    Blend: AUG-CC-PVTZ-JKFIT
	 Reference Energy          =    -301.8362123529464043 [Eh]
	 Singles Energy            =      -0.0000000000000000 [Eh]
	 Same-Spin Energy          =      -0.3282362159541903 [Eh]
	 Opposite-Spin Energy      =      -1.0135105129419242 [Eh]
	 Correlation Energy        =      -1.3417467288961145 [Eh]
	 Total Energy              =    -303.1779590818425163 [Eh]

	 ================> DF-SCS-MP2 Energies <==================
	-----------------------------------------------------------
	 SCS Same-Spin Scale       =       0.3333333333333333 [-]
	 SCS Opposite-Spin Scale   =       1.2000000000000000 [-]
	 SCS Same-Spin Energy      =      -0.1094120719847301 [Eh]
	 SCS Opposite-Spin Energy  =      -1.2162126155303090 [Eh]
	 SCS Correlation Energy    =      -1.3256246875150390 [Eh]
	 SCS Total Energy          =    -303.1618370404614211 [Eh]
	-----------------------------------------------------------

  Dipole Moment: [D]
     X:     3.6366      Y:    -0.0190      Z:     0.9641     Total:     3.7622

*** Psi4 exiting successfully. Buy a developer a beer!
