                               Psi4 1.3.2 release

  ==> Input File <==

--------------------------------------------------------------------------
#psi4
#
memory 32 gb

molecule  {
0 1
  N        2.3228640    -0.0000190    -0.0807740
  N       -1.9067410     0.0000080     0.0117080
  C        0.9301399     0.0659742    -0.0337508
  C        0.1996340     1.1955560    -0.0090950
  C        0.1996160    -1.1955790    -0.0091200
  C       -1.1907070     1.1396190     0.0037780
  C       -1.1907490    -1.1395810     0.0038230
  H        0.7091300     2.1568960    -0.0157440
  H        0.7090670    -2.1569450    -0.0157620
  H       -1.7697200     2.0619740     0.0063330
  H       -1.7697630    -2.0619320     0.0061490
  H        2.8081009    -0.8149907     0.2781555
  H        2.7608480     0.8359780     0.2902720
units angstrom
no_reorient  #important for SAPT in psi4, default
symmetry c1  #important for SAPT in psi4, default
}

set PROPERTIES_ORIGIN ["COM"]
properties('MP2/aug-cc-pvtz', properties = ['dipole'])
--------------------------------------------------------------------------

    Molecular point group: c1
  Charge       = 0
  Multiplicity = 1
  Basis Set: AUG-CC-PVTZ
    Blend: AUG-CC-PVTZ
  Basis Set: (AUG-CC-PVTZ AUX)
    Blend: AUG-CC-PVTZ-JKFIT

    Orbital Energies [Eh]
    ---------------------

    Doubly Occupied:

       1A    -15.584429     2A    -15.551231     3A    -11.303545
       4A    -11.278176     5A    -11.271186     6A    -11.235774
       7A    -11.226923     8A     -1.255052     9A     -1.223109
      10A     -1.056514    11A     -1.024323    12A     -0.860658
      13A     -0.840106    14A     -0.722550    15A     -0.705956
      16A     -0.655451    17A     -0.627556    18A     -0.603619
      19A     -0.588837    20A     -0.555716    21A     -0.507910
      22A     -0.485123    23A     -0.413831    24A     -0.350666
      25A     -0.332003

  @DF-RHF Final Energy:  -301.83072096238379

   => Energetics <=

    Nuclear Repulsion Energy =            273.6327983096829257
    One-Electron Energy =                -950.4065452163074497
    Two-Electron Energy =                 374.9430259442407305
    Total Energy =                       -301.8307209623837934
  Basis Set: (AUG-CC-PVTZ AUX)
    Blend: AUG-CC-PVTZ-RI
    Molecular point group: c1

    Geometry (in Angstrom), charge = 0, multiplicity = 1:

       Center              X                  Y                   Z               Mass
    ------------   -----------------  -----------------  -----------------  -----------------
         N            2.358196712332    -0.008661573751    -0.070717858021    14.003074004430
         N           -1.871408287668    -0.008634573751     0.021764141979    14.003074004430
         C            0.965472612332     0.057331626249    -0.023694658021    12.000000000000
         C            0.234966712332     1.186913426249     0.000961141979    12.000000000000
         C            0.234948712332    -1.204221573751     0.000936141979    12.000000000000
         C           -1.155374287668     1.130976426249     0.013834141979    12.000000000000
         C           -1.155416287668    -1.148223573751     0.013879141979    12.000000000000
         H            0.744462712332     2.148253426249    -0.005687858021     1.007825032230
         H            0.744399712332    -2.165587573751    -0.005705858021     1.007825032230
         H           -1.734387287668     2.053331426249     0.016389141979     1.007825032230
         H           -1.734430287668    -2.070574573751     0.016205141979     1.007825032230
         H            2.843433612332    -0.823633273751     0.288211641979     1.007825032230
         H            2.796180712332     0.827335426249     0.300328141979     1.007825032230

  Basis Set: AUG-CC-PVTZ
    Blend: AUG-CC-PVTZ
  Basis Set: (AUG-CC-PVTZ AUX)
    Blend: AUG-CC-PVTZ-JKFIT
	 Reference Energy          =    -301.8307209623837934 [Eh]
	 Singles Energy            =      -0.0000000000000000 [Eh]
	 Same-Spin Energy          =      -0.3280596913122462 [Eh]
	 Opposite-Spin Energy      =      -1.0133973818755742 [Eh]
	 Correlation Energy        =      -1.3414570731878204 [Eh]
	 Total Energy              =    -303.1721780355716191 [Eh]

	 ================> DF-SCS-MP2 Energies <==================
	-----------------------------------------------------------
	 SCS Same-Spin Scale       =       0.3333333333333333 [-]
	 SCS Opposite-Spin Scale   =       1.2000000000000000 [-]
	 SCS Same-Spin Energy      =      -0.1093532304374154 [Eh]
	 SCS Opposite-Spin Energy  =      -1.2160768582506889 [Eh]
	 SCS Correlation Energy    =      -1.3254300886881043 [Eh]
	 SCS Total Energy          =    -303.1561510510719017 [Eh]
	-----------------------------------------------------------

  Dipole Moment: [D]
     X:     3.6304      Y:     0.0247      Z:     0.9583     Total:     3.7548

*** Psi4 exiting successfully. Buy a developer a beer!
