                               Psi4 1.3.2 release

  ==> Input File <==

--------------------------------------------------------------------------
#psi4
#
memory 32 gb

molecule  {
0 1
  N        2.3228640    -0.0000190    -0.0807740
  N       -1.9067410     0.0000080     0.0117080
  C        0.9299840    -0.0000240    -0.0024660
  C        0.1996340     1.1955560    -0.0090950
  C        0.1996160    -1.1955790    -0.0091200
  C       -1.2439076     1.0549470     0.0043672
  C       -1.1907490    -1.1395810     0.0038230
  H        0.7091300     2.1568960    -0.0157440
  H        0.7090670    -2.1569450    -0.0157620
  H       -1.7697200     2.0619740     0.0063330
  H       -1.7697630    -2.0619320     0.0061490
  H        2.7609080    -0.8358400     0.2906890
  H        2.7608480     0.8359780     0.2902720
units angstrom
no_reorient  #important for SAPT in psi4, default
symmetry c1  #important for SAPT in psi4, default
}

set PROPERTIES_ORIGIN ["COM"]
properties('MP2/aug-cc-pvtz', properties = ['dipole'])
--------------------------------------------------------------------------

    Molecular point group: c1
  Charge       = 0
  Multiplicity = 1
  Basis Set: AUG-CC-PVTZ
    Blend: AUG-CC-PVTZ
  Basis Set: (AUG-CC-PVTZ AUX)
    Blend: AUG-CC-PVTZ-JKFIT

    Orbital Energies [Eh]
    ---------------------

    Doubly Occupied:

       1A    -15.582862     2A    -15.546696     3A    -11.299796
       4A    -11.277247     5A    -11.275006     6A    -11.234987
       7A    -11.231563     8A     -1.279134     9A     -1.232074
      10A     -1.057363    11A     -1.018569    12A     -0.867593
      13A     -0.832672    14A     -0.716367    15A     -0.712680
      16A     -0.654854    17A     -0.628225    18A     -0.608417
      19A     -0.580112    20A     -0.561026    21A     -0.512126
      22A     -0.497145    23A     -0.408698    24A     -0.351094
      25A     -0.331417

  @DF-RHF Final Energy:  -301.82684396775210

   => Energetics <=

    Nuclear Repulsion Energy =            274.6754437696480409
    One-Electron Energy =                -952.4091264180879080
    Two-Electron Energy =                 375.9068386806877697
    Total Energy =                       -301.8268439677520973
  Basis Set: (AUG-CC-PVTZ AUX)
    Blend: AUG-CC-PVTZ-RI
    Molecular point group: c1

    Geometry (in Angstrom), charge = 0, multiplicity = 1:

       Center              X                  Y                   Z               Mass
    ------------   -----------------  -----------------  -----------------  -----------------
         N            2.365510030013     0.010785471391    -0.074918884703    14.003074004430
         N           -1.864094969987     0.010812471391     0.017563115297    14.003074004430
         C            0.972630030013     0.010780471391     0.003389115297    12.000000000000
         C            0.242280030013     1.206360471391    -0.003239884703    12.000000000000
         C            0.242262030013    -1.184774528609    -0.003264884703    12.000000000000
         C           -1.201261569987     1.065751471391     0.010222315297    12.000000000000
         C           -1.148102969987    -1.128776528609     0.009678115297    12.000000000000
         H            0.751776030013     2.167700471391    -0.009888884703     1.007825032230
         H            0.751713030013    -2.146140528609    -0.009906884703     1.007825032230
         H           -1.727073969987     2.072778471391     0.012188115297     1.007825032230
         H           -1.727116969987    -2.051127528609     0.012004115297     1.007825032230
         H            2.803554030013    -0.825035528609     0.296544115297     1.007825032230
         H            2.803494030013     0.846782471391     0.296127115297     1.007825032230

  Basis Set: AUG-CC-PVTZ
    Blend: AUG-CC-PVTZ
  Basis Set: (AUG-CC-PVTZ AUX)
    Blend: AUG-CC-PVTZ-JKFIT
	 Reference Energy          =    -301.8268439677520973 [Eh]
	 Singles Energy            =      -0.0000000000000000 [Eh]
	 Same-Spin Energy          =      -0.3272553744967350 [Eh]
	 Opposite-Spin Energy      =      -1.0116721032986131 [Eh]
	 Correlation Energy        =      -1.3389274777953482 [Eh]
	 Total Energy              =    -303.1657714455474206 [Eh]

	 ================> DF-SCS-MP2 Energies <==================
	-----------------------------------------------------------
	 SCS Same-Spin Scale       =       0.3333333333333333 [-]
	 SCS Opposite-Spin Scale   =       1.2000000000000000 [-]
	 SCS Same-Spin Energy      =      -0.1090851248322450 [Eh]
	 SCS Opposite-Spin Energy  =      -1.2140065239583357 [Eh]
	 SCS Correlation Energy    =      -1.3230916487905808 [Eh]
	 SCS Total Energy          =    -303.1499356165426775 [Eh]
	-----------------------------------------------------------

  Dipole Moment: [D]
     X:     3.4701      Y:    -0.1299      Z:     0.9775     Total:     3.6075

*** Psi4 exiting successfully. Buy a developer a beer!
