                               Psi4 1.3.2 release

  ==> Input File <==

--------------------------------------------------------------------------
#psi4
#
memory 32 gb

molecule  {
0 1
  N        2.3228640    -0.0000190    -0.0807740
  N       -1.9067410     0.0000080     0.0117080
  C        0.9297447     0.0109806    -0.0076675
  C        0.1996340     1.1955560    -0.0090950
  C        0.1996160    -1.1955790    -0.0091200
  C       -1.1907070     1.1396190     0.0037780
  C       -1.1907490    -1.1395810     0.0038230
  H        0.7091300     2.1568960    -0.0157440
  H        0.7090670    -2.1569450    -0.0157620
  H       -1.7697200     2.0619740     0.0063330
  H       -1.7697630    -2.0619320     0.0061490
  H        2.7688604    -0.8325227     0.2886699
  H        2.7608480     0.8359780     0.2902720
units angstrom
no_reorient  #important for SAPT in psi4, default
symmetry c1  #important for SAPT in psi4, default
}

set PROPERTIES_ORIGIN ["COM"]
properties('MP2/aug-cc-pvtz', properties = ['dipole'])
--------------------------------------------------------------------------

    Molecular point group: c1
  Charge       = 0
  Multiplicity = 1
  Basis Set: AUG-CC-PVTZ
    Blend: AUG-CC-PVTZ
  Basis Set: (AUG-CC-PVTZ AUX)
    Blend: AUG-CC-PVTZ-JKFIT

    Orbital Energies [Eh]
    ---------------------

    Doubly Occupied:

       1A    -15.585110     2A    -15.551051     3A    -11.303207
       4A    -11.275374     5A    -11.274197     6A    -11.232432
       7A    -11.230953     8A     -1.255469     9A     -1.224012
      10A     -1.051866    11A     -1.027624    12A     -0.857691
      13A     -0.842645    14A     -0.719059    15A     -0.709669
      16A     -0.654395    17A     -0.622861    18A     -0.607549
      19A     -0.590216    20A     -0.555365    21A     -0.510493
      22A     -0.486481    23A     -0.414024    24A     -0.347544
      25A     -0.334924

  @DF-RHF Final Energy:  -301.83709474237963

   => Energetics <=

    Nuclear Repulsion Energy =            273.6826791577657900
    One-Electron Energy =                -950.5111258698310621
    Two-Electron Energy =                 374.9913519696855815
    Total Energy =                       -301.8370947423796338
  Basis Set: (AUG-CC-PVTZ AUX)
    Blend: AUG-CC-PVTZ-RI
    Molecular point group: c1

    Geometry (in Angstrom), charge = 0, multiplicity = 1:

       Center              X                  Y                   Z               Mass
    ------------   -----------------  -----------------  -----------------  -----------------
         N            2.358667616099    -0.001457213646    -0.074158428100    14.003074004430
         N           -1.870937383901    -0.001430213646     0.018323571900    14.003074004430
         C            0.965548316099     0.009542386354    -0.001051928100    12.000000000000
         C            0.235437616099     1.194117786354    -0.002479428100    12.000000000000
         C            0.235419616099    -1.197017213646    -0.002504428100    12.000000000000
         C           -1.154903383901     1.138180786354     0.010393571900    12.000000000000
         C           -1.154945383901    -1.141019213646     0.010438571900    12.000000000000
         H            0.744933616099     2.155457786354    -0.009128428100     1.007825032230
         H            0.744870616099    -2.158383213646    -0.009146428100     1.007825032230
         H           -1.733916383901     2.060535786354     0.012948571900     1.007825032230
         H           -1.733959383901    -2.063370213646     0.012764571900     1.007825032230
         H            2.804664016099    -0.833960913646     0.295285471900     1.007825032230
         H            2.796651616099     0.834539786354     0.296887571900     1.007825032230

  Basis Set: AUG-CC-PVTZ
    Blend: AUG-CC-PVTZ
  Basis Set: (AUG-CC-PVTZ AUX)
    Blend: AUG-CC-PVTZ-JKFIT
	 Reference Energy          =    -301.8370947423796338 [Eh]
	 Singles Energy            =      -0.0000000000000000 [Eh]
	 Same-Spin Energy          =      -0.3281050322032186 [Eh]
	 Opposite-Spin Energy      =      -1.0131267591433151 [Eh]
	 Correlation Energy        =      -1.3412317913465337 [Eh]
	 Total Energy              =    -303.1783265337261923 [Eh]

	 ================> DF-SCS-MP2 Energies <==================
	-----------------------------------------------------------
	 SCS Same-Spin Scale       =       0.3333333333333333 [-]
	 SCS Opposite-Spin Scale   =       1.2000000000000000 [-]
	 SCS Same-Spin Energy      =      -0.1093683440677395 [Eh]
	 SCS Opposite-Spin Energy  =      -1.2157521109719780 [Eh]
	 SCS Correlation Energy    =      -1.3251204550397175 [Eh]
	 SCS Total Energy          =    -303.1622151974193571 [Eh]
	-----------------------------------------------------------

  Dipole Moment: [D]
     X:     3.6000      Y:     0.0039      Z:     0.9739     Total:     3.7294

*** Psi4 exiting successfully. Buy a developer a beer!
