                               Psi4 1.3.2 release

  ==> Input File <==

--------------------------------------------------------------------------
#psi4
#
memory 32 gb

molecule  {
0 1
  N        2.3228640    -0.0000190    -0.0807740
  N       -1.9067410     0.0000080     0.0117080
  C        0.9712648     0.0261924    -0.0026803
  C        0.1996340     1.1955560    -0.0090950
  C        0.1996160    -1.1955790    -0.0091200
  C       -1.1907070     1.1396190     0.0037780
  C       -1.1907490    -1.1395810     0.0038230
  H        0.7423707     2.1385293    -0.0156686
  H        0.7090670    -2.1569450    -0.0157620
  H       -1.7697200     2.0619740     0.0063330
  H       -1.7697630    -2.0619320     0.0061490
  H        2.7609080    -0.8358400     0.2906890
  H        2.7608480     0.8359780     0.2902720
units angstrom
no_reorient  #important for SAPT in psi4, default
symmetry c1  #important for SAPT in psi4, default
}

set PROPERTIES_ORIGIN ["COM"]
properties('MP2/aug-cc-pvtz', properties = ['dipole'])
--------------------------------------------------------------------------

    Molecular point group: c1
  Charge       = 0
  Multiplicity = 1
  Basis Set: AUG-CC-PVTZ
    Blend: AUG-CC-PVTZ
  Basis Set: (AUG-CC-PVTZ AUX)
    Blend: AUG-CC-PVTZ-JKFIT

    Orbital Energies [Eh]
    ---------------------

    Doubly Occupied:

       1A    -15.591122     2A    -15.548052     3A    -11.305891
       4A    -11.275242     5A    -11.272006     6A    -11.232978
       7A    -11.229864     8A     -1.263184     9A     -1.231111
      10A     -1.046653    11A     -1.023032    12A     -0.855962
      13A     -0.842428    14A     -0.724251    15A     -0.716371
      16A     -0.655230    17A     -0.621729    18A     -0.611579
      19A     -0.586096    20A     -0.558336    21A     -0.500908
      22A     -0.492222    23A     -0.412616    24A     -0.346050
      25A     -0.328684

  @DF-RHF Final Energy:  -301.83333522211797

   => Energetics <=

    Nuclear Repulsion Energy =            273.4647663129998136
    One-Electron Energy =                -950.0530101343751994
    Two-Electron Energy =                 374.7549085992574192
    Total Energy =                       -301.8333352221179666
  Basis Set: (AUG-CC-PVTZ AUX)
    Blend: AUG-CC-PVTZ-RI
    Molecular point group: c1

    Geometry (in Angstrom), charge = 0, multiplicity = 1:

       Center              X                  Y                   Z               Mass
    ------------   -----------------  -----------------  -----------------  -----------------
         N            2.353099193667    -0.003165694547    -0.074817176091    14.003074004430
         N           -1.876505806333    -0.003138694547     0.017664823909    14.003074004430
         C            1.001499993667     0.023045705453     0.003276523909    12.000000000000
         C            0.229869193667     1.192409305453    -0.003138176091    12.000000000000
         C            0.229851193667    -1.198725694547    -0.003163176091    12.000000000000
         C           -1.160471806333     1.136472305453     0.009734823909    12.000000000000
         C           -1.160513806333    -1.142727694547     0.009779823909    12.000000000000
         H            0.772605893667     2.135382605453    -0.009711776091     1.007825032230
         H            0.739302193667    -2.160091694547    -0.009805176091     1.007825032230
         H           -1.739484806333     2.058827305453     0.012289823909     1.007825032230
         H           -1.739527806333    -2.065078694547     0.012105823909     1.007825032230
         H            2.791143193667    -0.838986694547     0.296645823909     1.007825032230
         H            2.791083193667     0.832831305453     0.296228823909     1.007825032230

  Basis Set: AUG-CC-PVTZ
    Blend: AUG-CC-PVTZ
  Basis Set: (AUG-CC-PVTZ AUX)
    Blend: AUG-CC-PVTZ-JKFIT
	 Reference Energy          =    -301.8333352221179666 [Eh]
	 Singles Energy            =      -0.0000000000000000 [Eh]
	 Same-Spin Energy          =      -0.3283317592841491 [Eh]
	 Opposite-Spin Energy      =      -1.0134011877789655 [Eh]
	 Correlation Energy        =      -1.3417329470631145 [Eh]
	 Total Energy              =    -303.1750681691810883 [Eh]

	 ================> DF-SCS-MP2 Energies <==================
	-----------------------------------------------------------
	 SCS Same-Spin Scale       =       0.3333333333333333 [-]
	 SCS Opposite-Spin Scale   =       1.2000000000000000 [-]
	 SCS Same-Spin Energy      =      -0.1094439197613830 [Eh]
	 SCS Opposite-Spin Energy  =      -1.2160814253347585 [Eh]
	 SCS Correlation Energy    =      -1.3255253450961415 [Eh]
	 SCS Total Energy          =    -303.1588605672141057 [Eh]
	-----------------------------------------------------------

  Dipole Moment: [D]
     X:     3.9110      Y:    -0.0016      Z:     0.9665     Total:     4.0286

*** Psi4 exiting successfully. Buy a developer a beer!
