                               Psi4 1.3.2 release

  ==> Input File <==

--------------------------------------------------------------------------
#psi4
#
memory 32 gb

molecule  {
0 1
  N        2.3228640    -0.0000190    -0.0807740
  N       -1.9067410     0.0000080     0.0117080
  C        0.9299840    -0.0000240    -0.0024660
  C        0.1996340     1.1955560    -0.0090950
  C        0.1996160    -1.1955790    -0.0091200
  C       -1.1907070     1.1396190     0.0037780
  C       -1.1907490    -1.1395810     0.0038230
  H        0.7091300     2.1568960    -0.0157440
  H        0.7090670    -2.1569450    -0.0157620
  H       -1.7697200     2.0619740     0.0063330
  H       -1.7697630    -2.0619320     0.0061490
  H        2.7383869    -0.8553750     0.2716047
  H        2.7383266     0.8555019     0.2711789
units angstrom
no_reorient  #important for SAPT in psi4, default
symmetry c1  #important for SAPT in psi4, default
}

set PROPERTIES_ORIGIN ["COM"]
properties('MP2/aug-cc-pvtz', properties = ['dipole'])
--------------------------------------------------------------------------

    Molecular point group: c1
  Charge       = 0
  Multiplicity = 1
  Basis Set: AUG-CC-PVTZ
    Blend: AUG-CC-PVTZ
  Basis Set: (AUG-CC-PVTZ AUX)
    Blend: AUG-CC-PVTZ-JKFIT

    Orbital Energies [Eh]
    ---------------------

    Doubly Occupied:

       1A    -15.585470     2A    -15.550728     3A    -11.302532
       4A    -11.274824     5A    -11.274808     6A    -11.231484
       7A    -11.231467     8A     -1.255728     9A     -1.224373
      10A     -1.050914    11A     -1.027721    12A     -0.858163
      13A     -0.841109    14A     -0.716143    15A     -0.715074
      16A     -0.654214    17A     -0.625143    18A     -0.605660
      19A     -0.590296    20A     -0.555407    21A     -0.510707
      22A     -0.486431    23A     -0.413839    24A     -0.347490
      25A     -0.334374

  @DF-RHF Final Energy:  -301.83682540346513

   => Energetics <=

    Nuclear Repulsion Energy =            273.7648512807188013
    One-Electron Energy =                -950.6751558320604545
    Two-Electron Energy =                 375.0734791478764691
    Total Energy =                       -301.8368254034651272
  Basis Set: (AUG-CC-PVTZ AUX)
    Blend: AUG-CC-PVTZ-RI
    Molecular point group: c1

    Geometry (in Angstrom), charge = 0, multiplicity = 1:

       Center              X                  Y                   Z               Mass
    ------------   -----------------  -----------------  -----------------  -----------------
         N            2.359204950729    -0.000017498767    -0.074434620598    14.003074004430
         N           -1.870400049271     0.000009501233     0.018047379402    14.003074004430
         C            0.966324950729    -0.000022498767     0.003873379402    12.000000000000
         C            0.235974950729     1.195557501233    -0.002755620598    12.000000000000
         C            0.235956950729    -1.195577498767    -0.002780620598    12.000000000000
         C           -1.154366049271     1.139620501233     0.010117379402    12.000000000000
         C           -1.154408049271    -1.139579498767     0.010162379402    12.000000000000
         H            0.745470950729     2.156897501233    -0.009404620598     1.007825032230
         H            0.745407950729    -2.156943498767    -0.009422620598     1.007825032230
         H           -1.733379049271     2.061975501233     0.012672379402     1.007825032230
         H           -1.733422049271    -2.061930498767     0.012488379402     1.007825032230
         H            2.774727850729    -0.855373498767     0.277944079402     1.007825032230
         H            2.774667550729     0.855503401233     0.277518279402     1.007825032230

  Basis Set: AUG-CC-PVTZ
    Blend: AUG-CC-PVTZ
  Basis Set: (AUG-CC-PVTZ AUX)
    Blend: AUG-CC-PVTZ-JKFIT
	 Reference Energy          =    -301.8368254034651272 [Eh]
	 Singles Energy            =      -0.0000000000000000 [Eh]
	 Same-Spin Energy          =      -0.3281628263112591 [Eh]
	 Opposite-Spin Energy      =      -1.0131685985187402 [Eh]
	 Correlation Energy        =      -1.3413314248299995 [Eh]
	 Total Energy              =    -303.1781568282951298 [Eh]

	 ================> DF-SCS-MP2 Energies <==================
	-----------------------------------------------------------
	 SCS Same-Spin Scale       =       0.3333333333333333 [-]
	 SCS Opposite-Spin Scale   =       1.2000000000000000 [-]
	 SCS Same-Spin Energy      =      -0.1093876087704197 [Eh]
	 SCS Opposite-Spin Energy  =      -1.2158023182224882 [Eh]
	 SCS Correlation Energy    =      -1.3251899269929079 [Eh]
	 SCS Total Energy          =    -303.1620153304580185 [Eh]
	-----------------------------------------------------------

  Dipole Moment: [D]
     X:     3.5934      Y:     0.0002      Z:     0.9312     Total:     3.7121

*** Psi4 exiting successfully. Buy a developer a beer!
