                               Psi4 1.3.2 release

  ==> Input File <==

--------------------------------------------------------------------------
#psi4
#
memory 32 gb

molecule  {
0 1
  N        2.3228640    -0.0000190    -0.0807740
  N       -1.9166584     0.0063002     0.0117716
  C        0.9299840    -0.0000240    -0.0024660
  C        0.1996340     1.1955560    -0.0090950
  C        0.1996160    -1.1955790    -0.0091200
  C       -1.1907070     1.1396190     0.0037780
  C       -1.1907490    -1.1395810     0.0038230
  H        0.7091300     2.1568960    -0.0157440
  H        0.7090670    -2.1569450    -0.0157620
  H       -1.7777466     2.0568861     0.0064058
  H       -1.7697630    -2.0619320     0.0061490
  H        2.7609080    -0.8358400     0.2906890
  H        2.7608480     0.8359780     0.2902720
units angstrom
no_reorient  #important for SAPT in psi4, default
symmetry c1  #important for SAPT in psi4, default
}

set PROPERTIES_ORIGIN ["COM"]
properties('MP2/aug-cc-pvtz', properties = ['dipole'])
--------------------------------------------------------------------------

    Molecular point group: c1
  Charge       = 0
  Multiplicity = 1
  Basis Set: AUG-CC-PVTZ
    Blend: AUG-CC-PVTZ
  Basis Set: (AUG-CC-PVTZ AUX)
    Blend: AUG-CC-PVTZ-JKFIT

    Orbital Energies [Eh]
    ---------------------

    Doubly Occupied:

       1A    -15.585645     2A    -15.552404     3A    -11.303625
       4A    -11.276060     5A    -11.274648     6A    -11.232400
       7A    -11.231718     8A     -1.254476     9A     -1.223251
      10A     -1.051979    11A     -1.027207    12A     -0.856917
      13A     -0.842705    14A     -0.718364    15A     -0.710065
      16A     -0.654731    17A     -0.621937    18A     -0.607277
      19A     -0.590030    20A     -0.554996    21A     -0.509390
      22A     -0.486006    23A     -0.416003    24A     -0.347575
      25A     -0.335094

  @DF-RHF Final Energy:  -301.83648543419622

   => Energetics <=

    Nuclear Repulsion Energy =            273.4462912403333803
    One-Electron Energy =                -950.0365563197676693
    Two-Electron Energy =                 374.7537796452380690
    Total Energy =                       -301.8364854341962200
  Basis Set: (AUG-CC-PVTZ AUX)
    Blend: AUG-CC-PVTZ-RI
    Molecular point group: c1

    Geometry (in Angstrom), charge = 0, multiplicity = 1:

       Center              X                  Y                   Z               Mass
    ------------   -----------------  -----------------  -----------------  -----------------
         N            2.360284857053    -0.000899911125    -0.074853959305    14.003074004430
         N           -1.879237542947     0.005419288875     0.017691640695    14.003074004430
         C            0.967404857053    -0.000904911125     0.003454040695    12.000000000000
         C            0.237054857053     1.194675088875    -0.003174959305    12.000000000000
         C            0.237036857053    -1.196459911125    -0.003199959305    12.000000000000
         C           -1.153286142947     1.138738088875     0.009698040695    12.000000000000
         C           -1.153328142947    -1.140461911125     0.009743040695    12.000000000000
         H            0.746550857053     2.156015088875    -0.009823959305     1.007825032230
         H            0.746487857053    -2.157825911125    -0.009841959305     1.007825032230
         H           -1.740325742947     2.056005188875     0.012325840695     1.007825032230
         H           -1.732342142947    -2.062812911125     0.012069040695     1.007825032230
         H            2.798328857053    -0.836720911125     0.296609040695     1.007825032230
         H            2.798268857053     0.835097088875     0.296192040695     1.007825032230

  Basis Set: AUG-CC-PVTZ
    Blend: AUG-CC-PVTZ
  Basis Set: (AUG-CC-PVTZ AUX)
    Blend: AUG-CC-PVTZ-JKFIT
	 Reference Energy          =    -301.8364854341962200 [Eh]
	 Singles Energy            =      -0.0000000000000000 [Eh]
	 Same-Spin Energy          =      -0.3281716013552751 [Eh]
	 Opposite-Spin Energy      =      -1.0134361725399286 [Eh]
	 Correlation Energy        =      -1.3416077738952037 [Eh]
	 Total Energy              =    -303.1780932080914113 [Eh]

	 ================> DF-SCS-MP2 Energies <==================
	-----------------------------------------------------------
	 SCS Same-Spin Scale       =       0.3333333333333333 [-]
	 SCS Opposite-Spin Scale   =       1.2000000000000000 [-]
	 SCS Same-Spin Energy      =      -0.1093905337850917 [Eh]
	 SCS Opposite-Spin Energy  =      -1.2161234070479143 [Eh]
	 SCS Correlation Energy    =      -1.3255139408330061 [Eh]
	 SCS Total Energy          =    -303.1619993750292110 [Eh]
	-----------------------------------------------------------

  Dipole Moment: [D]
     X:     3.6186      Y:    -0.0155      Z:     0.9765     Total:     3.7481

*** Psi4 exiting successfully. Buy a developer a beer!
