                               Psi4 1.3.2 release

  ==> Input File <==

--------------------------------------------------------------------------
#psi4
#
memory 32 gb

molecule  {
0 1
  N        2.3227062     0.0243092    -0.0797942
  N       -1.9067410     0.0000080     0.0117080
  C        0.9299840    -0.0000240    -0.0024660
  C        0.1996340     1.1955560    -0.0090950
  C        0.1789067    -1.1826869    -0.0074412
  C       -1.1907070     1.1396190     0.0037780
  C       -1.1907490    -1.1395810     0.0038230
  H        0.7091300     2.1568960    -0.0157440
  H        0.7090670    -2.1569450    -0.0157620
  H       -1.7697200     2.0619740     0.0063330
  H       -1.7697630    -2.0619320     0.0061490
  H        2.7609080    -0.8358400     0.2906890
  H        2.7608480     0.8359780     0.2902720
units angstrom
no_reorient  #important for SAPT in psi4, default
symmetry c1  #important for SAPT in psi4, default
}

set PROPERTIES_ORIGIN ["COM"]
properties('MP2/aug-cc-pvtz', properties = ['dipole'])
--------------------------------------------------------------------------

    Molecular point group: c1
  Charge       = 0
  Multiplicity = 1
  Basis Set: AUG-CC-PVTZ
    Blend: AUG-CC-PVTZ
  Basis Set: (AUG-CC-PVTZ AUX)
    Blend: AUG-CC-PVTZ-JKFIT

    Orbital Energies [Eh]
    ---------------------

    Doubly Occupied:

       1A    -15.586341     2A    -15.550273     3A    -11.303446
       4A    -11.274000     5A    -11.271971     6A    -11.232273
       7A    -11.230966     8A     -1.256463     9A     -1.224726
      10A     -1.052845    11A     -1.029462    12A     -0.855999
      13A     -0.844718    14A     -0.721391    15A     -0.709415
      16A     -0.650659    17A     -0.625222    18A     -0.608059
      19A     -0.589256    20A     -0.556571    21A     -0.506853
      22A     -0.487358    23A     -0.413963    24A     -0.349694
      25A     -0.334824

  @DF-RHF Final Energy:  -301.83562489167139

   => Energetics <=

    Nuclear Repulsion Energy =            274.0090504683445261
    One-Electron Energy =                -951.1558566496494223
    Two-Electron Energy =                 375.3111812896335096
    Total Energy =                       -301.8356248916713866
  Basis Set: (AUG-CC-PVTZ AUX)
    Blend: AUG-CC-PVTZ-RI
    Molecular point group: c1

    Geometry (in Angstrom), charge = 0, multiplicity = 1:

       Center              X                  Y                   Z               Mass
    ------------   -----------------  -----------------  -----------------  -----------------
         N            2.361230240176     0.019043612946    -0.074223981345    14.003074004430
         N           -1.868216959824    -0.005257587054     0.017278218655    14.003074004430
         C            0.968508040176    -0.005289587054     0.003104218655    12.000000000000
         C            0.238158040176     1.190290412946    -0.003524781345    12.000000000000
         C            0.217430740176    -1.187952487054    -0.001870981345    12.000000000000
         C           -1.152182959824     1.134353412946     0.009348218655    12.000000000000
         C           -1.152224959824    -1.144846587054     0.009393218655    12.000000000000
         H            0.747654040176     2.151630412946    -0.010173781345     1.007825032230
         H            0.747591040176    -2.162210587054    -0.010191781345     1.007825032230
         H           -1.731195959824     2.056708412946     0.011903218655     1.007825032230
         H           -1.731238959824    -2.067197587054     0.011719218655     1.007825032230
         H            2.799432040176    -0.841105587054     0.296259218655     1.007825032230
         H            2.799372040176     0.830712412946     0.295842218655     1.007825032230

  Basis Set: AUG-CC-PVTZ
    Blend: AUG-CC-PVTZ
  Basis Set: (AUG-CC-PVTZ AUX)
    Blend: AUG-CC-PVTZ-JKFIT
	 Reference Energy          =    -301.8356248916713866 [Eh]
	 Singles Energy            =      -0.0000000000000000 [Eh]
	 Same-Spin Energy          =      -0.3282070489579887 [Eh]
	 Opposite-Spin Energy      =      -1.0131985752908244 [Eh]
	 Correlation Energy        =      -1.3414056242488130 [Eh]
	 Total Energy              =    -303.1770305159201939 [Eh]

	 ================> DF-SCS-MP2 Energies <==================
	-----------------------------------------------------------
	 SCS Same-Spin Scale       =       0.3333333333333333 [-]
	 SCS Opposite-Spin Scale   =       1.2000000000000000 [-]
	 SCS Same-Spin Energy      =      -0.1094023496526629 [Eh]
	 SCS Opposite-Spin Energy  =      -1.2158382903489893 [Eh]
	 SCS Correlation Energy    =      -1.3252406400016521 [Eh]
	 SCS Total Energy          =    -303.1608655316730392 [Eh]
	-----------------------------------------------------------

  Dipole Moment: [D]
     X:     3.6121      Y:    -0.0103      Z:     0.9745     Total:     3.7413

*** Psi4 exiting successfully. Buy a developer a beer!
