                               Psi4 1.3.2 release

  ==> Input File <==

--------------------------------------------------------------------------
#psi4
#
memory 32 gb

molecule  {
0 1
  N        2.3228640    -0.0000190    -0.0807740
  N       -1.9067410     0.0000080     0.0117080
  C        0.9299840    -0.0000240    -0.0024660
  C        0.1996340     1.1955560    -0.0090950
  C        0.1996160    -1.1955790    -0.0091200
  C       -1.1907070     1.1396190     0.0037780
  C       -1.2439481    -1.0549081     0.0044089
  H        0.7091300     2.1568960    -0.0157440
  H        0.7090670    -2.1569450    -0.0157620
  H       -1.7697200     2.0619740     0.0063330
  H       -1.7697630    -2.0619320     0.0061490
  H        2.7609080    -0.8358400     0.2906890
  H        2.7608480     0.8359780     0.2902720
units angstrom
no_reorient  #important for SAPT in psi4, default
symmetry c1  #important for SAPT in psi4, default
}

set PROPERTIES_ORIGIN ["COM"]
properties('MP2/aug-cc-pvtz', properties = ['dipole'])
--------------------------------------------------------------------------

    Molecular point group: c1
  Charge       = 0
  Multiplicity = 1
  Basis Set: AUG-CC-PVTZ
    Blend: AUG-CC-PVTZ
  Basis Set: (AUG-CC-PVTZ AUX)
    Blend: AUG-CC-PVTZ-JKFIT

    Orbital Energies [Eh]
    ---------------------

    Doubly Occupied:

       1A    -15.582862     2A    -15.546695     3A    -11.299795
       4A    -11.277249     5A    -11.275001     6A    -11.234990
       7A    -11.231560     8A     -1.279137     9A     -1.232075
      10A     -1.057368    11A     -1.018566    12A     -0.867592
      13A     -0.832670    14A     -0.716367    15A     -0.712680
      16A     -0.654854    17A     -0.628225    18A     -0.608418
      19A     -0.580111    20A     -0.561026    21A     -0.512128
      22A     -0.497146    23A     -0.408693    24A     -0.351104
      25A     -0.331411

  @DF-RHF Final Energy:  -301.82683626422846

   => Energetics <=

    Nuclear Repulsion Energy =            274.6755159445378354
    One-Electron Energy =                -952.4092619091059078
    Two-Electron Energy =                 375.9069097003395541
    Total Energy =                       -301.8268362642284615
  Basis Set: (AUG-CC-PVTZ AUX)
    Blend: AUG-CC-PVTZ-RI
    Molecular point group: c1

    Geometry (in Angstrom), charge = 0, multiplicity = 1:

       Center              X                  Y                   Z               Mass
    ------------   -----------------  -----------------  -----------------  -----------------
         N            2.365509838631    -0.010820821638    -0.074918463664    14.003074004430
         N           -1.864095161369    -0.010793821638     0.017563536336    14.003074004430
         C            0.972629838631    -0.010825821638     0.003389536336    12.000000000000
         C            0.242279838631     1.184754178362    -0.003239463664    12.000000000000
         C            0.242261838631    -1.206380821638    -0.003264463664    12.000000000000
         C           -1.148061161369     1.128817178362     0.009633536336    12.000000000000
         C           -1.201302261369    -1.065709921638     0.010264436336    12.000000000000
         H            0.751775838631     2.146094178362    -0.009888463664     1.007825032230
         H            0.751712838631    -2.167746821638    -0.009906463664     1.007825032230
         H           -1.727074161369     2.051172178362     0.012188536336     1.007825032230
         H           -1.727117161369    -2.072733821638     0.012004536336     1.007825032230
         H            2.803553838631    -0.846641821638     0.296544536336     1.007825032230
         H            2.803493838631     0.825176178362     0.296127536336     1.007825032230

  Basis Set: AUG-CC-PVTZ
    Blend: AUG-CC-PVTZ
  Basis Set: (AUG-CC-PVTZ AUX)
    Blend: AUG-CC-PVTZ-JKFIT
	 Reference Energy          =    -301.8268362642284615 [Eh]
	 Singles Energy            =      -0.0000000000000000 [Eh]
	 Same-Spin Energy          =      -0.3272544811250491 [Eh]
	 Opposite-Spin Energy      =      -1.0116719177846354 [Eh]
	 Correlation Energy        =      -1.3389263989096845 [Eh]
	 Total Energy              =    -303.1657626631381390 [Eh]

	 ================> DF-SCS-MP2 Energies <==================
	-----------------------------------------------------------
	 SCS Same-Spin Scale       =       0.3333333333333333 [-]
	 SCS Opposite-Spin Scale   =       1.2000000000000000 [-]
	 SCS Same-Spin Energy      =      -0.1090848270416830 [Eh]
	 SCS Opposite-Spin Energy  =      -1.2140063013415625 [Eh]
	 SCS Correlation Energy    =      -1.3230911283832456 [Eh]
	 SCS Total Energy          =    -303.1499273926116871 [Eh]
	-----------------------------------------------------------

  Dipole Moment: [D]
     X:     3.4701      Y:     0.1303      Z:     0.9775     Total:     3.6075

*** Psi4 exiting successfully. Buy a developer a beer!
