                               Psi4 1.3.2 release

  ==> Input File <==

--------------------------------------------------------------------------
#psi4
#
memory 32 gb

molecule  {
0 1
  N        2.3228640    -0.0000190    -0.0807740
  N       -1.9067410     0.0000080     0.0117080
  C        0.9299840    -0.0000240    -0.0024660
  C        0.1996340     1.1955560    -0.0090950
  C        0.1996160    -1.1955790    -0.0091200
  C       -1.2006785     1.1458245     0.0038880
  C       -1.2007203    -1.1457861     0.0039332
  H        0.7091300     2.1568960    -0.0157440
  H        0.7090670    -2.1569450    -0.0157620
  H       -1.7697200     2.0619740     0.0063330
  H       -1.7697630    -2.0619320     0.0061490
  H        2.7609080    -0.8358400     0.2906890
  H        2.7608480     0.8359780     0.2902720
units angstrom
no_reorient  #important for SAPT in psi4, default
symmetry c1  #important for SAPT in psi4, default
}

set PROPERTIES_ORIGIN ["COM"]
properties('MP2/aug-cc-pvtz', properties = ['dipole'])
--------------------------------------------------------------------------

    Molecular point group: c1
  Charge       = 0
  Multiplicity = 1
  Basis Set: AUG-CC-PVTZ
    Blend: AUG-CC-PVTZ
  Basis Set: (AUG-CC-PVTZ AUX)
    Blend: AUG-CC-PVTZ-JKFIT

    Orbital Energies [Eh]
    ---------------------

    Doubly Occupied:

       1A    -15.584619     2A    -15.551363     3A    -11.302448
       4A    -11.275412     5A    -11.275396     6A    -11.232792
       7A    -11.232775     8A     -1.254326     9A     -1.223552
      10A     -1.049961    11A     -1.026226    12A     -0.859171
      13A     -0.841584    14A     -0.719487    15A     -0.709143
      16A     -0.654935    17A     -0.622971    18A     -0.608866
      19A     -0.590179    20A     -0.554151    21A     -0.514172
      22A     -0.486189    23A     -0.411676    24A     -0.345180
      25A     -0.334914

  @DF-RHF Final Energy:  -301.83657720652548

   => Energetics <=

    Nuclear Repulsion Energy =            273.3229325950019302
    One-Electron Energy =                -949.7960430306929993
    Two-Electron Energy =                 374.6365332291655932
    Total Energy =                       -301.8365772065254760
  Basis Set: (AUG-CC-PVTZ AUX)
    Blend: AUG-CC-PVTZ-RI
    Molecular point group: c1

    Geometry (in Angstrom), charge = 0, multiplicity = 1:

       Center              X                  Y                   Z               Mass
    ------------   -----------------  -----------------  -----------------  -----------------
         N            2.361266750337    -0.000017668744    -0.074871804914    14.003074004430
         N           -1.868338249663     0.000009331256     0.017610195086    14.003074004430
         C            0.968386750337    -0.000022668744     0.003436195086    12.000000000000
         C            0.238036750337     1.195557331256    -0.003192804914    12.000000000000
         C            0.238018750337    -1.195577668744    -0.003217804914    12.000000000000
         C           -1.162275749663     1.145825831256     0.009790195086    12.000000000000
         C           -1.162317549663    -1.145784768744     0.009835395086    12.000000000000
         H            0.747532750337     2.156897331256    -0.009841804914     1.007825032230
         H            0.747469750337    -2.156943668744    -0.009859804914     1.007825032230
         H           -1.731317249663     2.061975331256     0.012235195086     1.007825032230
         H           -1.731360249663    -2.061930668744     0.012051195086     1.007825032230
         H            2.799310750337    -0.835838668744     0.296591195086     1.007825032230
         H            2.799250750337     0.835979331256     0.296174195086     1.007825032230

  Basis Set: AUG-CC-PVTZ
    Blend: AUG-CC-PVTZ
  Basis Set: (AUG-CC-PVTZ AUX)
    Blend: AUG-CC-PVTZ-JKFIT
	 Reference Energy          =    -301.8365772065254760 [Eh]
	 Singles Energy            =      -0.0000000000000000 [Eh]
	 Same-Spin Energy          =      -0.3281720611789542 [Eh]
	 Opposite-Spin Energy      =      -1.0133179439706197 [Eh]
	 Correlation Energy        =      -1.3414900051495739 [Eh]
	 Total Energy              =    -303.1780672116750566 [Eh]

	 ================> DF-SCS-MP2 Energies <==================
	-----------------------------------------------------------
	 SCS Same-Spin Scale       =       0.3333333333333333 [-]
	 SCS Opposite-Spin Scale   =       1.2000000000000000 [-]
	 SCS Same-Spin Energy      =      -0.1093906870596514 [Eh]
	 SCS Opposite-Spin Energy  =      -1.2159815327647436 [Eh]
	 SCS Correlation Energy    =      -1.3253722198243951 [Eh]
	 SCS Total Energy          =    -303.1619494263498495 [Eh]
	-----------------------------------------------------------

  Dipole Moment: [D]
     X:     3.5560      Y:     0.0002      Z:     0.9772     Total:     3.6879

*** Psi4 exiting successfully. Buy a developer a beer!
