                               Psi4 1.3.2 release

  ==> Input File <==

--------------------------------------------------------------------------
#psi4
#
memory 32 gb

molecule  {
0 1
  N        2.3228640    -0.0000190    -0.0807740
  N       -1.9067410     0.0000080     0.0117080
  C        0.9299840    -0.0000240    -0.0024660
  C        0.1996340     1.1955560    -0.0090950
  C        0.1996160    -1.1955790    -0.0091200
  C       -1.1907070     1.1396190     0.0037780
  C       -1.1907490    -1.1395810     0.0038230
  H        0.7091300     2.1568960    -0.0157440
  H        0.7090670    -2.1569450    -0.0157620
  H       -1.7697200     2.0619740     0.0063330
  H       -1.7697630    -2.0619320     0.0061490
  H        2.7664559    -0.8307962     0.2953902
  H        2.7663960     0.8309369     0.2949755
units angstrom
no_reorient  #important for SAPT in psi4, default
symmetry c1  #important for SAPT in psi4, default
}

set PROPERTIES_ORIGIN ["COM"]
properties('MP2/aug-cc-pvtz', properties = ['dipole'])
--------------------------------------------------------------------------

    Molecular point group: c1
  Charge       = 0
  Multiplicity = 1
  Basis Set: AUG-CC-PVTZ
    Blend: AUG-CC-PVTZ
  Basis Set: (AUG-CC-PVTZ AUX)
    Blend: AUG-CC-PVTZ-JKFIT

    Orbital Energies [Eh]
    ---------------------

    Doubly Occupied:

       1A    -15.585170     2A    -15.551170     3A    -11.303222
       4A    -11.274814     5A    -11.274798     6A    -11.231811
       7A    -11.231794     8A     -1.255556     9A     -1.224180
      10A     -1.051826    11A     -1.027761    12A     -0.857525
      13A     -0.842925    14A     -0.719181    15A     -0.709046
      16A     -0.654395    17A     -0.622167    18A     -0.607978
      19A     -0.590265    20A     -0.555347    21A     -0.510505
      22A     -0.486794    23A     -0.414109    24A     -0.347429
      25A     -0.335294

  @DF-RHF Final Energy:  -301.83717967016145

   => Energetics <=

    Nuclear Repulsion Energy =            273.6740543837667019
    One-Electron Energy =                -950.4923466616810401
    Two-Electron Energy =                 374.9811126077528911
    Total Energy =                       -301.8371796701614471
  Basis Set: (AUG-CC-PVTZ AUX)
    Blend: AUG-CC-PVTZ-RI
    Molecular point group: c1

    Geometry (in Angstrom), charge = 0, multiplicity = 1:

       Center              X                  Y                   Z               Mass
    ------------   -----------------  -----------------  -----------------  -----------------
         N            2.358603400266    -0.000017646641    -0.074944486114    14.003074004430
         N           -1.871001599734     0.000009353359     0.017537513886    14.003074004430
         C            0.965723400266    -0.000022646641     0.003363513886    12.000000000000
         C            0.235373400266     1.195557353359    -0.003265486114    12.000000000000
         C            0.235355400266    -1.195577646641    -0.003290486114    12.000000000000
         C           -1.154967599734     1.139620353359     0.009607513886    12.000000000000
         C           -1.155009599734    -1.139579646641     0.009652513886    12.000000000000
         H            0.744869400266     2.156897353359    -0.009914486114     1.007825032230
         H            0.744806400266    -2.156943646641    -0.009932486114     1.007825032230
         H           -1.733980599734     2.061975353359     0.012162513886     1.007825032230
         H           -1.734023599734    -2.061930646641     0.011978513886     1.007825032230
         H            2.802195300266    -0.830794846641     0.301219713886     1.007825032230
         H            2.802135400266     0.830938253359     0.300805013886     1.007825032230

  Basis Set: AUG-CC-PVTZ
    Blend: AUG-CC-PVTZ
  Basis Set: (AUG-CC-PVTZ AUX)
    Blend: AUG-CC-PVTZ-JKFIT
	 Reference Energy          =    -301.8371796701614471 [Eh]
	 Singles Energy            =      -0.0000000000000000 [Eh]
	 Same-Spin Energy          =      -0.3281104914403358 [Eh]
	 Opposite-Spin Energy      =      -1.0131446363526861 [Eh]
	 Correlation Energy        =      -1.3412551277930218 [Eh]
	 Total Energy              =    -303.1784347979544805 [Eh]

	 ================> DF-SCS-MP2 Energies <==================
	-----------------------------------------------------------
	 SCS Same-Spin Scale       =       0.3333333333333333 [-]
	 SCS Opposite-Spin Scale   =       1.2000000000000000 [-]
	 SCS Same-Spin Energy      =      -0.1093701638134452 [Eh]
	 SCS Opposite-Spin Energy  =      -1.2157735636232234 [Eh]
	 SCS Correlation Energy    =      -1.3251437274366686 [Eh]
	 SCS Total Energy          =    -303.1623233975981293 [Eh]
	-----------------------------------------------------------

  Dipole Moment: [D]
     X:     3.5925      Y:     0.0002      Z:     0.9879     Total:     3.7259

*** Psi4 exiting successfully. Buy a developer a beer!
