                               Psi4 1.3.2 release

  ==> Input File <==

--------------------------------------------------------------------------
#psi4
#
memory 32 gb

molecule  {
0 1
  N        2.3228640    -0.0000190    -0.0807740
  N       -1.9067410     0.0000080     0.0117080
  C        0.9195228    -0.0063517    -0.0024137
  C        0.1996340     1.1955560    -0.0090950
  C        0.1996160    -1.1955790    -0.0091200
  C       -1.1907070     1.1396190     0.0037780
  C       -1.1907490    -1.1395810     0.0038230
  H        0.7007212     2.1613055    -0.0157616
  H        0.7090670    -2.1569450    -0.0157620
  H       -1.7697200     2.0619740     0.0063330
  H       -1.7697630    -2.0619320     0.0061490
  H        2.7609080    -0.8358400     0.2906890
  H        2.7608480     0.8359780     0.2902720
units angstrom
no_reorient  #important for SAPT in psi4, default
symmetry c1  #important for SAPT in psi4, default
}

set PROPERTIES_ORIGIN ["COM"]
properties('MP2/aug-cc-pvtz', properties = ['dipole'])
--------------------------------------------------------------------------

    Molecular point group: c1
  Charge       = 0
  Multiplicity = 1
  Basis Set: AUG-CC-PVTZ
    Blend: AUG-CC-PVTZ
  Basis Set: (AUG-CC-PVTZ AUX)
    Blend: AUG-CC-PVTZ-JKFIT

    Orbital Energies [Eh]
    ---------------------

    Doubly Occupied:

       1A    -15.583784     2A    -15.551814     3A    -11.302376
       4A    -11.275510     5A    -11.274708     6A    -11.232217
       7A    -11.231373     8A     -1.254933     9A     -1.221511
      10A     -1.053083    11A     -1.028802    12A     -0.858391
      13A     -0.842419    14A     -0.717444    15A     -0.708756
      16A     -0.654314    17A     -0.623524    18A     -0.605601
      19A     -0.591224    20A     -0.554955    21A     -0.512683
      22A     -0.485156    23A     -0.414356    24A     -0.347960
      25A     -0.336594

  @DF-RHF Final Energy:  -301.83709682660748

   => Energetics <=

    Nuclear Repulsion Energy =            273.7561809536948658
    One-Electron Energy =                -950.6595730858748539
    Two-Electron Energy =                 375.0662953055725097
    Total Energy =                       -301.8370968266074783
  Basis Set: (AUG-CC-PVTZ AUX)
    Blend: AUG-CC-PVTZ-RI
    Molecular point group: c1

    Geometry (in Angstrom), charge = 0, multiplicity = 1:

       Center              X                  Y                   Z               Mass
    ------------   -----------------  -----------------  -----------------  -----------------
         N            2.360147121076     0.000742467784    -0.074850194379    14.003074004430
         N           -1.869457878924     0.000769467784     0.017631805621    14.003074004430
         C            0.956805921076    -0.005590232216     0.003510105621    12.000000000000
         C            0.236917121076     1.196317467784    -0.003171194379    12.000000000000
         C            0.236899121076    -1.194817532216    -0.003196194379    12.000000000000
         C           -1.153423878924     1.140380467784     0.009701805621    12.000000000000
         C           -1.153465878924    -1.138819532216     0.009746805621    12.000000000000
         H            0.738004321076     2.162066967784    -0.009837794379     1.007825032230
         H            0.746350121076    -2.156183532216    -0.009838194379     1.007825032230
         H           -1.732436878924     2.062735467784     0.012256805621     1.007825032230
         H           -1.732479878924    -2.061170532216     0.012072805621     1.007825032230
         H            2.798191121076    -0.835078532216     0.296612805621     1.007825032230
         H            2.798131121076     0.836739467784     0.296195805621     1.007825032230

  Basis Set: AUG-CC-PVTZ
    Blend: AUG-CC-PVTZ
  Basis Set: (AUG-CC-PVTZ AUX)
    Blend: AUG-CC-PVTZ-JKFIT
	 Reference Energy          =    -301.8370968266074783 [Eh]
	 Singles Energy            =      -0.0000000000000000 [Eh]
	 Same-Spin Energy          =      -0.3280771686929013 [Eh]
	 Opposite-Spin Energy      =      -1.0131257367850810 [Eh]
	 Correlation Energy        =      -1.3412029054779824 [Eh]
	 Total Energy              =    -303.1782997320854633 [Eh]

	 ================> DF-SCS-MP2 Energies <==================
	-----------------------------------------------------------
	 SCS Same-Spin Scale       =       0.3333333333333333 [-]
	 SCS Opposite-Spin Scale   =       1.2000000000000000 [-]
	 SCS Same-Spin Energy      =      -0.1093590562309671 [Eh]
	 SCS Opposite-Spin Energy  =      -1.2157508841420972 [Eh]
	 SCS Correlation Energy    =      -1.3251099403730642 [Eh]
	 SCS Total Energy          =    -303.1622067669805460 [Eh]
	-----------------------------------------------------------

  Dipole Moment: [D]
     X:     3.5133      Y:    -0.0004      Z:     0.9792     Total:     3.6472

*** Psi4 exiting successfully. Buy a developer a beer!
