                               Psi4 1.3.2 release

  ==> Input File <==

--------------------------------------------------------------------------
#psi4
#
memory 32 gb

molecule  {
0 1
  N        2.3228640    -0.0000190    -0.0807740
  N       -1.9067410     0.0000080     0.0117080
  C        0.9299840    -0.0000240    -0.0024660
  C        0.1996340     1.1955560    -0.0090950
  C        0.1996160    -1.1955790    -0.0091200
  C       -1.1907070     1.1396190     0.0037780
  C       -1.0843507    -1.3089269     0.0026513
  H        0.7091300     2.1568960    -0.0157440
  H        0.7090670    -2.1569450    -0.0157620
  H       -1.7697200     2.0619740     0.0063330
  H       -1.7697630    -2.0619320     0.0061490
  H        2.7609080    -0.8358400     0.2906890
  H        2.7608480     0.8359780     0.2902720
units angstrom
no_reorient  #important for SAPT in psi4, default
symmetry c1  #important for SAPT in psi4, default
}

set PROPERTIES_ORIGIN ["COM"]
properties('MP2/aug-cc-pvtz', properties = ['dipole'])
--------------------------------------------------------------------------

    Molecular point group: c1
  Charge       = 0
  Multiplicity = 1
  Basis Set: AUG-CC-PVTZ
    Blend: AUG-CC-PVTZ
  Basis Set: (AUG-CC-PVTZ AUX)
    Blend: AUG-CC-PVTZ-JKFIT

    Orbital Energies [Eh]
    ---------------------

    Doubly Occupied:

       1A    -15.589118     2A    -15.554768     3A    -11.308090
       4A    -11.270611     5A    -11.270593     6A    -11.231621
       7A    -11.228430     8A     -1.248343     9A     -1.194181
      10A     -1.062745    11A     -1.027481    12A     -0.862738
      13A     -0.837480    14A     -0.727408    15A     -0.710044
      16A     -0.653626    17A     -0.628915    18A     -0.603722
      19A     -0.597217    20A     -0.553021    21A     -0.500435
      22A     -0.472668    23A     -0.398968    24A     -0.372708
      25A     -0.318696

  @DF-RHF Final Energy:  -301.79202018586318

   => Energetics <=

    Nuclear Repulsion Energy =            272.1843289984202556
    One-Electron Energy =                -947.5054443746093966
    Two-Electron Energy =                 373.5290951903259611
    Total Energy =                       -301.7920201858631799
  Basis Set: (AUG-CC-PVTZ AUX)
    Blend: AUG-CC-PVTZ-RI
    Molecular point group: c1

    Geometry (in Angstrom), charge = 0, multiplicity = 1:

       Center              X                  Y                   Z               Mass
    ------------   -----------------  -----------------  -----------------  -----------------
         N            2.345147204794     0.021588802907    -0.074694215868    14.003074004430
         N           -1.884457795206     0.021615802907     0.017787784132    14.003074004430
         C            0.952267204794     0.021583802907     0.003613784132    12.000000000000
         C            0.221917204794     1.217163802907    -0.003015215868    12.000000000000
         C            0.221899204794    -1.173971197093    -0.003040215868    12.000000000000
         C           -1.168423795206     1.161226802907     0.009857784132    12.000000000000
         C           -1.062067495206    -1.287319097093     0.008731084132    12.000000000000
         H            0.731413204794     2.178503802907    -0.009664215868     1.007825032230
         H            0.731350204794    -2.135337197093    -0.009682215868     1.007825032230
         H           -1.747436795206     2.083581802907     0.012412784132     1.007825032230
         H           -1.747479795206    -2.040324197093     0.012228784132     1.007825032230
         H            2.783191204794    -0.814232197093     0.296768784132     1.007825032230
         H            2.783131204794     0.857585802907     0.296351784132     1.007825032230

  Basis Set: AUG-CC-PVTZ
    Blend: AUG-CC-PVTZ
  Basis Set: (AUG-CC-PVTZ AUX)
    Blend: AUG-CC-PVTZ-JKFIT
	 Reference Energy          =    -301.7920201858631799 [Eh]
	 Singles Energy            =      -0.0000000000000000 [Eh]
	 Same-Spin Energy          =      -0.3290846130622455 [Eh]
	 Opposite-Spin Energy      =      -1.0190199988145565 [Eh]
	 Correlation Energy        =      -1.3481046118768019 [Eh]
	 Total Energy              =    -303.1401247977399862 [Eh]

	 ================> DF-SCS-MP2 Energies <==================
	-----------------------------------------------------------
	 SCS Same-Spin Scale       =       0.3333333333333333 [-]
	 SCS Opposite-Spin Scale   =       1.2000000000000000 [-]
	 SCS Same-Spin Energy      =      -0.1096948710207485 [Eh]
	 SCS Opposite-Spin Energy  =      -1.2228239985774678 [Eh]
	 SCS Correlation Energy    =      -1.3325188695982164 [Eh]
	 SCS Total Energy          =    -303.1245390554614119 [Eh]
	-----------------------------------------------------------

  Dipole Moment: [D]
     X:     3.7055      Y:    -0.1409      Z:     0.9755     Total:     3.8343

*** Psi4 exiting successfully. Buy a developer a beer!
