                               Psi4 1.3.2 release

  ==> Input File <==

--------------------------------------------------------------------------
#psi4
#
memory 32 gb

molecule  {
0 1
  N        2.3228640    -0.0000190    -0.0807740
  N       -1.9265205     0.0126788     0.0118347
  C        0.9299840    -0.0000240    -0.0024660
  C        0.1996340     1.1955560    -0.0090950
  C        0.1996160    -1.1955790    -0.0091200
  C       -1.1907070     1.1396190     0.0037780
  C       -1.1907490    -1.1395810     0.0038230
  H        0.7091300     2.1568960    -0.0157440
  H        0.7090670    -2.1569450    -0.0157620
  H       -1.7857285     2.0517283     0.0064784
  H       -1.7697630    -2.0619320     0.0061490
  H        2.7609080    -0.8358400     0.2906890
  H        2.7608480     0.8359780     0.2902720
units angstrom
no_reorient  #important for SAPT in psi4, default
symmetry c1  #important for SAPT in psi4, default
}

set PROPERTIES_ORIGIN ["COM"]
properties('MP2/aug-cc-pvtz', properties = ['dipole'])
--------------------------------------------------------------------------

    Molecular point group: c1
  Charge       = 0
  Multiplicity = 1
  Basis Set: AUG-CC-PVTZ
    Blend: AUG-CC-PVTZ
  Basis Set: (AUG-CC-PVTZ AUX)
    Blend: AUG-CC-PVTZ-JKFIT

    Orbital Energies [Eh]
    ---------------------

    Doubly Occupied:

       1A    -15.586053     2A    -15.553718     3A    -11.304164
       4A    -11.277287     5A    -11.274497     6A    -11.233058
       7A    -11.231701     8A     -1.253523     9A     -1.222202
      10A     -1.052377    11A     -1.026625    12A     -0.856252
      13A     -0.842786    14A     -0.718200    15A     -0.709874
      16A     -0.655104    17A     -0.621125    18A     -0.607021
      19A     -0.589737    20A     -0.554668    21A     -0.508170
      22A     -0.485299    23A     -0.417879    24A     -0.347817
      25A     -0.334983

  @DF-RHF Final Energy:  -301.83546783638104

   => Energetics <=

    Nuclear Repulsion Energy =            273.2036467209309194
    One-Electron Energy =                -949.5499899234577015
    Two-Electron Energy =                 374.5108753661457399
    Total Energy =                       -301.8354678363810422
  Basis Set: (AUG-CC-PVTZ AUX)
    Blend: AUG-CC-PVTZ-RI
    Molecular point group: c1

    Geometry (in Angstrom), charge = 0, multiplicity = 1:

       Center              X                  Y                   Z               Mass
    ------------   -----------------  -----------------  -----------------  -----------------
         N            2.361838703525    -0.001794319172    -0.074864131878    14.003074004430
         N           -1.887545796475     0.010903480828     0.017744568122    14.003074004430
         C            0.968958703525    -0.001799319172     0.003443868122    12.000000000000
         C            0.238608703525     1.193780680828    -0.003185131878    12.000000000000
         C            0.238590703525    -1.197354319172    -0.003210131878    12.000000000000
         C           -1.151732296475     1.137843680828     0.009687868122    12.000000000000
         C           -1.151774296475    -1.141356319172     0.009732868122    12.000000000000
         H            0.748104703525     2.155120680828    -0.009834131878     1.007825032230
         H            0.748041703525    -2.158720319172    -0.009852131878     1.007825032230
         H           -1.746753796475     2.049952980828     0.012388268122     1.007825032230
         H           -1.730788296475    -2.063707319172     0.012058868122     1.007825032230
         H            2.799882703525    -0.837615319172     0.296598868122     1.007825032230
         H            2.799822703525     0.834202680828     0.296181868122     1.007825032230

  Basis Set: AUG-CC-PVTZ
    Blend: AUG-CC-PVTZ
  Basis Set: (AUG-CC-PVTZ AUX)
    Blend: AUG-CC-PVTZ-JKFIT
	 Reference Energy          =    -301.8354678363810422 [Eh]
	 Singles Energy            =      -0.0000000000000000 [Eh]
	 Same-Spin Energy          =      -0.3282320729010879 [Eh]
	 Opposite-Spin Energy      =      -1.0137495843925151 [Eh]
	 Correlation Energy        =      -1.3419816572936030 [Eh]
	 Total Energy              =    -303.1774494936746578 [Eh]

	 ================> DF-SCS-MP2 Energies <==================
	-----------------------------------------------------------
	 SCS Same-Spin Scale       =       0.3333333333333333 [-]
	 SCS Opposite-Spin Scale   =       1.2000000000000000 [-]
	 SCS Same-Spin Energy      =      -0.1094106909670293 [Eh]
	 SCS Opposite-Spin Energy  =      -1.2164995012710180 [Eh]
	 SCS Correlation Energy    =      -1.3259101922380474 [Eh]
	 SCS Total Energy          =    -303.1613780286190831 [Eh]
	-----------------------------------------------------------

  Dipole Moment: [D]
     X:     3.6434      Y:    -0.0310      Z:     0.9762     Total:     3.7721

*** Psi4 exiting successfully. Buy a developer a beer!
