                               Psi4 1.3.2 release

  ==> Input File <==

--------------------------------------------------------------------------
#psi4
#
memory 32 gb

molecule  {
0 1
  N        2.3228640    -0.0000190    -0.0807740
  N       -1.9460760     0.0256928     0.0119589
  C        0.9299840    -0.0000240    -0.0024660
  C        0.1996340     1.1955560    -0.0090950
  C        0.1996160    -1.1955790    -0.0091200
  C       -1.1907070     1.1396190     0.0037780
  C       -1.1907490    -1.1395810     0.0038230
  H        0.7091300     2.1568960    -0.0157440
  H        0.7090670    -2.1569450    -0.0157620
  H       -1.8015558     2.0412048     0.0066230
  H       -1.7697630    -2.0619320     0.0061490
  H        2.7609080    -0.8358400     0.2906890
  H        2.7608480     0.8359780     0.2902720
units angstrom
no_reorient  #important for SAPT in psi4, default
symmetry c1  #important for SAPT in psi4, default
}

set PROPERTIES_ORIGIN ["COM"]
properties('MP2/aug-cc-pvtz', properties = ['dipole'])
--------------------------------------------------------------------------

    Molecular point group: c1
  Charge       = 0
  Multiplicity = 1
  Basis Set: AUG-CC-PVTZ
    Blend: AUG-CC-PVTZ
  Basis Set: (AUG-CC-PVTZ AUX)
    Blend: AUG-CC-PVTZ-JKFIT

    Orbital Energies [Eh]
    ---------------------

    Doubly Occupied:

       1A    -15.586867     2A    -15.556315     3A    -11.305230
       4A    -11.279653     5A    -11.274220     6A    -11.234351
       7A    -11.231673     8A     -1.252040     9A     -1.219873
      10A     -1.053314    11A     -1.025376    12A     -0.855170
      13A     -0.842674    14A     -0.717969    15A     -0.709466
      16A     -0.655838    17A     -0.619753    18A     -0.606449
      19A     -0.589018    20A     -0.554103    21A     -0.505560
      22A     -0.483922    23A     -0.421392    24A     -0.348581
      25A     -0.334520

  @DF-RHF Final Energy:  -301.83262138471628

   => Energetics <=

    Nuclear Repulsion Energy =            272.7267638508008076
    One-Electron Energy =                -948.5921174069819699
    Two-Electron Energy =                 374.0327321714648861
    Total Energy =                       -301.8326213847162762
  Basis Set: (AUG-CC-PVTZ AUX)
    Blend: AUG-CC-PVTZ-RI
    Molecular point group: c1

    Geometry (in Angstrom), charge = 0, multiplicity = 1:

       Center              X                  Y                   Z               Mass
    ------------   -----------------  -----------------  -----------------  -----------------
         N            2.364919816942    -0.003619141125    -0.074884172827    14.003074004430
         N           -1.904020183058     0.022092658875     0.017848727173    14.003074004430
         C            0.972039816942    -0.003624141125     0.003423827173    12.000000000000
         C            0.241689816942     1.191955858875    -0.003205172827    12.000000000000
         C            0.241671816942    -1.199179141125    -0.003230172827    12.000000000000
         C           -1.148651183058     1.136018858875     0.009667827173    12.000000000000
         C           -1.148693183058    -1.143181141125     0.009712827173    12.000000000000
         H            0.751185816942     2.153295858875    -0.009854172827     1.007825032230
         H            0.751122816942    -2.160545141125    -0.009872172827     1.007825032230
         H           -1.759499983058     2.037604658875     0.012512827173     1.007825032230
         H           -1.727707183058    -2.065532141125     0.012038827173     1.007825032230
         H            2.802963816942    -0.839440141125     0.296578827173     1.007825032230
         H            2.802903816942     0.832377858875     0.296161827173     1.007825032230

  Basis Set: AUG-CC-PVTZ
    Blend: AUG-CC-PVTZ
  Basis Set: (AUG-CC-PVTZ AUX)
    Blend: AUG-CC-PVTZ-JKFIT
	 Reference Energy          =    -301.8326213847162762 [Eh]
	 Singles Energy            =      -0.0000000000000000 [Eh]
	 Same-Spin Energy          =      -0.3283665070872233 [Eh]
	 Opposite-Spin Energy      =      -1.0144327147830154 [Eh]
	 Correlation Energy        =      -1.3427992218702387 [Eh]
	 Total Energy              =    -303.1754206065864992 [Eh]

	 ================> DF-SCS-MP2 Energies <==================
	-----------------------------------------------------------
	 SCS Same-Spin Scale       =       0.3333333333333333 [-]
	 SCS Opposite-Spin Scale   =       1.2000000000000000 [-]
	 SCS Same-Spin Energy      =      -0.1094555023624078 [Eh]
	 SCS Opposite-Spin Energy  =      -1.2173192577396186 [Eh]
	 SCS Correlation Energy    =      -1.3267747601020263 [Eh]
	 SCS Total Energy          =    -303.1593961448182881 [Eh]
	-----------------------------------------------------------

  Dipole Moment: [D]
     X:     3.6908      Y:    -0.0613      Z:     0.9756     Total:     3.8181

*** Psi4 exiting successfully. Buy a developer a beer!
