                               Psi4 1.3.2 release

  ==> Input File <==

--------------------------------------------------------------------------
#psi4
#
memory 32 gb

molecule  {
0 1
  N        2.3228640    -0.0000190    -0.0807740
  N       -1.9067410     0.0000080     0.0117080
  C        0.8664104    -0.0366079    -0.0021598
  C        0.1996340     1.1955560    -0.0090950
  C        0.1996160    -1.1955790    -0.0091200
  C       -1.1907070     1.1396190     0.0037780
  C       -1.1907490    -1.1395810     0.0038230
  H        0.6581179     2.1822434    -0.0158418
  H        0.7090670    -2.1569450    -0.0157620
  H       -1.7697200     2.0619740     0.0063330
  H       -1.7697630    -2.0619320     0.0061490
  H        2.7609080    -0.8358400     0.2906890
  H        2.7608480     0.8359780     0.2902720
units angstrom
no_reorient  #important for SAPT in psi4, default
symmetry c1  #important for SAPT in psi4, default
}

set PROPERTIES_ORIGIN ["COM"]
properties('MP2/aug-cc-pvtz', properties = ['dipole'])
--------------------------------------------------------------------------

    Molecular point group: c1
  Charge       = 0
  Multiplicity = 1
  Basis Set: AUG-CC-PVTZ
    Blend: AUG-CC-PVTZ
  Basis Set: (AUG-CC-PVTZ AUX)
    Blend: AUG-CC-PVTZ-JKFIT

    Orbital Energies [Eh]
    ---------------------

    Doubly Occupied:

       1A    -15.576622     2A    -15.555333     3A    -11.298899
       4A    -11.279069     5A    -11.274281     6A    -11.234676
       7A    -11.229326     8A     -1.255788     9A     -1.205812
      10A     -1.061266    11A     -1.033344    12A     -0.863374
      13A     -0.841233    14A     -0.713628    15A     -0.701922
      16A     -0.654721    17A     -0.628294    18A     -0.595577
      19A     -0.592298    20A     -0.554530    21A     -0.521708
      22A     -0.476674    23A     -0.415476    24A     -0.352612
      25A     -0.342154

  @DF-RHF Final Energy:  -301.82986137933358

   => Energetics <=

    Nuclear Repulsion Energy =            274.1257529841502674
    One-Electron Energy =                -951.3939950023368510
    Two-Electron Energy =                 375.4383806388530047
    Total Energy =                       -301.8298613793335790
  Basis Set: (AUG-CC-PVTZ AUX)
    Blend: AUG-CC-PVTZ-RI
    Molecular point group: c1

    Geometry (in Angstrom), charge = 0, multiplicity = 1:

       Center              X                  Y                   Z               Mass
    ------------   -----------------  -----------------  -----------------  -----------------
         N            2.367380114834     0.004378420951    -0.074881729464    14.003074004430
         N           -1.862224885166     0.004405420951     0.017600270536    14.003074004430
         C            0.910926514834    -0.032210479049     0.003732470536    12.000000000000
         C            0.244150114834     1.199953420951    -0.003202729464    12.000000000000
         C            0.244132114834    -1.191181579049    -0.003227729464    12.000000000000
         C           -1.146190885166     1.144016420951     0.009670270536    12.000000000000
         C           -1.146232885166    -1.135183579049     0.009715270536    12.000000000000
         H            0.702634014834     2.186640820951    -0.009949529464     1.007825032230
         H            0.753583114834    -2.152547579049    -0.009869729464     1.007825032230
         H           -1.725203885166     2.066371420951     0.012225270536     1.007825032230
         H           -1.725246885166    -2.057534579049     0.012041270536     1.007825032230
         H            2.805424114834    -0.831442579049     0.296581270536     1.007825032230
         H            2.805364114834     0.840375420951     0.296164270536     1.007825032230

  Basis Set: AUG-CC-PVTZ
    Blend: AUG-CC-PVTZ
  Basis Set: (AUG-CC-PVTZ AUX)
    Blend: AUG-CC-PVTZ-JKFIT
	 Reference Energy          =    -301.8298613793335790 [Eh]
	 Singles Energy            =      -0.0000000000000000 [Eh]
	 Same-Spin Energy          =      -0.3279872979546457 [Eh]
	 Opposite-Spin Energy      =      -1.0133504503420632 [Eh]
	 Correlation Energy        =      -1.3413377482967088 [Eh]
	 Total Energy              =    -303.1711991276303024 [Eh]

	 ================> DF-SCS-MP2 Energies <==================
	-----------------------------------------------------------
	 SCS Same-Spin Scale       =       0.3333333333333333 [-]
	 SCS Opposite-Spin Scale   =       1.2000000000000000 [-]
	 SCS Same-Spin Energy      =      -0.1093290993182152 [Eh]
	 SCS Opposite-Spin Energy  =      -1.2160205404104758 [Eh]
	 SCS Correlation Energy    =      -1.3253496397286910 [Eh]
	 SCS Total Energy          =    -303.1552110190622784 [Eh]
	-----------------------------------------------------------

  Dipole Moment: [D]
     X:     3.1156      Y:    -0.0100      Z:     0.9904     Total:     3.2692

*** Psi4 exiting successfully. Buy a developer a beer!
