                               Psi4 1.3.2 release

  ==> Input File <==

--------------------------------------------------------------------------
#psi4
#
memory 32 gb

molecule  {
0 1
  N        2.3228640    -0.0000190    -0.0807740
  N       -1.9067410     0.0000080     0.0117080
  C        0.9299840    -0.0000240    -0.0024660
  C        0.2418023     1.2203176    -0.0087113
  C        0.2417835    -1.2203412    -0.0087368
  C       -1.1907070     1.1396190     0.0037780
  C       -1.1907490    -1.1395810     0.0038230
  H        0.7091300     2.1568960    -0.0157440
  H        0.7090670    -2.1569450    -0.0157620
  H       -1.7697200     2.0619740     0.0063330
  H       -1.7697630    -2.0619320     0.0061490
  H        2.7609080    -0.8358400     0.2906890
  H        2.7608480     0.8359780     0.2902720
units angstrom
no_reorient  #important for SAPT in psi4, default
symmetry c1  #important for SAPT in psi4, default
}

set PROPERTIES_ORIGIN ["COM"]
properties('MP2/aug-cc-pvtz', properties = ['dipole'])
--------------------------------------------------------------------------

    Molecular point group: c1
  Charge       = 0
  Multiplicity = 1
  Basis Set: AUG-CC-PVTZ
    Blend: AUG-CC-PVTZ
  Basis Set: (AUG-CC-PVTZ AUX)
    Blend: AUG-CC-PVTZ-JKFIT

    Orbital Energies [Eh]
    ---------------------

    Doubly Occupied:

       1A    -15.580492     2A    -15.554582     3A    -11.302488
       4A    -11.282203     5A    -11.282188     6A    -11.232542
       7A    -11.232524     8A     -1.252976     9A     -1.223166
      10A     -1.047539    11A     -1.021561    12A     -0.864936
      13A     -0.835303    14A     -0.715543    15A     -0.706939
      16A     -0.670986    17A     -0.619063    18A     -0.599535
      19A     -0.594105    20A     -0.551043    21A     -0.521773
      22A     -0.484620    23A     -0.413607    24A     -0.339281
      25A     -0.335891

  @DF-RHF Final Energy:  -301.82965931041650

   => Energetics <=

    Nuclear Repulsion Energy =            272.5138386468521503
    One-Electron Energy =                -948.1572240691466504
    Two-Electron Energy =                 373.8137261118779975
    Total Energy =                       -301.8296593104165026
  Basis Set: (AUG-CC-PVTZ AUX)
    Blend: AUG-CC-PVTZ-RI
    Molecular point group: c1

    Geometry (in Angstrom), charge = 0, multiplicity = 1:

       Center              X                  Y                   Z               Mass
    ------------   -----------------  -----------------  -----------------  -----------------
         N            2.347962104090    -0.000017541157    -0.074941557002    14.003074004430
         N           -1.881642895910     0.000009458843     0.017540442998    14.003074004430
         C            0.955082104090    -0.000022541157     0.003366442998    12.000000000000
         C            0.266900404090     1.220319058843    -0.002878857002    12.000000000000
         C            0.266881604090    -1.220339741157    -0.002904357002    12.000000000000
         C           -1.165608895910     1.139620458843     0.009610442998    12.000000000000
         C           -1.165650895910    -1.139579541157     0.009655442998    12.000000000000
         H            0.734228104090     2.156897458843    -0.009911557002     1.007825032230
         H            0.734165104090    -2.156943541157    -0.009929557002     1.007825032230
         H           -1.744621895910     2.061975458843     0.012165442998     1.007825032230
         H           -1.744664895910    -2.061930541157     0.011981442998     1.007825032230
         H            2.786006104090    -0.835838541157     0.296521442998     1.007825032230
         H            2.785946104090     0.835979458843     0.296104442998     1.007825032230

  Basis Set: AUG-CC-PVTZ
    Blend: AUG-CC-PVTZ
  Basis Set: (AUG-CC-PVTZ AUX)
    Blend: AUG-CC-PVTZ-JKFIT
	 Reference Energy          =    -301.8296593104165026 [Eh]
	 Singles Energy            =      -0.0000000000000000 [Eh]
	 Same-Spin Energy          =      -0.3280111754104189 [Eh]
	 Opposite-Spin Energy      =      -1.0136502020076015 [Eh]
	 Correlation Energy        =      -1.3416613774180204 [Eh]
	 Total Energy              =    -303.1713206878345090 [Eh]

	 ================> DF-SCS-MP2 Energies <==================
	-----------------------------------------------------------
	 SCS Same-Spin Scale       =       0.3333333333333333 [-]
	 SCS Opposite-Spin Scale   =       1.2000000000000000 [-]
	 SCS Same-Spin Energy      =      -0.1093370584701396 [Eh]
	 SCS Opposite-Spin Energy  =      -1.2163802424091217 [Eh]
	 SCS Correlation Energy    =      -1.3257173008792613 [Eh]
	 SCS Total Energy          =    -303.1553766112957646 [Eh]
	-----------------------------------------------------------

  Dipole Moment: [D]
     X:     3.5001      Y:     0.0002      Z:     0.9746     Total:     3.6333

*** Psi4 exiting successfully. Buy a developer a beer!
