                               Psi4 1.3.2 release

  ==> Input File <==

--------------------------------------------------------------------------
#psi4
#
memory 32 gb

molecule  {
0 1
  N        2.3228640    -0.0000190    -0.0807740
  N       -1.9067410     0.0000080     0.0117080
  C        0.8878134    -0.0247837    -0.0022598
  C        0.1996340     1.1955560    -0.0090950
  C        0.1996160    -1.1955790    -0.0091200
  C       -1.1907070     1.1396190     0.0037780
  C       -1.1907490    -1.1395810     0.0038230
  H        0.6752686     2.1740914    -0.0158113
  H        0.7090670    -2.1569450    -0.0157620
  H       -1.7697200     2.0619740     0.0063330
  H       -1.7697630    -2.0619320     0.0061490
  H        2.7609080    -0.8358400     0.2906890
  H        2.7608480     0.8359780     0.2902720
units angstrom
no_reorient  #important for SAPT in psi4, default
symmetry c1  #important for SAPT in psi4, default
}

set PROPERTIES_ORIGIN ["COM"]
properties('MP2/aug-cc-pvtz', properties = ['dipole'])
--------------------------------------------------------------------------

    Molecular point group: c1
  Charge       = 0
  Multiplicity = 1
  Basis Set: AUG-CC-PVTZ
    Blend: AUG-CC-PVTZ
  Basis Set: (AUG-CC-PVTZ AUX)
    Blend: AUG-CC-PVTZ-JKFIT

    Orbital Energies [Eh]
    ---------------------

    Doubly Occupied:

       1A    -15.579473     2A    -15.553958     3A    -11.300271
       4A    -11.277637     5A    -11.274436     6A    -11.233681
       7A    -11.230187     8A     -1.254867     9A     -1.212272
      10A     -1.057832    11A     -1.031657    12A     -0.861188
      13A     -0.841778    14A     -0.714804    15A     -0.704509
      16A     -0.654475    17A     -0.626206    18A     -0.598457
      19A     -0.593679    20A     -0.554429    21A     -0.518424
      22A     -0.480158    23A     -0.415113    24A     -0.350284
      25A     -0.340374

  @DF-RHF Final Energy:  -301.83408339429820

   => Energetics <=

    Nuclear Repulsion Energy =            273.9684244079338669
    One-Electron Energy =                -951.0847157700490015
    Two-Electron Energy =                 375.2822079678169302
    Total Energy =                       -301.8340833942982044
  Basis Set: (AUG-CC-PVTZ AUX)
    Blend: AUG-CC-PVTZ-RI
    Molecular point group: c1

    Geometry (in Angstrom), charge = 0, multiplicity = 1:

       Center              X                  Y                   Z               Mass
    ------------   -----------------  -----------------  -----------------  -----------------
         N            2.364465581341     0.002957153466    -0.074869297536    14.003074004430
         N           -1.865139418659     0.002984153466     0.017612702464    14.003074004430
         C            0.929414981341    -0.021807546534     0.003644902464    12.000000000000
         C            0.241235581341     1.198532153466    -0.003190297536    12.000000000000
         C            0.241217581341    -1.192602846534    -0.003215297536    12.000000000000
         C           -1.149105418659     1.142595153466     0.009682702464    12.000000000000
         C           -1.149147418659    -1.136604846534     0.009727702464    12.000000000000
         H            0.716870181341     2.177067553466    -0.009906597536     1.007825032230
         H            0.750668581341    -2.153968846534    -0.009857297536     1.007825032230
         H           -1.728118418659     2.064950153466     0.012237702464     1.007825032230
         H           -1.728161418659    -2.058955846534     0.012053702464     1.007825032230
         H            2.802509581341    -0.832863846534     0.296593702464     1.007825032230
         H            2.802449581341     0.838954153466     0.296176702464     1.007825032230

  Basis Set: AUG-CC-PVTZ
    Blend: AUG-CC-PVTZ
  Basis Set: (AUG-CC-PVTZ AUX)
    Blend: AUG-CC-PVTZ-JKFIT
	 Reference Energy          =    -301.8340833942982044 [Eh]
	 Singles Energy            =      -0.0000000000000000 [Eh]
	 Same-Spin Energy          =      -0.3280016306411212 [Eh]
	 Opposite-Spin Energy      =      -1.0131988702785986 [Eh]
	 Correlation Energy        =      -1.3412005009197197 [Eh]
	 Total Energy              =    -303.1752838952179445 [Eh]

	 ================> DF-SCS-MP2 Energies <==================
	-----------------------------------------------------------
	 SCS Same-Spin Scale       =       0.3333333333333333 [-]
	 SCS Opposite-Spin Scale   =       1.2000000000000000 [-]
	 SCS Same-Spin Energy      =      -0.1093338768803737 [Eh]
	 SCS Opposite-Spin Energy  =      -1.2158386443343183 [Eh]
	 SCS Correlation Energy    =      -1.3251725212146921 [Eh]
	 SCS Total Energy          =    -303.1592559155129152 [Eh]
	-----------------------------------------------------------

  Dipole Moment: [D]
     X:     3.2745      Y:    -0.0048      Z:     0.9861     Total:     3.4198

*** Psi4 exiting successfully. Buy a developer a beer!
