                               Psi4 1.4a3.dev225

  ==> Input File <==

--------------------------------------------------------------------------
#psi4
#
memory 32 gb

molecule  {
0 1
  N        2.3220460    -0.0000010    -0.0807810
  N       -1.9068710     0.0000000     0.0099480
  C        0.9306030     0.0000000    -0.0018200
  C        0.1994710     1.1952220    -0.0074850
  C        0.1994710    -1.1952220    -0.0074870
  C       -1.1908010     1.1392150     0.0036550
  C       -1.1908010    -1.1392150     0.0036580
  H        0.7083710     2.1567710    -0.0146740
  H        0.7083720    -2.1567700    -0.0146820
  H       -1.7582829     2.0451468     0.0067432
  H       -1.7689000    -2.0620960     0.0067980
  H        2.7635820    -0.8367020     0.2842420
  H        2.7635810     0.8367080     0.2842220
units angstrom
no_reorient  #important for SAPT in psi4, default
symmetry c1  #important for SAPT in psi4, default
}

set PROPERTIES_ORIGIN ["COM"]
properties('MP2/aug-cc-pvtz', properties = ['dipole'])
--------------------------------------------------------------------------

    Molecular point group: c1
  Charge       = 0
  Multiplicity = 1
  Basis Set: AUG-CC-PVTZ
    Blend: AUG-CC-PVTZ
  Basis Set: (AUG-CC-PVTZ AUX)
    Blend: AUG-CC-PVTZ-JKFIT

    Orbital Energies [Eh]
    ---------------------

    Doubly Occupied:

       1A    -15.585205     2A    -15.550627     3A    -11.302965
       4A    -11.274450     5A    -11.272280     6A    -11.231445
       7A    -11.231332     8A     -1.255625     9A     -1.224344
      10A     -1.051453    11A     -1.028136    12A     -0.858392
      13A     -0.843261    14A     -0.720240    15A     -0.710492
      16A     -0.654769    17A     -0.623082    18A     -0.608635
      19A     -0.590923    20A     -0.555336    21A     -0.511290
      22A     -0.486583    23A     -0.414007    24A     -0.347236
      25A     -0.334623

  @DF-RHF Final Energy:  -301.83746636312111

   => Energetics <=

    Nuclear Repulsion Energy =            273.8275285142797770
    One-Electron Energy =                -950.7965258949943745
    Two-Electron Energy =                 375.1315310175935451
    Total Energy =                       -301.8374663631211092
  Basis Set: (AUG-CC-PVTZ AUX)
    Blend: AUG-CC-PVTZ-RI
    Molecular point group: c1

    Geometry (in Angstrom), charge = 0, multiplicity = 1:

       Center              X                  Y                   Z               Mass
    ------------   -----------------  -----------------  -----------------  -----------------
         N            2.357850229166     0.000180692859    -0.074947550027    14.003074004430
         N           -1.871066770834     0.000181692859     0.015781449973    14.003074004430
         C            0.966407229166     0.000181692859     0.004013449973    12.000000000000
         C            0.235275229166     1.195403692859    -0.001651550027    12.000000000000
         C            0.235275229166    -1.195040307141    -0.001653550027    12.000000000000
         C           -1.154996770834     1.139396692859     0.009488449973    12.000000000000
         C           -1.154996770834    -1.139033307141     0.009491449973    12.000000000000
         H            0.744175229166     2.156952692859    -0.008840550027     1.007825032230
         H            0.744176229166    -2.156588307141    -0.008848550027     1.007825032230
         H           -1.722478670834     2.045328492859     0.012576649973     1.007825032230
         H           -1.733095770834    -2.061914307141     0.012631449973     1.007825032230
         H            2.799386229166    -0.836520307141     0.290075449973     1.007825032230
         H            2.799385229166     0.836889692859     0.290055449973     1.007825032230

  Basis Set: AUG-CC-PVTZ
    Blend: AUG-CC-PVTZ
  Basis Set: (AUG-CC-PVTZ AUX)
    Blend: AUG-CC-PVTZ-JKFIT
	 Reference Energy          =    -301.8374663631211092 [Eh]
	 Singles Energy            =      -0.0000000000000000 [Eh]
	 Same-Spin Energy          =      -0.3280710412314173 [Eh]
	 Opposite-Spin Energy      =      -1.0129517965029011 [Eh]
	 Correlation Energy        =      -1.3410228377343185 [Eh]
	 Total Energy              =    -303.1784892008554380 [Eh]

	 ================> DF-SCS-MP2 Energies <==================
	-----------------------------------------------------------
	 SCS Same-Spin Scale       =       0.3333333333333333 [-]
	 SCS Opposite-Spin Scale   =       1.2000000000000000 [-]
	 SCS Same-Spin Energy      =      -0.1093570137438058 [Eh]
	 SCS Opposite-Spin Energy  =      -1.2155421558034814 [Eh]
	 SCS Correlation Energy    =      -1.3248991695472871 [Eh]
	 SCS Total Energy          =    -303.1623655326683888 [Eh]
	-----------------------------------------------------------

  Dipole Moment: [D]
     X:     3.6157      Y:     0.0090      Z:     0.9642     Total:     3.7421

*** Psi4 exiting successfully. Buy a developer a beer!
