                               Psi4 1.3.2 release

  ==> Input File <==

--------------------------------------------------------------------------
#psi4
#
memory 32 gb

molecule  {
0 1
  N        2.3228640    -0.0000190    -0.0807740
  N       -1.9067410     0.0000080     0.0117080
  C        0.9299840    -0.0000240    -0.0024660
  C        0.2206101     1.2081208    -0.0089041
  C        0.2205917    -1.2081441    -0.0089294
  C       -1.1907070     1.1396190     0.0037780
  C       -1.1907490    -1.1395810     0.0038230
  H        0.7091300     2.1568960    -0.0157440
  H        0.7090670    -2.1569450    -0.0157620
  H       -1.7697200     2.0619740     0.0063330
  H       -1.7697630    -2.0619320     0.0061490
  H        2.7609080    -0.8358400     0.2906890
  H        2.7608480     0.8359780     0.2902720
units angstrom
no_reorient  #important for SAPT in psi4, default
symmetry c1  #important for SAPT in psi4, default
}

set PROPERTIES_ORIGIN ["COM"]
properties('MP2/aug-cc-pvtz', properties = ['dipole'])
--------------------------------------------------------------------------

    Molecular point group: c1
  Charge       = 0
  Multiplicity = 1
  Basis Set: AUG-CC-PVTZ
    Blend: AUG-CC-PVTZ
  Basis Set: (AUG-CC-PVTZ AUX)
    Blend: AUG-CC-PVTZ-JKFIT

    Orbital Energies [Eh]
    ---------------------

    Doubly Occupied:

       1A    -15.582858     2A    -15.552784     3A    -11.302689
       4A    -11.278494     5A    -11.278479     6A    -11.232100
       7A    -11.232082     8A     -1.254169     9A     -1.223595
      10A     -1.049595    11A     -1.024485    12A     -0.861295
      13A     -0.838728    14A     -0.716958    15A     -0.708494
      16A     -0.662690    17A     -0.620816    18A     -0.603599
      19A     -0.591859    20A     -0.553121    21A     -0.516831
      22A     -0.485593    23A     -0.413951    24A     -0.343264
      25A     -0.335505

  @DF-RHF Final Energy:  -301.83518821511836

   => Energetics <=

    Nuclear Repulsion Energy =            273.0916001416503605
    One-Electron Energy =                -949.3255156538955362
    Two-Electron Energy =                 374.3987272971268112
    Total Energy =                       -301.8351882151183645
  Basis Set: (AUG-CC-PVTZ AUX)
    Blend: AUG-CC-PVTZ-RI
    Molecular point group: c1

    Geometry (in Angstrom), charge = 0, multiplicity = 1:

       Center              X                  Y                   Z               Mass
    ------------   -----------------  -----------------  -----------------  -----------------
         N            2.353369772841    -0.000017579433    -0.074892384778    14.003074004430
         N           -1.876235227159     0.000009420567     0.017589615222    14.003074004430
         C            0.960489772841    -0.000022579433     0.003415615222    12.000000000000
         C            0.251115872841     1.208122220567    -0.003022484778    12.000000000000
         C            0.251097472841    -1.208142679433    -0.003047784778    12.000000000000
         C           -1.160201227159     1.139620420567     0.009659615222    12.000000000000
         C           -1.160243227159    -1.139579579433     0.009704615222    12.000000000000
         H            0.739635772841     2.156897420567    -0.009862384778     1.007825032230
         H            0.739572772841    -2.156943579433    -0.009880384778     1.007825032230
         H           -1.739214227159     2.061975420567     0.012214615222     1.007825032230
         H           -1.739257227159    -2.061930579433     0.012030615222     1.007825032230
         H            2.791413772841    -0.835838579433     0.296570615222     1.007825032230
         H            2.791353772841     0.835979420567     0.296153615222     1.007825032230

  Basis Set: AUG-CC-PVTZ
    Blend: AUG-CC-PVTZ
  Basis Set: (AUG-CC-PVTZ AUX)
    Blend: AUG-CC-PVTZ-JKFIT
	 Reference Energy          =    -301.8351882151183645 [Eh]
	 Singles Energy            =      -0.0000000000000000 [Eh]
	 Same-Spin Energy          =      -0.3280223430075780 [Eh]
	 Opposite-Spin Energy      =      -1.0132884874796315 [Eh]
	 Correlation Energy        =      -1.3413108304872097 [Eh]
	 Total Energy              =    -303.1764990456055671 [Eh]

	 ================> DF-SCS-MP2 Energies <==================
	-----------------------------------------------------------
	 SCS Same-Spin Scale       =       0.3333333333333333 [-]
	 SCS Opposite-Spin Scale   =       1.2000000000000000 [-]
	 SCS Same-Spin Energy      =      -0.1093407810025260 [Eh]
	 SCS Opposite-Spin Energy  =      -1.2159461849755577 [Eh]
	 SCS Correlation Energy    =      -1.3252869659780837 [Eh]
	 SCS Total Energy          =    -303.1604751810964444 [Eh]
	-----------------------------------------------------------

  Dipole Moment: [D]
     X:     3.5486      Y:     0.0002      Z:     0.9757     Total:     3.6803

*** Psi4 exiting successfully. Buy a developer a beer!
