                               Psi4 1.3.2 release

  ==> Input File <==

--------------------------------------------------------------------------
#psi4
#
memory 32 gb

molecule  {
0 1
  N        2.3228640    -0.0000190    -0.0807740
  N       -1.9067410     0.0000080     0.0117080
  C        0.9299840    -0.0000240    -0.0024660
  C        0.1996340     1.1955560    -0.0090950
  C        0.1996160    -1.1955790    -0.0091200
  C       -1.2309126     1.1639155     0.0042215
  C       -1.2309538    -1.1638761     0.0042675
  H        0.7091300     2.1568960    -0.0157440
  H        0.7090670    -2.1569450    -0.0157620
  H       -1.7697200     2.0619740     0.0063330
  H       -1.7697630    -2.0619320     0.0061490
  H        2.7609080    -0.8358400     0.2906890
  H        2.7608480     0.8359780     0.2902720
units angstrom
no_reorient  #important for SAPT in psi4, default
symmetry c1  #important for SAPT in psi4, default
}

set PROPERTIES_ORIGIN ["COM"]
properties('MP2/aug-cc-pvtz', properties = ['dipole'])
--------------------------------------------------------------------------

    Molecular point group: c1
  Charge       = 0
  Multiplicity = 1
  Basis Set: AUG-CC-PVTZ
    Blend: AUG-CC-PVTZ
  Basis Set: (AUG-CC-PVTZ AUX)
    Blend: AUG-CC-PVTZ-JKFIT

    Orbital Energies [Eh]
    ---------------------

    Doubly Occupied:

       1A    -15.582874     2A    -15.552413     3A    -11.300675
       4A    -11.277349     5A    -11.277331     6A    -11.236059
       7A    -11.236042     8A     -1.250839     9A     -1.221682
      10A     -1.045342    11A     -1.022209    12A     -0.863566
      13A     -0.839383    14A     -0.723147    15A     -0.705886
      16A     -0.657004    17A     -0.626108    18A     -0.611274
      19A     -0.588796    20A     -0.550759    21A     -0.523109
      22A     -0.484744    23A     -0.404389    24A     -0.338619
      25A     -0.334439

  @DF-RHF Final Energy:  -301.82967346923056

   => Energetics <=

    Nuclear Repulsion Energy =            272.2418417296694884
    One-Electron Energy =                -947.6349603568741031
    Two-Electron Energy =                 373.5634451579740016
    Total Energy =                       -301.8296734692305563
  Basis Set: (AUG-CC-PVTZ AUX)
    Blend: AUG-CC-PVTZ-RI
    Molecular point group: c1

    Geometry (in Angstrom), charge = 0, multiplicity = 1:

       Center              X                  Y                   Z               Mass
    ------------   -----------------  -----------------  -----------------  -----------------
         N            2.368981660466    -0.000017796332    -0.074957007849    14.003074004430
         N           -1.860623339534     0.000009203668     0.017524992151    14.003074004430
         C            0.976101660466    -0.000022796332     0.003350992151    12.000000000000
         C            0.245751660466     1.195557203668    -0.003278007849    12.000000000000
         C            0.245733660466    -1.195577796332    -0.003303007849    12.000000000000
         C           -1.184794939534     1.163916703668     0.010038492151    12.000000000000
         C           -1.184836139534    -1.163874896332     0.010084492151    12.000000000000
         H            0.755247660466     2.156897203668    -0.009927007849     1.007825032230
         H            0.755184660466    -2.156943796332    -0.009945007849     1.007825032230
         H           -1.723602339534     2.061975203668     0.012149992151     1.007825032230
         H           -1.723645339534    -2.061930796332     0.011965992151     1.007825032230
         H            2.807025660466    -0.835838796332     0.296505992151     1.007825032230
         H            2.806965660466     0.835979203668     0.296088992151     1.007825032230

  Basis Set: AUG-CC-PVTZ
    Blend: AUG-CC-PVTZ
  Basis Set: (AUG-CC-PVTZ AUX)
    Blend: AUG-CC-PVTZ-JKFIT
	 Reference Energy          =    -301.8296734692305563 [Eh]
	 Singles Energy            =      -0.0000000000000000 [Eh]
	 Same-Spin Energy          =      -0.3284620698721838 [Eh]
	 Opposite-Spin Energy      =      -1.0141653367125021 [Eh]
	 Correlation Energy        =      -1.3426274065846859 [Eh]
	 Total Energy              =    -303.1723008758152673 [Eh]

	 ================> DF-SCS-MP2 Energies <==================
	-----------------------------------------------------------
	 SCS Same-Spin Scale       =       0.3333333333333333 [-]
	 SCS Opposite-Spin Scale   =       1.2000000000000000 [-]
	 SCS Same-Spin Energy      =      -0.1094873566240613 [Eh]
	 SCS Opposite-Spin Energy  =      -1.2169984040550024 [Eh]
	 SCS Correlation Energy    =      -1.3264857606790637 [Eh]
	 SCS Total Energy          =    -303.1561592299096333 [Eh]
	-----------------------------------------------------------

  Dipole Moment: [D]
     X:     3.4501      Y:     0.0002      Z:     0.9786     Total:     3.5862

*** Psi4 exiting successfully. Buy a developer a beer!
