                               Psi4 1.3.2 release

  ==> Input File <==

--------------------------------------------------------------------------
#psi4
#
memory 32 gb

molecule  {
0 1
  N        2.3228640    -0.0000190    -0.0807740
  N       -1.9067410     0.0000080     0.0117080
  C        0.9299840    -0.0000240    -0.0024660
  C        0.1996340     1.1955560    -0.0090950
  C        0.1996160    -1.1955790    -0.0091200
  C       -1.1907070     1.1396190     0.0037780
  C       -1.1907490    -1.1395810     0.0038230
  H        0.7091300     2.1568960    -0.0157440
  H        0.7090670    -2.1569450    -0.0157620
  H       -1.7697200     2.0619740     0.0063330
  H       -1.7697630    -2.0619320     0.0061490
  H        2.7553267    -0.8408202     0.2859595
  H        2.7552666     0.8409554     0.2855402
units angstrom
no_reorient  #important for SAPT in psi4, default
symmetry c1  #important for SAPT in psi4, default
}

set PROPERTIES_ORIGIN ["COM"]
properties('MP2/aug-cc-pvtz', properties = ['dipole'])
--------------------------------------------------------------------------

    Molecular point group: c1
  Charge       = 0
  Multiplicity = 1
  Basis Set: AUG-CC-PVTZ
    Blend: AUG-CC-PVTZ
  Basis Set: (AUG-CC-PVTZ AUX)
    Blend: AUG-CC-PVTZ-JKFIT

    Orbital Energies [Eh]
    ---------------------

    Doubly Occupied:

       1A    -15.585298     2A    -15.550990     3A    -11.302944
       4A    -11.274815     5A    -11.274799     6A    -11.231678
       7A    -11.231661     8A     -1.255614     9A     -1.224244
      10A     -1.051451    11A     -1.027741    12A     -0.857767
      13A     -0.842182    14A     -0.717954    15A     -0.711446
      16A     -0.654317    17A     -0.623447    18A     -0.607066
      19A     -0.590276    20A     -0.555369    21A     -0.510591
      22A     -0.486650    23A     -0.413998    24A     -0.347450
      25A     -0.334925

  @DF-RHF Final Energy:  -301.83720475287168

   => Energetics <=

    Nuclear Repulsion Energy =            273.7096411434720835
    One-Electron Energy =                -950.5643485457285351
    Two-Electron Energy =                 375.0175026493848236
    Total Energy =                       -301.8372047528716848
  Basis Set: (AUG-CC-PVTZ AUX)
    Blend: AUG-CC-PVTZ-RI
    Molecular point group: c1

    Geometry (in Angstrom), charge = 0, multiplicity = 1:

       Center              X                  Y                   Z               Mass
    ------------   -----------------  -----------------  -----------------  -----------------
         N            2.358841912072    -0.000017587706    -0.074742327680    14.003074004430
         N           -1.870763087928     0.000009412294     0.017739672320    14.003074004430
         C            0.965961912072    -0.000022587706     0.003565672320    12.000000000000
         C            0.235611912072     1.195557412294    -0.003063327680    12.000000000000
         C            0.235593912072    -1.195577587706    -0.003088327680    12.000000000000
         C           -1.154729087928     1.139620412294     0.009809672320    12.000000000000
         C           -1.154771087928    -1.139579587706     0.009854672320    12.000000000000
         H            0.745107912072     2.156897412294    -0.009712327680     1.007825032230
         H            0.745044912072    -2.156943587706    -0.009730327680     1.007825032230
         H           -1.733742087928     2.061975412294     0.012364672320     1.007825032230
         H           -1.733785087928    -2.061930587706     0.012180672320     1.007825032230
         H            2.791304612072    -0.840818787706     0.291991172320     1.007825032230
         H            2.791244512072     0.840956812294     0.291571872320     1.007825032230

  Basis Set: AUG-CC-PVTZ
    Blend: AUG-CC-PVTZ
  Basis Set: (AUG-CC-PVTZ AUX)
    Blend: AUG-CC-PVTZ-JKFIT
	 Reference Energy          =    -301.8372047528716848 [Eh]
	 Singles Energy            =      -0.0000000000000000 [Eh]
	 Same-Spin Energy          =      -0.3281234998609562 [Eh]
	 Opposite-Spin Energy      =      -1.0131425899010693 [Eh]
	 Correlation Energy        =      -1.3412660897620254 [Eh]
	 Total Energy              =    -303.1784708426337147 [Eh]

	 ================> DF-SCS-MP2 Energies <==================
	-----------------------------------------------------------
	 SCS Same-Spin Scale       =       0.3333333333333333 [-]
	 SCS Opposite-Spin Scale   =       1.2000000000000000 [-]
	 SCS Same-Spin Energy      =      -0.1093744999536521 [Eh]
	 SCS Opposite-Spin Energy  =      -1.2157711078812832 [Eh]
	 SCS Correlation Energy    =      -1.3251456078349353 [Eh]
	 SCS Total Energy          =    -303.1623503607066255 [Eh]
	-----------------------------------------------------------

  Dipole Moment: [D]
     X:     3.5933      Y:     0.0002      Z:     0.9655     Total:     3.7207

*** Psi4 exiting successfully. Buy a developer a beer!
