                               Psi4 1.3.2 release

  ==> Input File <==

--------------------------------------------------------------------------
#psi4
#
memory 32 gb

molecule  {
0 1
  N        2.3228640    -0.0000190    -0.0807740
  N       -1.9067410     0.0000080     0.0117080
  C        0.9307807    -0.0220323     0.0079188
  C        0.1996340     1.1955560    -0.0090950
  C        0.1996160    -1.1955790    -0.0091200
  C       -1.1907070     1.1396190     0.0037780
  C       -1.1907490    -1.1395810     0.0038230
  H        0.7091300     2.1568960    -0.0157440
  H        0.7090670    -2.1569450    -0.0157620
  H       -1.7697200     2.0619740     0.0063330
  H       -1.7697630    -2.0619320     0.0061490
  H        2.7449037    -0.8422833     0.2946422
  H        2.7608480     0.8359780     0.2902720
units angstrom
no_reorient  #important for SAPT in psi4, default
symmetry c1  #important for SAPT in psi4, default
}

set PROPERTIES_ORIGIN ["COM"]
properties('MP2/aug-cc-pvtz', properties = ['dipole'])
--------------------------------------------------------------------------

    Molecular point group: c1
  Charge       = 0
  Multiplicity = 1
  Basis Set: AUG-CC-PVTZ
    Blend: AUG-CC-PVTZ
  Basis Set: (AUG-CC-PVTZ AUX)
    Blend: AUG-CC-PVTZ-JKFIT

    Orbital Energies [Eh]
    ---------------------

    Doubly Occupied:

       1A    -15.585474     2A    -15.551201     3A    -11.302777
       4A    -11.276019     5A    -11.273673     6A    -11.233270
       7A    -11.230325     8A     -1.255844     9A     -1.224622
      10A     -1.052021    11A     -1.027335    12A     -0.858200
      13A     -0.841652    14A     -0.718076    15A     -0.710916
      16A     -0.654446    17A     -0.623966    18A     -0.606379
      19A     -0.590155    20A     -0.555403    21A     -0.510180
      22A     -0.487177    23A     -0.414103    24A     -0.347915
      25A     -0.334919

  @DF-RHF Final Energy:  -301.83631688872038

   => Energetics <=

    Nuclear Repulsion Energy =            273.7089487767092351
    One-Electron Energy =                -950.5584343947759862
    Two-Electron Energy =                 375.0131687293463756
    Total Energy =                       -301.8363168887203756
  Basis Set: (AUG-CC-PVTZ AUX)
    Blend: AUG-CC-PVTZ-RI
    Molecular point group: c1

    Geometry (in Angstrom), charge = 0, multiplicity = 1:

       Center              X                  Y                   Z               Mass
    ------------   -----------------  -----------------  -----------------  -----------------
         N            2.358792143224     0.002859409462    -0.076211041327    14.003074004430
         N           -1.870812856776     0.002886409462     0.016270958673    14.003074004430
         C            0.966708843224    -0.019153890538     0.012481758673    12.000000000000
         C            0.235562143224     1.198434409462    -0.004532041327    12.000000000000
         C            0.235544143224    -1.192700590538    -0.004557041327    12.000000000000
         C           -1.154778856776     1.142497409462     0.008340958673    12.000000000000
         C           -1.154820856776    -1.136702590538     0.008385958673    12.000000000000
         H            0.745058143224     2.159774409462    -0.011181041327     1.007825032230
         H            0.744995143224    -2.154066590538    -0.011199041327     1.007825032230
         H           -1.733791856776     2.064852409462     0.010895958673     1.007825032230
         H           -1.733834856776    -2.059053590538     0.010711958673     1.007825032230
         H            2.780831843224    -0.839404890538     0.299205158673     1.007825032230
         H            2.796776143224     0.838856409462     0.294834958673     1.007825032230

  Basis Set: AUG-CC-PVTZ
    Blend: AUG-CC-PVTZ
  Basis Set: (AUG-CC-PVTZ AUX)
    Blend: AUG-CC-PVTZ-JKFIT
	 Reference Energy          =    -301.8363168887203756 [Eh]
	 Singles Energy            =      -0.0000000000000000 [Eh]
	 Same-Spin Energy          =      -0.3281380668147343 [Eh]
	 Opposite-Spin Energy      =      -1.0132413003277261 [Eh]
	 Correlation Energy        =      -1.3413793671424603 [Eh]
	 Total Energy              =    -303.1776962558628270 [Eh]

	 ================> DF-SCS-MP2 Energies <==================
	-----------------------------------------------------------
	 SCS Same-Spin Scale       =       0.3333333333333333 [-]
	 SCS Opposite-Spin Scale   =       1.2000000000000000 [-]
	 SCS Same-Spin Energy      =      -0.1093793556049114 [Eh]
	 SCS Opposite-Spin Energy  =      -1.2158895603932713 [Eh]
	 SCS Correlation Energy    =      -1.3252689159981828 [Eh]
	 SCS Total Energy          =    -303.1615858047185839 [Eh]
	-----------------------------------------------------------

  Dipole Moment: [D]
     X:     3.5779      Y:    -0.0070      Z:     0.9823     Total:     3.7103

*** Psi4 exiting successfully. Buy a developer a beer!
