                               Psi4 1.3.2 release

  ==> Input File <==

--------------------------------------------------------------------------
#psi4
#
memory 32 gb

molecule  {
0 1
  N        2.3228640    -0.0000190    -0.0807740
  N       -1.9067410     0.0000080     0.0117080
  C        0.9299840    -0.0000240    -0.0024660
  C        0.1996340     1.1955560    -0.0090950
  C        0.0953531    -1.3662493    -0.0100699
  C       -1.1907070     1.1396190     0.0037780
  C       -1.1907490    -1.1395810     0.0038230
  H        0.7091300     2.1568960    -0.0157440
  H        0.7090670    -2.1569450    -0.0157620
  H       -1.7697200     2.0619740     0.0063330
  H       -1.7697630    -2.0619320     0.0061490
  H        2.7609080    -0.8358400     0.2906890
  H        2.7608480     0.8359780     0.2902720
units angstrom
no_reorient  #important for SAPT in psi4, default
symmetry c1  #important for SAPT in psi4, default
}

set PROPERTIES_ORIGIN ["COM"]
properties('MP2/aug-cc-pvtz', properties = ['dipole'])
--------------------------------------------------------------------------

    Molecular point group: c1
  Charge       = 0
  Multiplicity = 1
  Basis Set: AUG-CC-PVTZ
    Blend: AUG-CC-PVTZ
  Basis Set: (AUG-CC-PVTZ AUX)
    Blend: AUG-CC-PVTZ-JKFIT

    Orbital Energies [Eh]
    ---------------------

    Doubly Occupied:

       1A    -15.594191     2A    -15.544434     3A    -11.321267
       4A    -11.280040     5A    -11.259347     6A    -11.235006
       7A    -11.227715     8A     -1.250741     9A     -1.224979
      10A     -1.041810    11A     -1.037246    12A     -0.860885
      13A     -0.833752    14A     -0.715575    15A     -0.712795
      16A     -0.689433    17A     -0.625154    18A     -0.602711
      19A     -0.586698    20A     -0.548856    21A     -0.491207
      22A     -0.477553    23A     -0.412987    24A     -0.363092
      25A     -0.322236

  @DF-RHF Final Energy:  -301.79707888961104

   => Energetics <=

    Nuclear Repulsion Energy =            271.6785575140982587
    One-Electron Energy =                -946.4318465364681288
    Two-Electron Energy =                 372.9562101327588834
    Total Energy =                       -301.7970788896110435
  Basis Set: (AUG-CC-PVTZ AUX)
    Blend: AUG-CC-PVTZ-RI
    Molecular point group: c1

    Geometry (in Angstrom), charge = 0, multiplicity = 1:

       Center              X                  Y                   Z               Mass
    ------------   -----------------  -----------------  -----------------  -----------------
         N            2.372024941395     0.021757779797    -0.074722514776    14.003074004430
         N           -1.857580058605     0.021784779797     0.017759485224    14.003074004430
         C            0.979144941395     0.021752779797     0.003585485224    12.000000000000
         C            0.248794941395     1.217332779797    -0.003043514776    12.000000000000
         C            0.144514041395    -1.344472520203    -0.004018414776    12.000000000000
         C           -1.141546058605     1.161395779797     0.009829485224    12.000000000000
         C           -1.141588058605    -1.117804220203     0.009874485224    12.000000000000
         H            0.758290941395     2.178672779797    -0.009692514776     1.007825032230
         H            0.758227941395    -2.135168220203    -0.009710514776     1.007825032230
         H           -1.720559058605     2.083750779797     0.012384485224     1.007825032230
         H           -1.720602058605    -2.040155220203     0.012200485224     1.007825032230
         H            2.810068941395    -0.814063220203     0.296740485224     1.007825032230
         H            2.810008941395     0.857754779797     0.296323485224     1.007825032230

  Basis Set: AUG-CC-PVTZ
    Blend: AUG-CC-PVTZ
  Basis Set: (AUG-CC-PVTZ AUX)
    Blend: AUG-CC-PVTZ-JKFIT
	 Reference Energy          =    -301.7970788896110435 [Eh]
	 Singles Energy            =      -0.0000000000000000 [Eh]
	 Same-Spin Energy          =      -0.3269102900763485 [Eh]
	 Opposite-Spin Energy      =      -1.0136064160473905 [Eh]
	 Correlation Energy        =      -1.3405167061237391 [Eh]
	 Total Energy              =    -303.1375955957348083 [Eh]

	 ================> DF-SCS-MP2 Energies <==================
	-----------------------------------------------------------
	 SCS Same-Spin Scale       =       0.3333333333333333 [-]
	 SCS Opposite-Spin Scale   =       1.2000000000000000 [-]
	 SCS Same-Spin Energy      =      -0.1089700966921162 [Eh]
	 SCS Opposite-Spin Energy  =      -1.2163276992568686 [Eh]
	 SCS Correlation Energy    =      -1.3252977959489847 [Eh]
	 SCS Total Energy          =    -303.1223766855600275 [Eh]
	-----------------------------------------------------------

  Dipole Moment: [D]
     X:     3.9291      Y:     0.0616      Z:     0.9616     Total:     4.0456

*** Psi4 exiting successfully. Buy a developer a beer!
