                               Psi4 1.3.2 release

  ==> Input File <==

--------------------------------------------------------------------------
#psi4
#
memory 32 gb

molecule  {
0 1
  N        2.3228640    -0.0000190    -0.0807740
  N       -1.9067410     0.0000080     0.0117080
  C        0.9299840    -0.0000240    -0.0024660
  C        0.1996340     1.1955560    -0.0090950
  C        0.1996160    -1.1955790    -0.0091200
  C       -1.1907070     1.1396190     0.0037780
  C       -1.1907490    -1.1395810     0.0038230
  H        0.7091300     2.1568960    -0.0157440
  H        0.7090670    -2.1569450    -0.0157620
  H       -1.7697200     2.0619740     0.0063330
  H       -1.7697630    -2.0619320     0.0061490
  H        2.7177140    -0.7534226     0.2540603
  H        2.7608480     0.8359780     0.2902720
units angstrom
no_reorient  #important for SAPT in psi4, default
symmetry c1  #important for SAPT in psi4, default
}

set PROPERTIES_ORIGIN ["COM"]
properties('MP2/aug-cc-pvtz', properties = ['dipole'])
--------------------------------------------------------------------------

    Molecular point group: c1
  Charge       = 0
  Multiplicity = 1
  Basis Set: AUG-CC-PVTZ
    Blend: AUG-CC-PVTZ
  Basis Set: (AUG-CC-PVTZ AUX)
    Blend: AUG-CC-PVTZ-JKFIT

    Orbital Energies [Eh]
    ---------------------

    Doubly Occupied:

       1A    -15.574690     2A    -15.551459     3A    -11.303195
       4A    -11.275138     5A    -11.274961     6A    -11.232200
       7A    -11.231863     8A     -1.261912     9A     -1.232219
      10A     -1.057200    11A     -1.028074    12A     -0.859273
      13A     -0.847044    14A     -0.730550    15A     -0.716392
      16A     -0.654843    17A     -0.630321    18A     -0.608812
      19A     -0.590681    20A     -0.556087    21A     -0.511252
      22A     -0.487992    23A     -0.414360    24A     -0.347661
      25A     -0.336139

  @DF-RHF Final Energy:  -301.83046645483012

   => Energetics <=

    Nuclear Repulsion Energy =            274.2470873355448475
    One-Electron Energy =                -951.5264686358697190
    Two-Electron Energy =                 375.4489148454947554
    Total Energy =                       -301.8304664548301162
  Basis Set: (AUG-CC-PVTZ AUX)
    Blend: AUG-CC-PVTZ-RI
    Molecular point group: c1

    Geometry (in Angstrom), charge = 0, multiplicity = 1:

       Center              X                  Y                   Z               Mass
    ------------   -----------------  -----------------  -----------------  -----------------
         N            2.359185143146    -0.000900760534    -0.074451215677    14.003074004430
         N           -1.870419856854    -0.000873760534     0.018030784323    14.003074004430
         C            0.966305143146    -0.000905760534     0.003856784323    12.000000000000
         C            0.235955143146     1.194674239466    -0.002772215677    12.000000000000
         C            0.235937143146    -1.196460760534    -0.002797215677    12.000000000000
         C           -1.154385856854     1.138737239466     0.010100784323    12.000000000000
         C           -1.154427856854    -1.140462760534     0.010145784323    12.000000000000
         H            0.745451143146     2.156014239466    -0.009421215677     1.007825032230
         H            0.745388143146    -2.157826760534    -0.009439215677     1.007825032230
         H           -1.733398856854     2.061092239466     0.012655784323     1.007825032230
         H           -1.733441856854    -2.062813760534     0.012471784323     1.007825032230
         H            2.754035143146    -0.754304360534     0.260383084323     1.007825032230
         H            2.797169143146     0.835096239466     0.296594784323     1.007825032230

  Basis Set: AUG-CC-PVTZ
    Blend: AUG-CC-PVTZ
  Basis Set: (AUG-CC-PVTZ AUX)
    Blend: AUG-CC-PVTZ-JKFIT
	 Reference Energy          =    -301.8304664548301162 [Eh]
	 Singles Energy            =      -0.0000000000000000 [Eh]
	 Same-Spin Energy          =      -0.3275586765999001 [Eh]
	 Opposite-Spin Energy      =      -1.0116283095343146 [Eh]
	 Correlation Energy        =      -1.3391869861342147 [Eh]
	 Total Energy              =    -303.1696534409643391 [Eh]

	 ================> DF-SCS-MP2 Energies <==================
	-----------------------------------------------------------
	 SCS Same-Spin Scale       =       0.3333333333333333 [-]
	 SCS Opposite-Spin Scale   =       1.2000000000000000 [-]
	 SCS Same-Spin Energy      =      -0.1091862255333000 [Eh]
	 SCS Opposite-Spin Energy  =      -1.2139539714411776 [Eh]
	 SCS Correlation Energy    =      -1.3231401969744776 [Eh]
	 SCS Total Energy          =    -303.1536066518045800 [Eh]
	-----------------------------------------------------------

  Dipole Moment: [D]
     X:     3.5535      Y:     0.0531      Z:     0.9611     Total:     3.6816

*** Psi4 exiting successfully. Buy a developer a beer!
