                               Psi4 1.3.2 release

  ==> Input File <==

--------------------------------------------------------------------------
#psi4
#
memory 32 gb

molecule  {
0 1
  N        2.3228640    -0.0000190    -0.0807740
  N       -1.9067410     0.0000080     0.0117080
  C        0.9299840    -0.0000240    -0.0024660
  C        0.2632042     1.2321426    -0.0085165
  C        0.2631849    -1.2321666    -0.0085423
  C       -1.1907070     1.1396190     0.0037780
  C       -1.1907490    -1.1395810     0.0038230
  H        0.7091300     2.1568960    -0.0157440
  H        0.7090670    -2.1569450    -0.0157620
  H       -1.7697200     2.0619740     0.0063330
  H       -1.7697630    -2.0619320     0.0061490
  H        2.7609080    -0.8358400     0.2906890
  H        2.7608480     0.8359780     0.2902720
units angstrom
no_reorient  #important for SAPT in psi4, default
symmetry c1  #important for SAPT in psi4, default
}

set PROPERTIES_ORIGIN ["COM"]
properties('MP2/aug-cc-pvtz', properties = ['dipole'])
--------------------------------------------------------------------------

    Molecular point group: c1
  Charge       = 0
  Multiplicity = 1
  Basis Set: AUG-CC-PVTZ
    Blend: AUG-CC-PVTZ
  Basis Set: (AUG-CC-PVTZ AUX)
    Blend: AUG-CC-PVTZ-JKFIT

    Orbital Energies [Eh]
    ---------------------

    Doubly Occupied:

       1A    -15.578141     2A    -15.556457     3A    -11.302479
       4A    -11.285920     5A    -11.285906     6A    -11.233062
       7A    -11.233043     8A     -1.251989     9A     -1.222909
      10A     -1.045475    11A     -1.018978    12A     -0.868557
      13A     -0.832333    14A     -0.714368    15A     -0.705637
      16A     -0.678972    17A     -0.617766    18A     -0.596853
      19A     -0.595493    20A     -0.549114    21A     -0.525262
      22A     -0.483804    23A     -0.412995    24A     -0.336259
      25A     -0.335486

  @DF-RHF Final Energy:  -301.82069198754112

   => Energetics <=

    Nuclear Repulsion Energy =            271.9583623666961785
    One-Electron Energy =                -947.0235957391635111
    Two-Electron Energy =                 373.2445413849262081
    Total Energy =                       -301.8206919875411245
  Basis Set: (AUG-CC-PVTZ AUX)
    Blend: AUG-CC-PVTZ-RI
    Molecular point group: c1

    Geometry (in Angstrom), charge = 0, multiplicity = 1:

       Center              X                  Y                   Z               Mass
    ------------   -----------------  -----------------  -----------------  -----------------
         N            2.342500937900    -0.000017490122    -0.074991226817    14.003074004430
         N           -1.887104062100     0.000009509878     0.017490773183    14.003074004430
         C            0.949620937900    -0.000022490122     0.003316773183    12.000000000000
         C            0.282841137900     1.232144109878    -0.002733726817    12.000000000000
         C            0.282821837900    -1.232165090122    -0.002759526817    12.000000000000
         C           -1.171070062100     1.139620509878     0.009560773183    12.000000000000
         C           -1.171112062100    -1.139579490122     0.009605773183    12.000000000000
         H            0.728766937900     2.156897509878    -0.009961226817     1.007825032230
         H            0.728703937900    -2.156943490122    -0.009979226817     1.007825032230
         H           -1.750083062100     2.061975509878     0.012115773183     1.007825032230
         H           -1.750126062100    -2.061930490122     0.011931773183     1.007825032230
         H            2.780544937900    -0.835838490122     0.296471773183     1.007825032230
         H            2.780484937900     0.835979509878     0.296054773183     1.007825032230

  Basis Set: AUG-CC-PVTZ
    Blend: AUG-CC-PVTZ
  Basis Set: (AUG-CC-PVTZ AUX)
    Blend: AUG-CC-PVTZ-JKFIT
	 Reference Energy          =    -301.8206919875411245 [Eh]
	 Singles Energy            =      -0.0000000000000000 [Eh]
	 Same-Spin Energy          =      -0.3280798161261095 [Eh]
	 Opposite-Spin Energy      =      -1.0142216126664598 [Eh]
	 Correlation Energy        =      -1.3423014287925694 [Eh]
	 Total Energy              =    -303.1629934163336770 [Eh]

	 ================> DF-SCS-MP2 Energies <==================
	-----------------------------------------------------------
	 SCS Same-Spin Scale       =       0.3333333333333333 [-]
	 SCS Opposite-Spin Scale   =       1.2000000000000000 [-]
	 SCS Same-Spin Energy      =      -0.1093599387087032 [Eh]
	 SCS Opposite-Spin Energy  =      -1.2170659351997517 [Eh]
	 SCS Correlation Energy    =      -1.3264258739084549 [Eh]
	 SCS Total Energy          =    -303.1471178614496012 [Eh]
	-----------------------------------------------------------

  Dipole Moment: [D]
     X:     3.4484      Y:     0.0002      Z:     0.9735     Total:     3.5832

*** Psi4 exiting successfully. Buy a developer a beer!
