                               Psi4 1.3.2 release

  ==> Input File <==

--------------------------------------------------------------------------
#psi4
#
memory 32 gb

molecule  {
0 1
  N        2.3219066     0.0486300    -0.0826607
  N       -1.9067410     0.0000080     0.0117080
  C        0.9299840    -0.0000240    -0.0024660
  C        0.2417145     1.2202432    -0.0124455
  C        0.1996160    -1.1955790    -0.0091200
  C       -1.1907070     1.1396190     0.0037780
  C       -1.1907490    -1.1395810     0.0038230
  H        0.7091300     2.1568960    -0.0157440
  H        0.7090670    -2.1569450    -0.0157620
  H       -1.7697200     2.0619740     0.0063330
  H       -1.7697630    -2.0619320     0.0061490
  H        2.7609080    -0.8358400     0.2906890
  H        2.7608480     0.8359780     0.2902720
units angstrom
no_reorient  #important for SAPT in psi4, default
symmetry c1  #important for SAPT in psi4, default
}

set PROPERTIES_ORIGIN ["COM"]
properties('MP2/aug-cc-pvtz', properties = ['dipole'])
--------------------------------------------------------------------------

    Molecular point group: c1
  Charge       = 0
  Multiplicity = 1
  Basis Set: AUG-CC-PVTZ
    Blend: AUG-CC-PVTZ
  Basis Set: (AUG-CC-PVTZ AUX)
    Blend: AUG-CC-PVTZ-JKFIT

    Orbital Energies [Eh]
    ---------------------

    Doubly Occupied:

       1A    -15.583039     2A    -15.552893     3A    -11.302952
       4A    -11.280363     5A    -11.276607     6A    -11.233521
       7A    -11.231023     8A     -1.254478     9A     -1.223992
      10A     -1.050250    11A     -1.024344    12A     -0.861676
      13A     -0.839442    14A     -0.722399    15A     -0.702644
      16A     -0.663730    17A     -0.624343    18A     -0.601229
      19A     -0.588878    20A     -0.553309    21A     -0.516229
      22A     -0.485892    23A     -0.413767    24A     -0.343979
      25A     -0.335092

  @DF-RHF Final Energy:  -301.82983918992346

   => Energetics <=

    Nuclear Repulsion Energy =            273.1162055154499626
    One-Electron Energy =                -949.3599480830166613
    Two-Electron Energy =                 374.4139033776431802
    Total Energy =                       -301.8298391899234616
  Basis Set: (AUG-CC-PVTZ AUX)
    Blend: AUG-CC-PVTZ-RI
    Molecular point group: c1

    Geometry (in Angstrom), charge = 0, multiplicity = 1:

       Center              X                  Y                   Z               Mass
    ------------   -----------------  -----------------  -----------------  -----------------
         N            2.352538494609     0.038238508840    -0.076022027317    14.003074004430
         N           -1.876109105391    -0.010383491160     0.018346672683    14.003074004430
         C            0.960615894609    -0.010415491160     0.004172672683    12.000000000000
         C            0.272346394609     1.209851708840    -0.005806827317    12.000000000000
         C            0.230247894609    -1.205970491160    -0.002481327317    12.000000000000
         C           -1.160075105391     1.129227508840     0.010416672683    12.000000000000
         C           -1.160117105391    -1.149972491160     0.010461672683    12.000000000000
         H            0.739761894609     2.146504508840    -0.009105327317     1.007825032230
         H            0.739698894609    -2.167336491160    -0.009123327317     1.007825032230
         H           -1.739088105391     2.051582508840     0.012971672683     1.007825032230
         H           -1.739131105391    -2.072323491160     0.012787672683     1.007825032230
         H            2.791539894609    -0.846231491160     0.297327672683     1.007825032230
         H            2.791479894609     0.825586508840     0.296910672683     1.007825032230

  Basis Set: AUG-CC-PVTZ
    Blend: AUG-CC-PVTZ
  Basis Set: (AUG-CC-PVTZ AUX)
    Blend: AUG-CC-PVTZ-JKFIT
	 Reference Energy          =    -301.8298391899234616 [Eh]
	 Singles Energy            =      -0.0000000000000000 [Eh]
	 Same-Spin Energy          =      -0.3281119214543348 [Eh]
	 Opposite-Spin Energy      =      -1.0135948924840852 [Eh]
	 Correlation Energy        =      -1.3417068139384201 [Eh]
	 Total Energy              =    -303.1715460038618630 [Eh]

	 ================> DF-SCS-MP2 Energies <==================
	-----------------------------------------------------------
	 SCS Same-Spin Scale       =       0.3333333333333333 [-]
	 SCS Opposite-Spin Scale   =       1.2000000000000000 [-]
	 SCS Same-Spin Energy      =      -0.1093706404847783 [Eh]
	 SCS Opposite-Spin Energy  =      -1.2163138709809023 [Eh]
	 SCS Correlation Energy    =      -1.3256845114656806 [Eh]
	 SCS Total Energy          =    -303.1555237013891428 [Eh]
	-----------------------------------------------------------

  Dipole Moment: [D]
     X:     3.5351      Y:    -0.0282      Z:     0.9810     Total:     3.6688

*** Psi4 exiting successfully. Buy a developer a beer!
