                               Psi4 1.4a3.dev225

  ==> Input File <==

--------------------------------------------------------------------------
#psi4
#
memory 32 gb

molecule  {
0 1
  N        2.3220460    -0.0000010    -0.0807810
  N       -1.9068710     0.0000000     0.0099480
  C        0.9306030     0.0000000    -0.0018200
  C        0.1994710     1.1952220    -0.0074850
  C        0.1994710    -1.1952220    -0.0074870
  C       -1.1908010     1.1392150     0.0036550
  C       -1.1908010    -1.1392150     0.0036580
  H        0.7083710     2.1567710    -0.0146740
  H        0.7083720    -2.1567700    -0.0146820
  H       -1.7423573     2.0197231     0.0066566
  H       -1.7689000    -2.0620960     0.0067980
  H        2.7635820    -0.8367020     0.2842420
  H        2.7635810     0.8367080     0.2842220
units angstrom
no_reorient  #important for SAPT in psi4, default
symmetry c1  #important for SAPT in psi4, default
}

set PROPERTIES_ORIGIN ["COM"]
properties('MP2/aug-cc-pvtz', properties = ['dipole'])
--------------------------------------------------------------------------

    Molecular point group: c1
  Charge       = 0
  Multiplicity = 1
  Basis Set: AUG-CC-PVTZ
    Blend: AUG-CC-PVTZ
  Basis Set: (AUG-CC-PVTZ AUX)
    Blend: AUG-CC-PVTZ-JKFIT

    Orbital Energies [Eh]
    ---------------------

    Doubly Occupied:

       1A    -15.585085     2A    -15.550345     3A    -11.302780
       4A    -11.274200     5A    -11.268711     6A    -11.231347
       7A    -11.231078     8A     -1.255532     9A     -1.224266
      10A     -1.051267    11A     -1.029029    12A     -0.859987
      13A     -0.844025    14A     -0.722416    15A     -0.710393
      16A     -0.655587    17A     -0.623352    18A     -0.610020
      19A     -0.591971    20A     -0.555182    21A     -0.512533
      22A     -0.486418    23A     -0.414128    24A     -0.347116
      25A     -0.334457

  @DF-RHF Final Energy:  -301.83658874193969

   => Energetics <=

    Nuclear Repulsion Energy =            273.9836168317406759
    One-Electron Energy =                -951.0979585118278692
    Two-Electron Energy =                 375.2777529381474437
    Total Energy =                       -301.8365887419396927
  Basis Set: (AUG-CC-PVTZ AUX)
    Blend: AUG-CC-PVTZ-RI
    Molecular point group: c1

    Geometry (in Angstrom), charge = 0, multiplicity = 1:

       Center              X                  Y                   Z               Mass
    ------------   -----------------  -----------------  -----------------  -----------------
         N            2.357679578559     0.000453120262    -0.074946622066    14.003074004430
         N           -1.871237421441     0.000454120262     0.015782377934    14.003074004430
         C            0.966236578559     0.000454120262     0.004014377934    12.000000000000
         C            0.235104578559     1.195676120262    -0.001650622066    12.000000000000
         C            0.235104578559    -1.194767879738    -0.001652622066    12.000000000000
         C           -1.155167421441     1.139669120262     0.009489377934    12.000000000000
         C           -1.155167421441    -1.138760879738     0.009492377934    12.000000000000
         H            0.744004578559     2.157225120262    -0.008839622066     1.007825032230
         H            0.744005578559    -2.156315879738    -0.008847622066     1.007825032230
         H           -1.706723721441     2.020177220262     0.012490977934     1.007825032230
         H           -1.733266421441    -2.061641879738     0.012632377934     1.007825032230
         H            2.799215578559    -0.836247879738     0.290076377934     1.007825032230
         H            2.799214578559     0.837162120262     0.290056377934     1.007825032230

  Basis Set: AUG-CC-PVTZ
    Blend: AUG-CC-PVTZ
  Basis Set: (AUG-CC-PVTZ AUX)
    Blend: AUG-CC-PVTZ-JKFIT
	 Reference Energy          =    -301.8365887419396927 [Eh]
	 Singles Energy            =      -0.0000000000000000 [Eh]
	 Same-Spin Energy          =      -0.3280150713328291 [Eh]
	 Opposite-Spin Energy      =      -1.0127692550292380 [Eh]
	 Correlation Energy        =      -1.3407843263620671 [Eh]
	 Total Energy              =    -303.1773730683017334 [Eh]

	 ================> DF-SCS-MP2 Energies <==================
	-----------------------------------------------------------
	 SCS Same-Spin Scale       =       0.3333333333333333 [-]
	 SCS Opposite-Spin Scale   =       1.2000000000000000 [-]
	 SCS Same-Spin Energy      =      -0.1093383571109430 [Eh]
	 SCS Opposite-Spin Energy  =      -1.2153231060350855 [Eh]
	 SCS Correlation Energy    =      -1.3246614631460285 [Eh]
	 SCS Total Energy          =    -303.1612502050857074 [Eh]
	-----------------------------------------------------------

  Dipole Moment: [D]
     X:     3.6127      Y:     0.0210      Z:     0.9642     Total:     3.7392

*** Psi4 exiting successfully. Buy a developer a beer!
