                               Psi4 1.4a3.dev225

  ==> Input File <==

--------------------------------------------------------------------------
#psi4
#
memory 32 gb

molecule  {
0 1
  N        2.3220460    -0.0000010    -0.0807810
  N       -1.9068710     0.0000000     0.0099480
  C        0.9505709    -0.0000000    -0.0029531
  C        0.1994710     1.1952220    -0.0074850
  C        0.1994710    -1.1952220    -0.0074870
  C       -1.1908010     1.1392150     0.0036550
  C       -1.1908010    -1.1392150     0.0036580
  H        0.7083710     2.1567710    -0.0146740
  H        0.7083720    -2.1567700    -0.0146820
  H       -1.7689000     2.0620960     0.0068010
  H       -1.7689000    -2.0620960     0.0067980
  H        2.7635820    -0.8367020     0.2842420
  H        2.7635810     0.8367080     0.2842220
units angstrom
no_reorient  #important for SAPT in psi4, default
symmetry c1  #important for SAPT in psi4, default
}

set PROPERTIES_ORIGIN ["COM"]
properties('MP2/aug-cc-pvtz', properties = ['dipole'])
--------------------------------------------------------------------------

    Molecular point group: c1
  Charge       = 0
  Multiplicity = 1
  Basis Set: AUG-CC-PVTZ
    Blend: AUG-CC-PVTZ
  Basis Set: (AUG-CC-PVTZ AUX)
    Blend: AUG-CC-PVTZ-JKFIT

    Orbital Energies [Eh]
    ---------------------

    Doubly Occupied:

       1A    -15.588081     2A    -15.549208     3A    -11.304782
       4A    -11.273900     5A    -11.273885     6A    -11.231402
       7A    -11.231387     8A     -1.258279     9A     -1.228495
      10A     -1.048818    11A     -1.025640    12A     -0.855932
      13A     -0.843271    14A     -0.721439    15A     -0.713634
      16A     -0.654114    17A     -0.621537    18A     -0.610868
      19A     -0.588098    20A     -0.556589    21A     -0.506529
      22A     -0.489443    23A     -0.413005    24A     -0.346405
      25A     -0.331769

  @DF-RHF Final Energy:  -301.83659985566879

   => Energetics <=

    Nuclear Repulsion Energy =            273.6025791998210366
    One-Electron Energy =                -950.3453336992206459
    Two-Electron Energy =                 374.9061546437307584
    Total Energy =                       -301.8365998556687941
  Basis Set: (AUG-CC-PVTZ AUX)
    Blend: AUG-CC-PVTZ-RI
    Molecular point group: c1

    Geometry (in Angstrom), charge = 0, multiplicity = 1:

       Center              X                  Y                   Z               Mass
    ------------   -----------------  -----------------  -----------------  -----------------
         N            2.355416342083    -0.000000926124    -0.074803599982    14.003074004430
         N           -1.873500657917     0.000000073876     0.015925400018    14.003074004430
         C            0.983941242083     0.000000073876     0.003024300018    12.000000000000
         C            0.232841342083     1.195222073876    -0.001507599982    12.000000000000
         C            0.232841342083    -1.195221926124    -0.001509599982    12.000000000000
         C           -1.157430657917     1.139215073876     0.009632400018    12.000000000000
         C           -1.157430657917    -1.139214926124     0.009635400018    12.000000000000
         H            0.741741342083     2.156771073876    -0.008696599982     1.007825032230
         H            0.741742342083    -2.156769926124    -0.008704599982     1.007825032230
         H           -1.735529657917     2.062096073876     0.012778400018     1.007825032230
         H           -1.735529657917    -2.062095926124     0.012775400018     1.007825032230
         H            2.796952342083    -0.836701926124     0.290219400018     1.007825032230
         H            2.796951342083     0.836708073876     0.290199400018     1.007825032230

  Basis Set: AUG-CC-PVTZ
    Blend: AUG-CC-PVTZ
  Basis Set: (AUG-CC-PVTZ AUX)
    Blend: AUG-CC-PVTZ-JKFIT
	 Reference Energy          =    -301.8365998556687941 [Eh]
	 Singles Energy            =      -0.0000000000000000 [Eh]
	 Same-Spin Energy          =      -0.3281950407993072 [Eh]
	 Opposite-Spin Energy      =      -1.0131527736911965 [Eh]
	 Correlation Energy        =      -1.3413478144905038 [Eh]
	 Total Energy              =    -303.1779476701593126 [Eh]

	 ================> DF-SCS-MP2 Energies <==================
	-----------------------------------------------------------
	 SCS Same-Spin Scale       =       0.3333333333333333 [-]
	 SCS Opposite-Spin Scale   =       1.2000000000000000 [-]
	 SCS Same-Spin Energy      =      -0.1093983469331024 [Eh]
	 SCS Opposite-Spin Energy  =      -1.2157833284294357 [Eh]
	 SCS Correlation Energy    =      -1.3251816753625381 [Eh]
	 SCS Total Energy          =    -303.1617815310313517 [Eh]
	-----------------------------------------------------------

  Dipole Moment: [D]
     X:     3.7702      Y:     0.0000      Z:     0.9592     Total:     3.8903

*** Psi4 exiting successfully. Buy a developer a beer!
