                               Psi4 1.3.2 release

  ==> Input File <==

--------------------------------------------------------------------------
#psi4
#
memory 32 gb

molecule  {
0 1
  N        2.3228640    -0.0000190    -0.0807740
  N       -1.9067410     0.0000080     0.0117080
  C        0.9299840    -0.0000240    -0.0024660
  C        0.1996340     1.1955560    -0.0090950
  C        0.1996160    -1.1955790    -0.0091200
  C       -1.1907070     1.1396190     0.0037780
  C       -1.1907490    -1.1395810     0.0038230
  H        0.7091300     2.1568960    -0.0157440
  H        0.7090670    -2.1569450    -0.0157620
  H       -1.7697200     2.0619740     0.0063330
  H       -1.7697630    -2.0619320     0.0061490
  H        2.6745200    -0.6710053     0.2174317
  H        2.7608480     0.8359780     0.2902720
units angstrom
no_reorient  #important for SAPT in psi4, default
symmetry c1  #important for SAPT in psi4, default
}

set PROPERTIES_ORIGIN ["COM"]
properties('MP2/aug-cc-pvtz', properties = ['dipole'])
--------------------------------------------------------------------------

    Molecular point group: c1
  Charge       = 0
  Multiplicity = 1
  Basis Set: AUG-CC-PVTZ
    Blend: AUG-CC-PVTZ
  Basis Set: (AUG-CC-PVTZ AUX)
    Blend: AUG-CC-PVTZ-JKFIT

    Orbital Energies [Eh]
    ---------------------

    Doubly Occupied:

       1A    -15.563097     2A    -15.551951     3A    -11.303419
       4A    -11.275513     5A    -11.275200     6A    -11.232750
       7A    -11.232162     8A     -1.275745     9A     -1.238664
      10A     -1.063923    11A     -1.028460    12A     -0.863020
      13A     -0.851629    14A     -0.747936    15A     -0.717741
      16A     -0.655379    17A     -0.635747    18A     -0.609713
      19A     -0.591087    20A     -0.556981    21A     -0.511916
      22A     -0.489463    23A     -0.414759    24A     -0.347941
      25A     -0.337345

  @DF-RHF Final Energy:  -301.79231064943286

   => Energetics <=

    Nuclear Repulsion Energy =            274.9047262415265322
    One-Electron Energy =                -952.6509909837300256
    Two-Electron Energy =                 375.9539540927706298
    Total Energy =                       -301.7923106494328636
  Basis Set: (AUG-CC-PVTZ AUX)
    Blend: AUG-CC-PVTZ-RI
    Molecular point group: c1

    Geometry (in Angstrom), charge = 0, multiplicity = 1:

       Center              X                  Y                   Z               Mass
    ------------   -----------------  -----------------  -----------------  -----------------
         N            2.359647988021    -0.001783902287    -0.074058722281    14.003074004430
         N           -1.869957011979    -0.001756902287     0.018423277719    14.003074004430
         C            0.966767988021    -0.001788902287     0.004249277719    12.000000000000
         C            0.236417988021     1.193791097713    -0.002379722281    12.000000000000
         C            0.236399988021    -1.197343902287    -0.002404722281    12.000000000000
         C           -1.153923011979     1.137854097713     0.010493277719    12.000000000000
         C           -1.153965011979    -1.141345902287     0.010538277719    12.000000000000
         H            0.745913988021     2.155131097713    -0.009028722281     1.007825032230
         H            0.745850988021    -2.158709902287    -0.009046722281     1.007825032230
         H           -1.732936011979     2.060209097713     0.013048277719     1.007825032230
         H           -1.732979011979    -2.063696902287     0.012864277719     1.007825032230
         H            2.711303988021    -0.672770202287     0.224146977719     1.007825032230
         H            2.797631988021     0.834213097713     0.296987277719     1.007825032230

  Basis Set: AUG-CC-PVTZ
    Blend: AUG-CC-PVTZ
  Basis Set: (AUG-CC-PVTZ AUX)
    Blend: AUG-CC-PVTZ-JKFIT
	 Reference Energy          =    -301.7923106494328636 [Eh]
	 Singles Energy            =      -0.0000000000000000 [Eh]
	 Same-Spin Energy          =      -0.3271100350252607 [Eh]
	 Opposite-Spin Energy      =      -1.0105317172867756 [Eh]
	 Correlation Energy        =      -1.3376417523120363 [Eh]
	 Total Energy              =    -303.1299524017449016 [Eh]

	 ================> DF-SCS-MP2 Energies <==================
	-----------------------------------------------------------
	 SCS Same-Spin Scale       =       0.3333333333333333 [-]
	 SCS Opposite-Spin Scale   =       1.2000000000000000 [-]
	 SCS Same-Spin Energy      =      -0.1090366783417536 [Eh]
	 SCS Opposite-Spin Energy  =      -1.2126380607441307 [Eh]
	 SCS Correlation Energy    =      -1.3216747390858843 [Eh]
	 SCS Total Energy          =    -303.1139853885187563 [Eh]
	-----------------------------------------------------------

  Dipole Moment: [D]
     X:     3.5044      Y:     0.1075      Z:     0.9471     Total:     3.6318

*** Psi4 exiting successfully. Buy a developer a beer!
