                               Psi4 1.3.2 release

  ==> Input File <==

--------------------------------------------------------------------------
#psi4
#
memory 32 gb

molecule  {
0 1
  N        2.3228640    -0.0000190    -0.0807740
  N       -1.9067410     0.0000080     0.0117080
  C        0.9090067    -0.0125879    -0.0023619
  C        0.1996340     1.1955560    -0.0090950
  C        0.1996160    -1.1955790    -0.0091200
  C       -1.1907070     1.1396190     0.0037780
  C       -1.1907490    -1.1395810     0.0038230
  H        0.6922743     2.1656415    -0.0157786
  H        0.7090670    -2.1569450    -0.0157620
  H       -1.7697200     2.0619740     0.0063330
  H       -1.7697630    -2.0619320     0.0061490
  H        2.7609080    -0.8358400     0.2906890
  H        2.7608480     0.8359780     0.2902720
units angstrom
no_reorient  #important for SAPT in psi4, default
symmetry c1  #important for SAPT in psi4, default
}

set PROPERTIES_ORIGIN ["COM"]
properties('MP2/aug-cc-pvtz', properties = ['dipole'])
--------------------------------------------------------------------------

    Molecular point group: c1
  Charge       = 0
  Multiplicity = 1
  Basis Set: AUG-CC-PVTZ
    Blend: AUG-CC-PVTZ
  Basis Set: (AUG-CC-PVTZ AUX)
    Blend: AUG-CC-PVTZ-JKFIT

    Orbital Energies [Eh]
    ---------------------

    Doubly Occupied:

       1A    -15.582341     2A    -15.552540     3A    -11.301671
       4A    -11.276217     5A    -11.274612     6A    -11.232702
       7A    -11.230994     8A     -1.254648     9A     -1.218569
      10A     -1.054602    11A     -1.029802    12A     -0.859241
      13A     -0.842240    14A     -0.716445    15A     -0.707300
      16A     -0.654327    17A     -0.624337    18A     -0.603410
      19A     -0.592123    20A     -0.554673    21A     -0.514706
      22A     -0.483533    23A     -0.414635    24A     -0.348593
      25A     -0.337984

  @DF-RHF Final Energy:  -301.83653348235214

   => Energetics <=

    Nuclear Repulsion Energy =            273.8237728422193413
    One-Electron Energy =                -950.7961234973968203
    Two-Electron Energy =                 375.1358171728253410
    Total Energy =                       -301.8365334823521380
  Basis Set: (AUG-CC-PVTZ AUX)
    Blend: AUG-CC-PVTZ-RI
    Molecular point group: c1

    Geometry (in Angstrom), charge = 0, multiplicity = 1:

       Center              X                  Y                   Z               Mass
    ------------   -----------------  -----------------  -----------------  -----------------
         N            2.361579356694     0.001491666609    -0.074856621249    14.003074004430
         N           -1.868025643306     0.001518666609     0.017625378751    14.003074004430
         C            0.947722056694    -0.011077233391     0.003555478751    12.000000000000
         C            0.238349356694     1.197066666609    -0.003177621249    12.000000000000
         C            0.238331356694    -1.194068333391    -0.003202621249    12.000000000000
         C           -1.151991643306     1.141129666609     0.009695378751    12.000000000000
         C           -1.152033643306    -1.138070333391     0.009740378751    12.000000000000
         H            0.730989656694     2.167152166609    -0.009861221249     1.007825032230
         H            0.747782356694    -2.155434333391    -0.009844621249     1.007825032230
         H           -1.731004643306     2.063484666609     0.012250378751     1.007825032230
         H           -1.731047643306    -2.060421333391     0.012066378751     1.007825032230
         H            2.799623356694    -0.834329333391     0.296606378751     1.007825032230
         H            2.799563356694     0.837488666609     0.296189378751     1.007825032230

  Basis Set: AUG-CC-PVTZ
    Blend: AUG-CC-PVTZ
  Basis Set: (AUG-CC-PVTZ AUX)
    Blend: AUG-CC-PVTZ-JKFIT
	 Reference Energy          =    -301.8365334823521380 [Eh]
	 Singles Energy            =      -0.0000000000000000 [Eh]
	 Same-Spin Energy          =      -0.3280451759464870 [Eh]
	 Opposite-Spin Energy      =      -1.0131298359153225 [Eh]
	 Correlation Energy        =      -1.3411750118618095 [Eh]
	 Total Energy              =    -303.1777084942139595 [Eh]

	 ================> DF-SCS-MP2 Energies <==================
	-----------------------------------------------------------
	 SCS Same-Spin Scale       =       0.3333333333333333 [-]
	 SCS Opposite-Spin Scale   =       1.2000000000000000 [-]
	 SCS Same-Spin Energy      =      -0.1093483919821623 [Eh]
	 SCS Opposite-Spin Energy  =      -1.2157558030983868 [Eh]
	 SCS Correlation Energy    =      -1.3251041950805491 [Eh]
	 SCS Total Energy          =    -303.1616376774326795 [Eh]
	-----------------------------------------------------------

  Dipole Moment: [D]
     X:     3.4337      Y:    -0.0014      Z:     0.9816     Total:     3.5712

*** Psi4 exiting successfully. Buy a developer a beer!
