                               Psi4 1.3.2 release

  ==> Input File <==

--------------------------------------------------------------------------
#psi4
#
memory 32 gb

molecule  {
0 1
  N        2.3228640    -0.0000190    -0.0807740
  N       -1.9067410     0.0000080     0.0117080
  C        0.9299840    -0.0000240    -0.0024660
  C        0.1996340     1.1955560    -0.0090950
  C        0.1996160    -1.1955790    -0.0091200
  C       -1.1907070     1.1396190     0.0037780
  C       -1.1907490    -1.1395810     0.0038230
  H        0.7091300     2.1568960    -0.0157440
  H        0.7090670    -2.1569450    -0.0157620
  H       -1.8228874     2.1466686     0.0065676
  H       -1.7697630    -2.0619320     0.0061490
  H        2.7609080    -0.8358400     0.2906890
  H        2.7608480     0.8359780     0.2902720
units angstrom
no_reorient  #important for SAPT in psi4, default
symmetry c1  #important for SAPT in psi4, default
}

set PROPERTIES_ORIGIN ["COM"]
properties('MP2/aug-cc-pvtz', properties = ['dipole'])
--------------------------------------------------------------------------

    Molecular point group: c1
  Charge       = 0
  Multiplicity = 1
  Basis Set: AUG-CC-PVTZ
    Blend: AUG-CC-PVTZ
  Basis Set: (AUG-CC-PVTZ AUX)
    Blend: AUG-CC-PVTZ-JKFIT

    Orbital Energies [Eh]
    ---------------------

    Doubly Occupied:

       1A    -15.585762     2A    -15.552330     3A    -11.303881
       4A    -11.286075     5A    -11.275837     6A    -11.232878
       7A    -11.232242     8A     -1.256179     9A     -1.224739
      10A     -1.052436    11A     -1.025943    12A     -0.855332
      13A     -0.839652    14A     -0.713517    15A     -0.710392
      16A     -0.652506    17A     -0.622724    18A     -0.604427
      19A     -0.584014    20A     -0.556029    21A     -0.505074
      22A     -0.487451    23A     -0.413526    24A     -0.348060
      25A     -0.335813

  @DF-RHF Final Energy:  -301.82981083348130

   => Energetics <=

    Nuclear Repulsion Energy =            273.2222718849889134
    One-Electron Energy =                -949.5905226482060471
    Two-Electron Energy =                 374.5384399297358300
    Total Energy =                       -301.8298108334813037
  Basis Set: (AUG-CC-PVTZ AUX)
    Blend: AUG-CC-PVTZ-RI
    Molecular point group: c1

    Geometry (in Angstrom), charge = 0, multiplicity = 1:

       Center              X                  Y                   Z               Mass
    ------------   -----------------  -----------------  -----------------  -----------------
         N            2.359292013014    -0.000925161848    -0.074846223999    14.003074004430
         N           -1.870312986986    -0.000898161848     0.017635776001    14.003074004430
         C            0.966412013014    -0.000930161848     0.003461776001    12.000000000000
         C            0.236062013014     1.194649838152    -0.003167223999    12.000000000000
         C            0.236044013014    -1.196485161848    -0.003192223999    12.000000000000
         C           -1.154278986986     1.138712838152     0.009705776001    12.000000000000
         C           -1.154320986986    -1.140487161848     0.009750776001    12.000000000000
         H            0.745558013014     2.155989838152    -0.009816223999     1.007825032230
         H            0.745495013014    -2.157851161848    -0.009834223999     1.007825032230
         H           -1.786459386986     2.145762438152     0.012495376001     1.007825032230
         H           -1.733334986986    -2.062838161848     0.012076776001     1.007825032230
         H            2.797336013014    -0.836746161848     0.296616776001     1.007825032230
         H            2.797276013014     0.835071838152     0.296199776001     1.007825032230

  Basis Set: AUG-CC-PVTZ
    Blend: AUG-CC-PVTZ
  Basis Set: (AUG-CC-PVTZ AUX)
    Blend: AUG-CC-PVTZ-JKFIT
	 Reference Energy          =    -301.8298108334813037 [Eh]
	 Singles Energy            =      -0.0000000000000000 [Eh]
	 Same-Spin Energy          =      -0.3283829111711227 [Eh]
	 Opposite-Spin Energy      =      -1.0141148831844804 [Eh]
	 Correlation Energy        =      -1.3424977943556031 [Eh]
	 Total Energy              =    -303.1723086278369124 [Eh]

	 ================> DF-SCS-MP2 Energies <==================
	-----------------------------------------------------------
	 SCS Same-Spin Scale       =       0.3333333333333333 [-]
	 SCS Opposite-Spin Scale   =       1.2000000000000000 [-]
	 SCS Same-Spin Energy      =      -0.1094609703903742 [Eh]
	 SCS Opposite-Spin Energy  =      -1.2169378598213765 [Eh]
	 SCS Correlation Energy    =      -1.3263988302117506 [Eh]
	 SCS Total Energy          =    -303.1562096636930619 [Eh]
	-----------------------------------------------------------

  Dipole Moment: [D]
     X:     3.6134      Y:    -0.0569      Z:     0.9767     Total:     3.7435

*** Psi4 exiting successfully. Buy a developer a beer!
