                               Psi4 1.3.2 release

  ==> Input File <==

--------------------------------------------------------------------------
#psi4
#
memory 32 gb

molecule  {
0 1
  N        2.3228640    -0.0000190    -0.0807740
  N       -1.9067410     0.0000080     0.0117080
  C        0.9299840    -0.0000240    -0.0024660
  C        0.1996340     1.1955560    -0.0090950
  C        0.1996160    -1.1955790    -0.0091200
  C       -1.1709283     1.1269481     0.0035598
  C       -1.1709707    -1.1269109     0.0036043
  H        0.7091300     2.1568960    -0.0157440
  H        0.7090670    -2.1569450    -0.0157620
  H       -1.7697200     2.0619740     0.0063330
  H       -1.7697630    -2.0619320     0.0061490
  H        2.7609080    -0.8358400     0.2906890
  H        2.7608480     0.8359780     0.2902720
units angstrom
no_reorient  #important for SAPT in psi4, default
symmetry c1  #important for SAPT in psi4, default
}

set PROPERTIES_ORIGIN ["COM"]
properties('MP2/aug-cc-pvtz', properties = ['dipole'])
--------------------------------------------------------------------------

    Molecular point group: c1
  Charge       = 0
  Multiplicity = 1
  Basis Set: AUG-CC-PVTZ
    Blend: AUG-CC-PVTZ
  Basis Set: (AUG-CC-PVTZ AUX)
    Blend: AUG-CC-PVTZ-JKFIT

    Orbital Energies [Eh]
    ---------------------

    Doubly Occupied:

       1A    -15.586520     2A    -15.550616     3A    -11.304420
       4A    -11.273702     5A    -11.273688     6A    -11.229722
       7A    -11.229705     8A     -1.258251     9A     -1.225579
      10A     -1.055198    11A     -1.031073    12A     -0.854513
      13A     -0.844752    14A     -0.717225    15A     -0.712442
      16A     -0.653470    17A     -0.623567    18A     -0.603990
      19A     -0.590173    20A     -0.557884    21A     -0.502401
      22A     -0.487867    23A     -0.418712    24A     -0.352065
      25A     -0.335562

  @DF-RHF Final Energy:  -301.83601607214649

   => Energetics <=

    Nuclear Repulsion Energy =            274.4417520713641352
    One-Electron Energy =                -952.0093381103800994
    Two-Electron Energy =                 375.7315699668694720
    Total Energy =                       -301.8360160721464922
  Basis Set: (AUG-CC-PVTZ AUX)
    Blend: AUG-CC-PVTZ-RI
    Molecular point group: c1

    Geometry (in Angstrom), charge = 0, multiplicity = 1:

       Center              X                  Y                   Z               Mass
    ------------   -----------------  -----------------  -----------------  -----------------
         N            2.353675319394    -0.000017515639    -0.074787967165    14.003074004430
         N           -1.875929680606     0.000009484361     0.017694032835    14.003074004430
         C            0.960795319394    -0.000022515639     0.003520032835    12.000000000000
         C            0.230445319394     1.195557484361    -0.003108967165    12.000000000000
         C            0.230427319394    -1.195577515639    -0.003133967165    12.000000000000
         C           -1.140116980606     1.126949584361     0.009545832835    12.000000000000
         C           -1.140159380606    -1.126909415639     0.009590332835    12.000000000000
         H            0.739941319394     2.156897484361    -0.009757967165     1.007825032230
         H            0.739878319394    -2.156943515639    -0.009775967165     1.007825032230
         H           -1.738908680606     2.061975484361     0.012319032835     1.007825032230
         H           -1.738951680606    -2.061930515639     0.012135032835     1.007825032230
         H            2.791719319394    -0.835838515639     0.296675032835     1.007825032230
         H            2.791659319394     0.835979484361     0.296258032835     1.007825032230

  Basis Set: AUG-CC-PVTZ
    Blend: AUG-CC-PVTZ
  Basis Set: (AUG-CC-PVTZ AUX)
    Blend: AUG-CC-PVTZ-JKFIT
	 Reference Energy          =    -301.8360160721464922 [Eh]
	 Singles Energy            =      -0.0000000000000000 [Eh]
	 Same-Spin Energy          =      -0.3280633706872623 [Eh]
	 Opposite-Spin Energy      =      -1.0129463268429224 [Eh]
	 Correlation Energy        =      -1.3410096975301846 [Eh]
	 Total Energy              =    -303.1770257696766748 [Eh]

	 ================> DF-SCS-MP2 Energies <==================
	-----------------------------------------------------------
	 SCS Same-Spin Scale       =       0.3333333333333333 [-]
	 SCS Opposite-Spin Scale   =       1.2000000000000000 [-]
	 SCS Same-Spin Energy      =      -0.1093544568957541 [Eh]
	 SCS Opposite-Spin Energy  =      -1.2155355922115068 [Eh]
	 SCS Correlation Energy    =      -1.3248900491072608 [Eh]
	 SCS Total Energy          =    -303.1609061212537313 [Eh]
	-----------------------------------------------------------

  Dipole Moment: [D]
     X:     3.6698      Y:     0.0002      Z:     0.9758     Total:     3.7973

*** Psi4 exiting successfully. Buy a developer a beer!
