                               Psi4 1.3.2 release

  ==> Input File <==

--------------------------------------------------------------------------
#psi4
#
memory 32 gb

molecule  {
0 1
  N        2.3228640    -0.0000190    -0.0807740
  N       -1.9067410     0.0000080     0.0117080
  C        0.9299840    -0.0000240    -0.0024660
  C        0.1996340     1.1955560    -0.0090950
  C        0.1996160    -1.1955790    -0.0091200
  C       -1.1907070     1.1396190     0.0037780
  C       -1.1907490    -1.1395810     0.0038230
  H        0.7091300     2.1568960    -0.0157440
  H        0.7090670    -2.1569450    -0.0157620
  H       -1.7697200     2.0619740     0.0063330
  H       -1.7697630    -2.0619320     0.0061490
  H        2.7269348    -0.8647532     0.2619001
  H        2.7268744     0.8648745     0.2614701
units angstrom
no_reorient  #important for SAPT in psi4, default
symmetry c1  #important for SAPT in psi4, default
}

set PROPERTIES_ORIGIN ["COM"]
properties('MP2/aug-cc-pvtz', properties = ['dipole'])
--------------------------------------------------------------------------

    Molecular point group: c1
  Charge       = 0
  Multiplicity = 1
  Basis Set: AUG-CC-PVTZ
    Blend: AUG-CC-PVTZ
  Basis Set: (AUG-CC-PVTZ AUX)
    Blend: AUG-CC-PVTZ-JKFIT

    Orbital Energies [Eh]
    ---------------------

    Doubly Occupied:

       1A    -15.585571     2A    -15.550559     3A    -11.302262
       4A    -11.274835     5A    -11.274819     6A    -11.231360
       7A    -11.231343     8A     -1.255823     9A     -1.224482
      10A     -1.050571    11A     -1.027716    12A     -0.858451
      13A     -0.840421    14A     -0.717495    15A     -0.714958
      16A     -0.654155    17A     -0.626137    18A     -0.604699
      19A     -0.590312    20A     -0.555437    21A     -0.510778
      22A     -0.486281    23A     -0.413738    24A     -0.347522
      25A     -0.334009

  @DF-RHF Final Energy:  -301.83630158965553

   => Energetics <=

    Nuclear Repulsion Energy =            273.8028690189909753
    One-Electron Energy =                -950.7508754304340073
    Two-Electron Energy =                 375.1117048217874412
    Total Energy =                       -301.8363015896555339
  Basis Set: (AUG-CC-PVTZ AUX)
    Blend: AUG-CC-PVTZ-RI
    Molecular point group: c1

    Geometry (in Angstrom), charge = 0, multiplicity = 1:

       Center              X                  Y                   Z               Mass
    ------------   -----------------  -----------------  -----------------  -----------------
         N            2.359450381527    -0.000017438760    -0.074226596505    14.003074004430
         N           -1.870154618473     0.000009561240     0.018255403495    14.003074004430
         C            0.966570381527    -0.000022438760     0.004081403495    12.000000000000
         C            0.236220381527     1.195557561240    -0.002547596505    12.000000000000
         C            0.236202381527    -1.195577438760    -0.002572596505    12.000000000000
         C           -1.154120618473     1.139620561240     0.010325403495    12.000000000000
         C           -1.154162618473    -1.139579438760     0.010370403495    12.000000000000
         H            0.745716381527     2.156897561240    -0.009196596505     1.007825032230
         H            0.745653381527    -2.156943438760    -0.009214596505     1.007825032230
         H           -1.733133618473     2.061975561240     0.012880403495     1.007825032230
         H           -1.733176618473    -2.061930438760     0.012696403495     1.007825032230
         H            2.763521181527    -0.864751638760     0.268447503495     1.007825032230
         H            2.763460781527     0.864876061240     0.268017503495     1.007825032230

  Basis Set: AUG-CC-PVTZ
    Blend: AUG-CC-PVTZ
  Basis Set: (AUG-CC-PVTZ AUX)
    Blend: AUG-CC-PVTZ-JKFIT
	 Reference Energy          =    -301.8363015896555339 [Eh]
	 Singles Energy            =      -0.0000000000000000 [Eh]
	 Same-Spin Energy          =      -0.3282020322174035 [Eh]
	 Opposite-Spin Energy      =      -1.0132047477200243 [Eh]
	 Correlation Energy        =      -1.3414067799374279 [Eh]
	 Total Energy              =    -303.1777083695929491 [Eh]

	 ================> DF-SCS-MP2 Energies <==================
	-----------------------------------------------------------
	 SCS Same-Spin Scale       =       0.3333333333333333 [-]
	 SCS Opposite-Spin Scale   =       1.2000000000000000 [-]
	 SCS Same-Spin Energy      =      -0.1094006774058012 [Eh]
	 SCS Opposite-Spin Energy  =      -1.2158456972640292 [Eh]
	 SCS Correlation Energy    =      -1.3252463746698304 [Eh]
	 SCS Total Energy          =    -303.1615479643253366 [Eh]
	-----------------------------------------------------------

  Dipole Moment: [D]
     X:     3.5927      Y:     0.0002      Z:     0.9079     Total:     3.7056

*** Psi4 exiting successfully. Buy a developer a beer!
