                               Psi4 1.3.2 release

  ==> Input File <==

--------------------------------------------------------------------------
#psi4
#
memory 32 gb

molecule  {
0 1
  N        2.3228640    -0.0000190    -0.0807740
  N       -1.9067410     0.0000080     0.0117080
  C        0.9303293    -0.0110286     0.0027296
  C        0.1996340     1.1955560    -0.0090950
  C        0.1996160    -1.1955790    -0.0091200
  C       -1.1907070     1.1396190     0.0037780
  C       -1.1907490    -1.1395810     0.0038230
  H        0.7091300     2.1568960    -0.0157440
  H        0.7090670    -2.1569450    -0.0157620
  H       -1.7697200     2.0619740     0.0063330
  H       -1.7697630    -2.0619320     0.0061490
  H        2.7529222    -0.8390936     0.2926798
  H        2.7608480     0.8359780     0.2902720
units angstrom
no_reorient  #important for SAPT in psi4, default
symmetry c1  #important for SAPT in psi4, default
}

set PROPERTIES_ORIGIN ["COM"]
properties('MP2/aug-cc-pvtz', properties = ['dipole'])
--------------------------------------------------------------------------

    Molecular point group: c1
  Charge       = 0
  Multiplicity = 1
  Basis Set: AUG-CC-PVTZ
    Blend: AUG-CC-PVTZ
  Basis Set: (AUG-CC-PVTZ AUX)
    Blend: AUG-CC-PVTZ-JKFIT

    Orbital Energies [Eh]
    ---------------------

    Doubly Occupied:

       1A    -15.585356     2A    -15.551129     3A    -11.302939
       4A    -11.275413     5A    -11.274240     6A    -11.232510
       7A    -11.231032     8A     -1.255708     9A     -1.224413
      10A     -1.051690    11A     -1.027653    12A     -0.857819
      13A     -0.842214    14A     -0.718220    15A     -0.710677
      16A     -0.654372    17A     -0.623211    18A     -0.607111
      19A     -0.590252    20A     -0.555370    21A     -0.510445
      22A     -0.486955    23A     -0.414079    24A     -0.347565
      25A     -0.335106

  @DF-RHF Final Energy:  -301.83696118615450

   => Energetics <=

    Nuclear Repulsion Energy =            273.7004819892763976
    One-Electron Energy =                -950.5439310349577227
    Two-Electron Energy =                 375.0064878595268851
    Total Energy =                       -301.8369611861544968
  Basis Set: (AUG-CC-PVTZ AUX)
    Blend: AUG-CC-PVTZ-RI
    Molecular point group: c1

    Geometry (in Angstrom), charge = 0, multiplicity = 1:

       Center              X                  Y                   Z               Mass
    ------------   -----------------  -----------------  -----------------  -----------------
         N            2.358763814067     0.001421295651    -0.075527936176    14.003074004430
         N           -1.870841185933     0.001448295651     0.016954063824    14.003074004430
         C            0.966229114067    -0.009588304349     0.007975663824    12.000000000000
         C            0.235533814067     1.196996295651    -0.003848936176    12.000000000000
         C            0.235515814067    -1.194138704349    -0.003873936176    12.000000000000
         C           -1.154807185933     1.141059295651     0.009024063824    12.000000000000
         C           -1.154849185933    -1.138140704349     0.009069063824    12.000000000000
         H            0.745029814067     2.158336295651    -0.010497936176     1.007825032230
         H            0.744966814067    -2.155504704349    -0.010515936176     1.007825032230
         H           -1.733820185933     2.063414295651     0.011579063824     1.007825032230
         H           -1.733863185933    -2.060491704349     0.011395063824     1.007825032230
         H            2.788822014067    -0.837653304349     0.297925863824     1.007825032230
         H            2.796747814067     0.837418295651     0.295518063824     1.007825032230

  Basis Set: AUG-CC-PVTZ
    Blend: AUG-CC-PVTZ
  Basis Set: (AUG-CC-PVTZ AUX)
    Blend: AUG-CC-PVTZ-JKFIT
	 Reference Energy          =    -301.8369611861544968 [Eh]
	 Singles Energy            =      -0.0000000000000000 [Eh]
	 Same-Spin Energy          =      -0.3281266363728274 [Eh]
	 Opposite-Spin Energy      =      -1.0131797929766622 [Eh]
	 Correlation Energy        =      -1.3413064293494896 [Eh]
	 Total Energy              =    -303.1782676155040122 [Eh]

	 ================> DF-SCS-MP2 Energies <==================
	-----------------------------------------------------------
	 SCS Same-Spin Scale       =       0.3333333333333333 [-]
	 SCS Opposite-Spin Scale   =       1.2000000000000000 [-]
	 SCS Same-Spin Energy      =      -0.1093755454576091 [Eh]
	 SCS Opposite-Spin Energy  =      -1.2158157515719945 [Eh]
	 SCS Correlation Energy    =      -1.3251912970296036 [Eh]
	 SCS Total Energy          =    -303.1621524831841157 [Eh]
	-----------------------------------------------------------

  Dipole Moment: [D]
     X:     3.5856      Y:    -0.0034      Z:     0.9796     Total:     3.7170

*** Psi4 exiting successfully. Buy a developer a beer!
