                               Psi4 1.3.2 release

  ==> Input File <==

--------------------------------------------------------------------------
#psi4
#
memory 32 gb

molecule  {
0 1
  N        2.3228640    -0.0000190    -0.0807740
  N       -1.9067410     0.0000080     0.0117080
  C        0.9299840    -0.0000240    -0.0024660
  C        0.1996340     1.1955560    -0.0090950
  C        0.1996160    -1.1955790    -0.0091200
  C       -1.1907070     1.1396190     0.0037780
  C       -1.1907490    -1.1395810     0.0038230
  H        0.7091300     2.1568960    -0.0157440
  H        0.7090670    -2.1569450    -0.0157620
  H       -1.6633851     1.8925849     0.0058638
  H       -1.7697630    -2.0619320     0.0061490
  H        2.7609080    -0.8358400     0.2906890
  H        2.7608480     0.8359780     0.2902720
units angstrom
no_reorient  #important for SAPT in psi4, default
symmetry c1  #important for SAPT in psi4, default
}

set PROPERTIES_ORIGIN ["COM"]
properties('MP2/aug-cc-pvtz', properties = ['dipole'])
--------------------------------------------------------------------------

    Molecular point group: c1
  Charge       = 0
  Multiplicity = 1
  Basis Set: AUG-CC-PVTZ
    Blend: AUG-CC-PVTZ
  Basis Set: (AUG-CC-PVTZ AUX)
    Blend: AUG-CC-PVTZ-JKFIT

    Orbital Energies [Eh]
    ---------------------

    Doubly Occupied:

       1A    -15.584615     2A    -15.549721     3A    -11.302115
       4A    -11.273435     5A    -11.250978     6A    -11.231366
       7A    -11.230536     8A     -1.255498     9A     -1.224167
      10A     -1.050677    11A     -1.036260    12A     -0.874696
      13A     -0.846298    14A     -0.735417    15A     -0.709763
      16A     -0.660920    17A     -0.626135    18A     -0.615171
      19A     -0.594632    20A     -0.554593    21A     -0.517460
      22A     -0.485898    23A     -0.414850    24A     -0.346984
      25A     -0.334219

  @DF-RHF Final Energy:  -301.80298064471134

   => Energetics <=

    Nuclear Repulsion Energy =            274.8325949392511802
    One-Electron Energy =                -952.6583464020337715
    Two-Electron Energy =                 376.0227708180712511
    Total Energy =                       -301.8029806447113401
  Basis Set: (AUG-CC-PVTZ AUX)
    Blend: AUG-CC-PVTZ-RI
    Molecular point group: c1

    Geometry (in Angstrom), charge = 0, multiplicity = 1:

       Center              X                  Y                   Z               Mass
    ------------   -----------------  -----------------  -----------------  -----------------
         N            2.357582867715     0.001797469496    -0.074838682438    14.003074004430
         N           -1.872022132285     0.001824469496     0.017643317562    14.003074004430
         C            0.964702867715     0.001792469496     0.003469317562    12.000000000000
         C            0.234352867715     1.197372469496    -0.003159682438    12.000000000000
         C            0.234334867715    -1.193762530504    -0.003184682438    12.000000000000
         C           -1.155988132285     1.141435469496     0.009713317562    12.000000000000
         C           -1.156030132285    -1.137764530504     0.009758317562    12.000000000000
         H            0.743848867715     2.158712469496    -0.009808682438     1.007825032230
         H            0.743785867715    -2.155128530504    -0.009826682438     1.007825032230
         H           -1.628666232285     1.894401369496     0.011799117562     1.007825032230
         H           -1.735044132285    -2.060115530504     0.012084317562     1.007825032230
         H            2.795626867715    -0.834023530504     0.296624317562     1.007825032230
         H            2.795566867715     0.837794469496     0.296207317562     1.007825032230

  Basis Set: AUG-CC-PVTZ
    Blend: AUG-CC-PVTZ
  Basis Set: (AUG-CC-PVTZ AUX)
    Blend: AUG-CC-PVTZ-JKFIT
	 Reference Energy          =    -301.8029806447113401 [Eh]
	 Singles Energy            =      -0.0000000000000000 [Eh]
	 Same-Spin Energy          =      -0.3279121445953851 [Eh]
	 Opposite-Spin Energy      =      -1.0125709115277814 [Eh]
	 Correlation Energy        =      -1.3404830561231664 [Eh]
	 Total Energy              =    -303.1434637008345021 [Eh]

	 ================> DF-SCS-MP2 Energies <==================
	-----------------------------------------------------------
	 SCS Same-Spin Scale       =       0.3333333333333333 [-]
	 SCS Opposite-Spin Scale   =       1.2000000000000000 [-]
	 SCS Same-Spin Energy      =      -0.1093040481984617 [Eh]
	 SCS Opposite-Spin Energy  =      -1.2150850938333377 [Eh]
	 SCS Correlation Energy    =      -1.3243891420317995 [Eh]
	 SCS Total Energy          =    -303.1273697867431451 [Eh]
	-----------------------------------------------------------

  Dipole Moment: [D]
     X:     3.5883      Y:     0.0549      Z:     0.9769     Total:     3.7193

*** Psi4 exiting successfully. Buy a developer a beer!
