                               Psi4 1.4a3.dev225

  ==> Input File <==

--------------------------------------------------------------------------
#psi4
#
memory 32 gb

molecule  {
0 1
  N        2.3220460    -0.0000010    -0.0807810
  N       -1.9068710     0.0000000     0.0099480
  C        0.9805227    -0.0000000    -0.0046528
  C        0.1994710     1.1952220    -0.0074850
  C        0.1994710    -1.1952220    -0.0074870
  C       -1.1908010     1.1392150     0.0036550
  C       -1.1908010    -1.1392150     0.0036580
  H        0.7083710     2.1567710    -0.0146740
  H        0.7083720    -2.1567700    -0.0146820
  H       -1.7689000     2.0620960     0.0068010
  H       -1.7689000    -2.0620960     0.0067980
  H        2.7635820    -0.8367020     0.2842420
  H        2.7635810     0.8367080     0.2842220
units angstrom
no_reorient  #important for SAPT in psi4, default
symmetry c1  #important for SAPT in psi4, default
}

set PROPERTIES_ORIGIN ["COM"]
properties('MP2/aug-cc-pvtz', properties = ['dipole'])
--------------------------------------------------------------------------

    Molecular point group: c1
  Charge       = 0
  Multiplicity = 1
  Basis Set: AUG-CC-PVTZ
    Blend: AUG-CC-PVTZ
  Basis Set: (AUG-CC-PVTZ AUX)
    Blend: AUG-CC-PVTZ-JKFIT

    Orbital Energies [Eh]
    ---------------------

    Doubly Occupied:

       1A    -15.592431     2A    -15.546588     3A    -11.307367
       4A    -11.272777     5A    -11.272762     6A    -11.231165
       7A    -11.231152     8A     -1.266131     9A     -1.231572
      10A     -1.044441    11A     -1.022725    12A     -0.853637
      13A     -0.844452    14A     -0.725872    15A     -0.718685
      16A     -0.653946    17A     -0.619360    18A     -0.614317
      19A     -0.585107    20A     -0.559340    21A     -0.500334
      22A     -0.493030    23A     -0.411453    24A     -0.345033
      25A     -0.327193

  @DF-RHF Final Energy:  -301.83341306350320

   => Energetics <=

    Nuclear Repulsion Energy =            273.4323880424097979
    One-Electron Energy =                -949.9898613938129301
    Two-Electron Energy =                 374.7240602878999312
    Total Energy =                       -301.8334130635032011
  Basis Set: (AUG-CC-PVTZ AUX)
    Blend: AUG-CC-PVTZ-RI
    Molecular point group: c1

    Geometry (in Angstrom), charge = 0, multiplicity = 1:

       Center              X                  Y                   Z               Mass
    ------------   -----------------  -----------------  -----------------  -----------------
         N            2.351594866694    -0.000000926124    -0.074586739502    14.003074004430
         N           -1.877322133306     0.000000073876     0.016142260498    14.003074004430
         C            1.010071566694     0.000000073876     0.001541460498    12.000000000000
         C            0.229019866694     1.195222073876    -0.001290739502    12.000000000000
         C            0.229019866694    -1.195221926124    -0.001292739502    12.000000000000
         C           -1.161252133306     1.139215073876     0.009849260498    12.000000000000
         C           -1.161252133306    -1.139214926124     0.009852260498    12.000000000000
         H            0.737919866694     2.156771073876    -0.008479739502     1.007825032230
         H            0.737920866694    -2.156769926124    -0.008487739502     1.007825032230
         H           -1.739351133306     2.062096073876     0.012995260498     1.007825032230
         H           -1.739351133306    -2.062095926124     0.012992260498     1.007825032230
         H            2.793130866694    -0.836701926124     0.290436260498     1.007825032230
         H            2.793129866694     0.836708073876     0.290416260498     1.007825032230

  Basis Set: AUG-CC-PVTZ
    Blend: AUG-CC-PVTZ
  Basis Set: (AUG-CC-PVTZ AUX)
    Blend: AUG-CC-PVTZ-JKFIT
	 Reference Energy          =    -301.8334130635032011 [Eh]
	 Singles Energy            =      -0.0000000000000000 [Eh]
	 Same-Spin Energy          =      -0.3283452519513859 [Eh]
	 Opposite-Spin Energy      =      -1.0132961605453863 [Eh]
	 Correlation Energy        =      -1.3416414124967722 [Eh]
	 Total Energy              =    -303.1750544759999570 [Eh]

	 ================> DF-SCS-MP2 Energies <==================
	-----------------------------------------------------------
	 SCS Same-Spin Scale       =       0.3333333333333333 [-]
	 SCS Opposite-Spin Scale   =       1.2000000000000000 [-]
	 SCS Same-Spin Energy      =      -0.1094484173171286 [Eh]
	 SCS Opposite-Spin Energy  =      -1.2159553926544635 [Eh]
	 SCS Correlation Energy    =      -1.3254038099715921 [Eh]
	 SCS Total Energy          =    -303.1588168734747910 [Eh]
	-----------------------------------------------------------

  Dipole Moment: [D]
     X:     4.0050      Y:     0.0000      Z:     0.9510     Total:     4.1163

*** Psi4 exiting successfully. Buy a developer a beer!
