                               Psi4 1.3.2 release

  ==> Input File <==

--------------------------------------------------------------------------
#psi4
#
memory 32 gb

molecule  {
0 1
  N        2.3227838    -0.0121836    -0.0812550
  N       -1.9067410     0.0000080     0.0117080
  C        0.9299840    -0.0000240    -0.0024660
  C        0.1996340     1.1955560    -0.0090950
  C        0.2100545    -1.2018887    -0.0099587
  C       -1.1907070     1.1396190     0.0037780
  C       -1.1907490    -1.1395810     0.0038230
  H        0.7091300     2.1568960    -0.0157440
  H        0.7090670    -2.1569450    -0.0157620
  H       -1.7697200     2.0619740     0.0063330
  H       -1.7697630    -2.0619320     0.0061490
  H        2.7609080    -0.8358400     0.2906890
  H        2.7608480     0.8359780     0.2902720
units angstrom
no_reorient  #important for SAPT in psi4, default
symmetry c1  #important for SAPT in psi4, default
}

set PROPERTIES_ORIGIN ["COM"]
properties('MP2/aug-cc-pvtz', properties = ['dipole'])
--------------------------------------------------------------------------

    Molecular point group: c1
  Charge       = 0
  Multiplicity = 1
  Basis Set: AUG-CC-PVTZ
    Blend: AUG-CC-PVTZ
  Basis Set: (AUG-CC-PVTZ AUX)
    Blend: AUG-CC-PVTZ-JKFIT

    Orbital Energies [Eh]
    ---------------------

    Doubly Occupied:

       1A    -15.584683     2A    -15.551509     3A    -11.302975
       4A    -11.276212     5A    -11.275235     6A    -11.232155
       7A    -11.231510     8A     -1.255225     9A     -1.224054
      10A     -1.051160    11A     -1.026896    12A     -0.858584
      13A     -0.841589    14A     -0.718675    15A     -0.709169
      16A     -0.656497    17A     -0.622569    18A     -0.606275
      19A     -0.590462    20A     -0.554798    21A     -0.512197
      22A     -0.486460    23A     -0.414043    24A     -0.346413
      25A     -0.335208

  @DF-RHF Final Energy:  -301.83669287972947

   => Energetics <=

    Nuclear Repulsion Energy =            273.5404074329990749
    One-Electron Energy =                -950.2250910478986725
    Two-Electron Energy =                 374.8479907351700717
    Total Energy =                       -301.8366928797294690
  Basis Set: (AUG-CC-PVTZ AUX)
    Blend: AUG-CC-PVTZ-RI
    Molecular point group: c1

    Geometry (in Angstrom), charge = 0, multiplicity = 1:

       Center              X                  Y                   Z               Mass
    ------------   -----------------  -----------------  -----------------  -----------------
         N            2.357322216675    -0.009566055151    -0.075146088931    14.003074004430
         N           -1.872202583325     0.002625544849     0.017816911069    14.003074004430
         C            0.964522416675     0.002593544849     0.003642911069    12.000000000000
         C            0.234172416675     1.198173544849    -0.002986088931    12.000000000000
         C            0.244592916675    -1.199271155151    -0.003849788931    12.000000000000
         C           -1.156168583325     1.142236544849     0.009886911069    12.000000000000
         C           -1.156210583325    -1.136963455151     0.009931911069    12.000000000000
         H            0.743668416675     2.159513544849    -0.009635088931     1.007825032230
         H            0.743605416675    -2.154327455151    -0.009653088931     1.007825032230
         H           -1.735181583325     2.064591544849     0.012441911069     1.007825032230
         H           -1.735224583325    -2.059314455151     0.012257911069     1.007825032230
         H            2.795446416675    -0.833222455151     0.296797911069     1.007825032230
         H            2.795386416675     0.838595544849     0.296380911069     1.007825032230

  Basis Set: AUG-CC-PVTZ
    Blend: AUG-CC-PVTZ
  Basis Set: (AUG-CC-PVTZ AUX)
    Blend: AUG-CC-PVTZ-JKFIT
	 Reference Energy          =    -301.8366928797294690 [Eh]
	 Singles Energy            =      -0.0000000000000000 [Eh]
	 Same-Spin Energy          =      -0.3280923136686462 [Eh]
	 Opposite-Spin Energy      =      -1.0131838844144125 [Eh]
	 Correlation Energy        =      -1.3412761980830588 [Eh]
	 Total Energy              =    -303.1779690778125200 [Eh]

	 ================> DF-SCS-MP2 Energies <==================
	-----------------------------------------------------------
	 SCS Same-Spin Scale       =       0.3333333333333333 [-]
	 SCS Opposite-Spin Scale   =       1.2000000000000000 [-]
	 SCS Same-Spin Energy      =      -0.1093641045562154 [Eh]
	 SCS Opposite-Spin Energy  =      -1.2158206612972950 [Eh]
	 SCS Correlation Energy    =      -1.3251847658535105 [Eh]
	 SCS Total Energy          =    -303.1618776455829902 [Eh]
	-----------------------------------------------------------

  Dipole Moment: [D]
     X:     3.5809      Y:     0.0065      Z:     0.9779     Total:     3.7120

*** Psi4 exiting successfully. Buy a developer a beer!
