                               Psi4 1.3.2 release

  ==> Input File <==

--------------------------------------------------------------------------
#psi4
#
memory 32 gb

molecule  {
0 1
  N        2.3228382    -0.0121836    -0.0802873
  N       -1.9067410     0.0000080     0.0117080
  C        0.9299840    -0.0000240    -0.0024660
  C        0.1892509     1.1891554    -0.0082560
  C        0.1996160    -1.1955790    -0.0091200
  C       -1.1907070     1.1396190     0.0037780
  C       -1.1907490    -1.1395810     0.0038230
  H        0.7091300     2.1568960    -0.0157440
  H        0.7090670    -2.1569450    -0.0157620
  H       -1.7697200     2.0619740     0.0063330
  H       -1.7697630    -2.0619320     0.0061490
  H        2.7609080    -0.8358400     0.2906890
  H        2.7608480     0.8359780     0.2902720
units angstrom
no_reorient  #important for SAPT in psi4, default
symmetry c1  #important for SAPT in psi4, default
}

set PROPERTIES_ORIGIN ["COM"]
properties('MP2/aug-cc-pvtz', properties = ['dipole'])
--------------------------------------------------------------------------

    Molecular point group: c1
  Charge       = 0
  Multiplicity = 1
  Basis Set: AUG-CC-PVTZ
    Blend: AUG-CC-PVTZ
  Basis Set: (AUG-CC-PVTZ AUX)
    Blend: AUG-CC-PVTZ-JKFIT

    Orbital Energies [Eh]
    ---------------------

    Doubly Occupied:

       1A    -15.585788     2A    -15.550667     3A    -11.303240
       4A    -11.274393     5A    -11.273393     6A    -11.231992
       7A    -11.231338     8A     -1.255995     9A     -1.224433
      10A     -1.052199    11A     -1.028606    12A     -0.856772
      13A     -0.843605    14A     -0.719565    15A     -0.710227
      16A     -0.652394    17A     -0.623733    18A     -0.608124
      19A     -0.589853    20A     -0.555948    21A     -0.508765
      22A     -0.487022    23A     -0.414026    24A     -0.348538
      25A     -0.334976

  @DF-RHF Final Energy:  -301.83686572539239

   => Energetics <=

    Nuclear Repulsion Energy =            273.8479246226777946
    One-Electron Energy =                -950.8383961028407612
    Two-Electron Energy =                 375.1536057547706378
    Total Energy =                       -301.8368657253923857
  Basis Set: (AUG-CC-PVTZ AUX)
    Blend: AUG-CC-PVTZ-RI
    Molecular point group: c1

    Geometry (in Angstrom), charge = 0, multiplicity = 1:

       Center              X                  Y                   Z               Mass
    ------------   -----------------  -----------------  -----------------  -----------------
         N            2.360025093307    -0.009554457447    -0.074536518279    14.003074004430
         N           -1.869554106693     0.002637142553     0.017458781721    14.003074004430
         C            0.967170893307     0.002605142553     0.003284781721    12.000000000000
         C            0.226437793307     1.191784542553    -0.002505218279    12.000000000000
         C            0.236802893307    -1.192949857447    -0.003369218279    12.000000000000
         C           -1.153520106693     1.142248142553     0.009528781721    12.000000000000
         C           -1.153562106693    -1.136951857447     0.009573781721    12.000000000000
         H            0.746316893307     2.159525142553    -0.009993218279     1.007825032230
         H            0.746253893307    -2.154315857447    -0.010011218279     1.007825032230
         H           -1.732533106693     2.064603142553     0.012083781721     1.007825032230
         H           -1.732576106693    -2.059302857447     0.011899781721     1.007825032230
         H            2.798094893307    -0.833210857447     0.296439781721     1.007825032230
         H            2.798034893307     0.838607142553     0.296022781721     1.007825032230

  Basis Set: AUG-CC-PVTZ
    Blend: AUG-CC-PVTZ
  Basis Set: (AUG-CC-PVTZ AUX)
    Blend: AUG-CC-PVTZ-JKFIT
	 Reference Energy          =    -301.8368657253923857 [Eh]
	 Singles Energy            =      -0.0000000000000000 [Eh]
	 Same-Spin Energy          =      -0.3281539120777888 [Eh]
	 Opposite-Spin Energy      =      -1.0131467524430127 [Eh]
	 Correlation Energy        =      -1.3413006645208014 [Eh]
	 Total Energy              =    -303.1781663899132013 [Eh]

	 ================> DF-SCS-MP2 Energies <==================
	-----------------------------------------------------------
	 SCS Same-Spin Scale       =       0.3333333333333333 [-]
	 SCS Opposite-Spin Scale   =       1.2000000000000000 [-]
	 SCS Same-Spin Energy      =      -0.1093846373592629 [Eh]
	 SCS Opposite-Spin Energy  =      -1.2157761029316152 [Eh]
	 SCS Correlation Energy    =      -1.3251607402908780 [Eh]
	 SCS Total Energy          =    -303.1620264656832546 [Eh]
	-----------------------------------------------------------

  Dipole Moment: [D]
     X:     3.6034      Y:     0.0058      Z:     0.9757     Total:     3.7331

*** Psi4 exiting successfully. Buy a developer a beer!
