                               Psi4 1.4a3.dev225

  ==> Input File <==

--------------------------------------------------------------------------
#psi4
#
memory 32 gb

molecule  {
0 1
  N        2.3220460    -0.0000010    -0.0807810
  N       -1.9068710     0.0000000     0.0099480
  C        0.9306030     0.0000000    -0.0018200
  C        0.1994710     1.1952220    -0.0074850
  C        0.1994710    -1.1952220    -0.0074870
  C       -1.2174091     1.0968835     0.0038888
  C       -1.1908010    -1.1392150     0.0036580
  H        0.7083710     2.1567710    -0.0146740
  H        0.7083720    -2.1567700    -0.0146820
  H       -1.7689000     2.0620960     0.0068010
  H       -1.7689000    -2.0620960     0.0067980
  H        2.7635820    -0.8367020     0.2842420
  H        2.7635810     0.8367080     0.2842220
units angstrom
no_reorient  #important for SAPT in psi4, default
symmetry c1  #important for SAPT in psi4, default
}

set PROPERTIES_ORIGIN ["COM"]
properties('MP2/aug-cc-pvtz', properties = ['dipole'])
--------------------------------------------------------------------------

    Molecular point group: c1
  Charge       = 0
  Multiplicity = 1
  Basis Set: AUG-CC-PVTZ
    Blend: AUG-CC-PVTZ
  Basis Set: (AUG-CC-PVTZ AUX)
    Blend: AUG-CC-PVTZ-JKFIT

    Orbital Energies [Eh]
    ---------------------

    Doubly Occupied:

       1A    -15.584110     2A    -15.548852     3A    -11.301494
       4A    -11.275788     5A    -11.275023     6A    -11.233012
       7A    -11.231461     8A     -1.264825     9A     -1.229752
      10A     -1.053882    11A     -1.023408    12A     -0.862172
      13A     -0.838190    14A     -0.717603    15A     -0.711628
      16A     -0.654658    17A     -0.625841    18A     -0.607659
      19A     -0.584877    20A     -0.557601    21A     -0.511314
      22A     -0.491709    23A     -0.412563    24A     -0.346484
      25A     -0.335163

  @DF-RHF Final Energy:  -301.83572137648724

   => Energetics <=

    Nuclear Repulsion Energy =            274.1933348456636281
    One-Electron Energy =                -951.4999715806768563
    Two-Electron Energy =                 375.4709153585259287
    Total Energy =                       -301.8357213764872427
  Basis Set: (AUG-CC-PVTZ AUX)
    Blend: AUG-CC-PVTZ-RI
    Molecular point group: c1

    Geometry (in Angstrom), charge = 0, multiplicity = 1:

       Center              X                  Y                   Z               Mass
    ------------   -----------------  -----------------  -----------------  -----------------
         N            2.361358857648     0.005400044283    -0.074977999341    14.003074004430
         N           -1.867558142352     0.005401044283     0.015751000659    14.003074004430
         C            0.969915857648     0.005401044283     0.003983000659    12.000000000000
         C            0.238783857648     1.200623044283    -0.001681999341    12.000000000000
         C            0.238783857648    -1.189820955717    -0.001683999341    12.000000000000
         C           -1.178096242352     1.102284544283     0.009691800659    12.000000000000
         C           -1.151488142352    -1.133813955717     0.009461000659    12.000000000000
         H            0.747683857648     2.162172044283    -0.008870999341     1.007825032230
         H            0.747684857648    -2.151368955717    -0.008878999341     1.007825032230
         H           -1.729587142352     2.067497044283     0.012604000659     1.007825032230
         H           -1.729587142352    -2.056694955717     0.012601000659     1.007825032230
         H            2.802894857648    -0.831300955717     0.290045000659     1.007825032230
         H            2.802893857648     0.842109044283     0.290025000659     1.007825032230

  Basis Set: AUG-CC-PVTZ
    Blend: AUG-CC-PVTZ
  Basis Set: (AUG-CC-PVTZ AUX)
    Blend: AUG-CC-PVTZ-JKFIT
	 Reference Energy          =    -301.8357213764872427 [Eh]
	 Singles Energy            =      -0.0000000000000000 [Eh]
	 Same-Spin Energy          =      -0.3277357786813647 [Eh]
	 Opposite-Spin Energy      =      -1.0122374641588840 [Eh]
	 Correlation Energy        =      -1.3399732428402489 [Eh]
	 Total Energy              =    -303.1756946193274871 [Eh]

	 ================> DF-SCS-MP2 Energies <==================
	-----------------------------------------------------------
	 SCS Same-Spin Scale       =       0.3333333333333333 [-]
	 SCS Opposite-Spin Scale   =       1.2000000000000000 [-]
	 SCS Same-Spin Energy      =      -0.1092452595604549 [Eh]
	 SCS Opposite-Spin Energy  =      -1.2146849569906608 [Eh]
	 SCS Correlation Energy    =      -1.3239302165511158 [Eh]
	 SCS Total Energy          =    -303.1596515930383475 [Eh]
	-----------------------------------------------------------

  Dipole Moment: [D]
     X:     3.5637      Y:    -0.0567      Z:     0.9644     Total:     3.6923

*** Psi4 exiting successfully. Buy a developer a beer!
