                               Psi4 1.3.2 release

  ==> Input File <==

--------------------------------------------------------------------------
#psi4
#
memory 32 gb

molecule  {
0 1
  N        2.3228381     0.0121456    -0.0802870
  N       -1.9067410     0.0000080     0.0117080
  C        0.9299840    -0.0000240    -0.0024660
  C        0.1996340     1.1955560    -0.0090950
  C        0.1892332    -1.1891782    -0.0082808
  C       -1.1907070     1.1396190     0.0037780
  C       -1.1907490    -1.1395810     0.0038230
  H        0.7091300     2.1568960    -0.0157440
  H        0.7090670    -2.1569450    -0.0157620
  H       -1.7697200     2.0619740     0.0063330
  H       -1.7697630    -2.0619320     0.0061490
  H        2.7609080    -0.8358400     0.2906890
  H        2.7608480     0.8359780     0.2902720
units angstrom
no_reorient  #important for SAPT in psi4, default
symmetry c1  #important for SAPT in psi4, default
}

set PROPERTIES_ORIGIN ["COM"]
properties('MP2/aug-cc-pvtz', properties = ['dipole'])
--------------------------------------------------------------------------

    Molecular point group: c1
  Charge       = 0
  Multiplicity = 1
  Basis Set: AUG-CC-PVTZ
    Blend: AUG-CC-PVTZ
  Basis Set: (AUG-CC-PVTZ AUX)
    Blend: AUG-CC-PVTZ-JKFIT

    Orbital Energies [Eh]
    ---------------------

    Doubly Occupied:

       1A    -15.585788     2A    -15.550667     3A    -11.303240
       4A    -11.274395     5A    -11.273390     6A    -11.231989
       7A    -11.231340     8A     -1.255996     9A     -1.224433
      10A     -1.052199    11A     -1.028606    12A     -0.856772
      13A     -0.843605    14A     -0.719567    15A     -0.710227
      16A     -0.652394    17A     -0.623732    18A     -0.608125
      19A     -0.589854    20A     -0.555948    21A     -0.508765
      22A     -0.487021    23A     -0.414026    24A     -0.348537
      25A     -0.334977

  @DF-RHF Final Energy:  -301.83686513768447

   => Energetics <=

    Nuclear Repulsion Energy =            273.8479504153541484
    One-Electron Energy =                -950.8384423384239881
    Two-Electron Energy =                 375.1536267853853701
    Total Energy =                       -301.8368651376844696
  Basis Set: (AUG-CC-PVTZ AUX)
    Blend: AUG-CC-PVTZ-RI
    Molecular point group: c1

    Geometry (in Angstrom), charge = 0, multiplicity = 1:

       Center              X                  Y                   Z               Mass
    ------------   -----------------  -----------------  -----------------  -----------------
         N            2.360024969919     0.009519196511    -0.074536288462    14.003074004430
         N           -1.869554130081    -0.002618403489     0.017458711538    14.003074004430
         C            0.967170869919    -0.002650403489     0.003284711538    12.000000000000
         C            0.236820869919     1.192929596511    -0.003344288462    12.000000000000
         C            0.226420069919    -1.191804603489    -0.002530088462    12.000000000000
         C           -1.153520130081     1.136992596511     0.009528711538    12.000000000000
         C           -1.153562130081    -1.142207403489     0.009573711538    12.000000000000
         H            0.746316869919     2.154269596511    -0.009993288462     1.007825032230
         H            0.746253869919    -2.159571403489    -0.010011288462     1.007825032230
         H           -1.732533130081     2.059347596511     0.012083711538     1.007825032230
         H           -1.732576130081    -2.064558403489     0.011899711538     1.007825032230
         H            2.798094869919    -0.838466403489     0.296439711538     1.007825032230
         H            2.798034869919     0.833351596511     0.296022711538     1.007825032230

  Basis Set: AUG-CC-PVTZ
    Blend: AUG-CC-PVTZ
  Basis Set: (AUG-CC-PVTZ AUX)
    Blend: AUG-CC-PVTZ-JKFIT
	 Reference Energy          =    -301.8368651376844696 [Eh]
	 Singles Energy            =      -0.0000000000000000 [Eh]
	 Same-Spin Energy          =      -0.3281539116511354 [Eh]
	 Opposite-Spin Energy      =      -1.0131466392571147 [Eh]
	 Correlation Energy        =      -1.3413005509082501 [Eh]
	 Total Energy              =    -303.1781656885927418 [Eh]

	 ================> DF-SCS-MP2 Energies <==================
	-----------------------------------------------------------
	 SCS Same-Spin Scale       =       0.3333333333333333 [-]
	 SCS Opposite-Spin Scale   =       1.2000000000000000 [-]
	 SCS Same-Spin Energy      =      -0.1093846372170451 [Eh]
	 SCS Opposite-Spin Energy  =      -1.2157759671085375 [Eh]
	 SCS Correlation Energy    =      -1.3251606043255826 [Eh]
	 SCS Total Energy          =    -303.1620257420100302 [Eh]
	-----------------------------------------------------------

  Dipole Moment: [D]
     X:     3.6034      Y:    -0.0054      Z:     0.9757     Total:     3.7331

*** Psi4 exiting successfully. Buy a developer a beer!
