                               Psi4 1.3.2 release

  ==> Input File <==

--------------------------------------------------------------------------
#psi4
#
memory 32 gb

molecule  {
0 1
  N        2.3228640    -0.0000190    -0.0807740
  N       -1.9067410     0.0000080     0.0117080
  C        0.9296116     0.0219843    -0.0128746
  C        0.1996340     1.1955560    -0.0090950
  C        0.1996160    -1.1955790    -0.0091200
  C       -1.1907070     1.1396190     0.0037780
  C       -1.1907490    -1.1395810     0.0038230
  H        0.7091300     2.1568960    -0.0157440
  H        0.7090670    -2.1569450    -0.0157620
  H       -1.7697200     2.0619740     0.0063330
  H       -1.7697630    -2.0619320     0.0061490
  H        2.7767788    -0.8291421     0.2866227
  H        2.7608480     0.8359780     0.2902720
units angstrom
no_reorient  #important for SAPT in psi4, default
symmetry c1  #important for SAPT in psi4, default
}

set PROPERTIES_ORIGIN ["COM"]
properties('MP2/aug-cc-pvtz', properties = ['dipole'])
--------------------------------------------------------------------------

    Molecular point group: c1
  Charge       = 0
  Multiplicity = 1
  Basis Set: AUG-CC-PVTZ
    Blend: AUG-CC-PVTZ
  Basis Set: (AUG-CC-PVTZ AUX)
    Blend: AUG-CC-PVTZ-JKFIT

    Orbital Energies [Eh]
    ---------------------

    Doubly Occupied:

       1A    -15.584981     2A    -15.551045     3A    -11.303312
       4A    -11.275941     5A    -11.273590     6A    -11.233122
       7A    -11.230159     8A     -1.255365     9A     -1.223820
      10A     -1.052366    11A     -1.027282    12A     -0.857960
      13A     -0.842499    14A     -0.719656    15A     -0.709004
      16A     -0.654491    17A     -0.623316    18A     -0.607190
      19A     -0.590089    20A     -0.555394    21A     -0.510280
      22A     -0.486231    23A     -0.413992    24A     -0.347864
      25A     -0.334566

  @DF-RHF Final Energy:  -301.83658467343685

   => Energetics <=

    Nuclear Repulsion Energy =            273.6733376095968993
    One-Electron Energy =                -950.4928227134760164
    Two-Electron Energy =                 374.9829004304422142
    Total Energy =                       -301.8365846734368461
  Basis Set: (AUG-CC-PVTZ AUX)
    Blend: AUG-CC-PVTZ-RI
    Molecular point group: c1

    Geometry (in Angstrom), charge = 0, multiplicity = 1:

       Center              X                  Y                   Z               Mass
    ------------   -----------------  -----------------  -----------------  -----------------
         N            2.358599748459    -0.002897373044    -0.073472130459    14.003074004430
         N           -1.871005251541    -0.002870373044     0.019009869541    14.003074004430
         C            0.965347348459     0.019105926956    -0.005572730459    12.000000000000
         C            0.235369748459     1.192677626956    -0.001793130459    12.000000000000
         C            0.235351748459    -1.198457373044    -0.001818130459    12.000000000000
         C           -1.154971251541     1.136740626956     0.011079869541    12.000000000000
         C           -1.155013251541    -1.142459373044     0.011124869541    12.000000000000
         H            0.744865748459     2.154017626956    -0.008442130459     1.007825032230
         H            0.744802748459    -2.159823373044    -0.008460130459     1.007825032230
         H           -1.733984251541     2.059095626956     0.013634869541     1.007825032230
         H           -1.734027251541    -2.064810373044     0.013450869541     1.007825032230
         H            2.812514548459    -0.832020473044     0.293924569541     1.007825032230
         H            2.796583748459     0.833099626956     0.297573869541     1.007825032230

  Basis Set: AUG-CC-PVTZ
    Blend: AUG-CC-PVTZ
  Basis Set: (AUG-CC-PVTZ AUX)
    Blend: AUG-CC-PVTZ-JKFIT
	 Reference Energy          =    -301.8365846734368461 [Eh]
	 Singles Energy            =      -0.0000000000000000 [Eh]
	 Same-Spin Energy          =      -0.3280947340924128 [Eh]
	 Opposite-Spin Energy      =      -1.0131350683559923 [Eh]
	 Correlation Energy        =      -1.3412298024484051 [Eh]
	 Total Energy              =    -303.1778144758852704 [Eh]

	 ================> DF-SCS-MP2 Energies <==================
	-----------------------------------------------------------
	 SCS Same-Spin Scale       =       0.3333333333333333 [-]
	 SCS Opposite-Spin Scale   =       1.2000000000000000 [-]
	 SCS Same-Spin Energy      =      -0.1093649113641376 [Eh]
	 SCS Opposite-Spin Energy  =      -1.2157620820271908 [Eh]
	 SCS Correlation Energy    =      -1.3251269933913283 [Eh]
	 SCS Total Energy          =    -303.1617116668281824 [Eh]
	-----------------------------------------------------------

  Dipole Moment: [D]
     X:     3.6067      Y:     0.0078      Z:     0.9710     Total:     3.7351

*** Psi4 exiting successfully. Buy a developer a beer!
