                               Psi4 1.3.2 release

  ==> Input File <==

--------------------------------------------------------------------------
#psi4
#
memory 32 gb

molecule  {
0 1
  N        2.3228640    -0.0000190    -0.0807740
  N       -1.9067410     0.0000080     0.0117080
  C        0.9299840    -0.0000240    -0.0024660
  C        0.1996340     1.1955560    -0.0090950
  C        0.1996160    -1.1955790    -0.0091200
  C       -1.1907070     1.1396190     0.0037780
  C       -1.1375499    -1.2242539     0.0032371
  H        0.7091300     2.1568960    -0.0157440
  H        0.7090670    -2.1569450    -0.0157620
  H       -1.7697200     2.0619740     0.0063330
  H       -1.7697630    -2.0619320     0.0061490
  H        2.7609080    -0.8358400     0.2906890
  H        2.7608480     0.8359780     0.2902720
units angstrom
no_reorient  #important for SAPT in psi4, default
symmetry c1  #important for SAPT in psi4, default
}

set PROPERTIES_ORIGIN ["COM"]
properties('MP2/aug-cc-pvtz', properties = ['dipole'])
--------------------------------------------------------------------------

    Molecular point group: c1
  Charge       = 0
  Multiplicity = 1
  Basis Set: AUG-CC-PVTZ
    Blend: AUG-CC-PVTZ
  Basis Set: (AUG-CC-PVTZ AUX)
    Blend: AUG-CC-PVTZ-JKFIT

    Orbital Energies [Eh]
    ---------------------

    Doubly Occupied:

       1A    -15.587404     2A    -15.553788     3A    -11.305905
       4A    -11.272815     5A    -11.272706     6A    -11.231633
       7A    -11.229593     8A     -1.249241     9A     -1.208377
      10A     -1.053595    11A     -1.030601    12A     -0.856419
      13A     -0.843527    14A     -0.722170    15A     -0.709341
      16A     -0.653522    17A     -0.620273    18A     -0.609295
      19A     -0.596606    20A     -0.553382    21A     -0.506795
      22A     -0.478547    23A     -0.410181    24A     -0.359102
      25A     -0.326620

  @DF-RHF Final Energy:  -301.82323870574584

   => Energetics <=

    Nuclear Repulsion Energy =            272.8800249183329356
    One-Electron Energy =                -948.9236568038422774
    Two-Electron Energy =                 374.2203931797634482
    Total Energy =                       -301.8232387057458368
  Basis Set: (AUG-CC-PVTZ AUX)
    Blend: AUG-CC-PVTZ-RI
    Molecular point group: c1

    Geometry (in Angstrom), charge = 0, multiplicity = 1:

       Center              X                  Y                   Z               Mass
    ------------   -----------------  -----------------  -----------------  -----------------
         N            2.351934757912     0.010785586219    -0.074768956627    14.003074004430
         N           -1.877670242088     0.010812586219     0.017713043373    14.003074004430
         C            0.959054757912     0.010780586219     0.003539043373    12.000000000000
         C            0.228704757912     1.206360586219    -0.003089956627    12.000000000000
         C            0.228686757912    -1.184774413781    -0.003114956627    12.000000000000
         C           -1.161636242088     1.150423586219     0.009783043373    12.000000000000
         C           -1.108479142088    -1.213449313781     0.009242143373    12.000000000000
         H            0.738200757912     2.167700586219    -0.009738956627     1.007825032230
         H            0.738137757912    -2.146140413781    -0.009756956627     1.007825032230
         H           -1.740649242088     2.072778586219     0.012338043373     1.007825032230
         H           -1.740692242088    -2.051127413781     0.012154043373     1.007825032230
         H            2.789978757912    -0.825035413781     0.296694043373     1.007825032230
         H            2.789918757912     0.846782586219     0.296277043373     1.007825032230

  Basis Set: AUG-CC-PVTZ
    Blend: AUG-CC-PVTZ
  Basis Set: (AUG-CC-PVTZ AUX)
    Blend: AUG-CC-PVTZ-JKFIT
	 Reference Energy          =    -301.8232387057458368 [Eh]
	 Singles Energy            =      -0.0000000000000000 [Eh]
	 Same-Spin Energy          =      -0.3286164244550444 [Eh]
	 Opposite-Spin Energy      =      -1.0156070590967885 [Eh]
	 Correlation Energy        =      -1.3442234835518330 [Eh]
	 Total Energy              =    -303.1674621892976802 [Eh]

	 ================> DF-SCS-MP2 Energies <==================
	-----------------------------------------------------------
	 SCS Same-Spin Scale       =       0.3333333333333333 [-]
	 SCS Opposite-Spin Scale   =       1.2000000000000000 [-]
	 SCS Same-Spin Energy      =      -0.1095388081516815 [Eh]
	 SCS Opposite-Spin Energy  =      -1.2187284709161461 [Eh]
	 SCS Correlation Energy    =      -1.3282672790678276 [Eh]
	 SCS Total Energy          =    -303.1515059848136389 [Eh]
	-----------------------------------------------------------

  Dipole Moment: [D]
     X:     3.6660      Y:    -0.0802      Z:     0.9761     Total:     3.7946

*** Psi4 exiting successfully. Buy a developer a beer!
