                               Psi4 1.4a3.dev225

  ==> Input File <==

--------------------------------------------------------------------------
#psi4
#
memory 32 gb

molecule  {
0 1
  N        2.3220460    -0.0000010    -0.0807810
  N       -1.9068710     0.0000000     0.0099480
  C        0.9306030     0.0000000    -0.0018200
  C        0.1994710     1.1952220    -0.0074850
  C        0.1994710    -1.1952220    -0.0074870
  C       -1.2014442     1.1222824     0.0037485
  C       -1.1908010    -1.1392150     0.0036580
  H        0.7083710     2.1567710    -0.0146740
  H        0.7083720    -2.1567700    -0.0146820
  H       -1.7689000     2.0620960     0.0068010
  H       -1.7689000    -2.0620960     0.0067980
  H        2.7635820    -0.8367020     0.2842420
  H        2.7635810     0.8367080     0.2842220
units angstrom
no_reorient  #important for SAPT in psi4, default
symmetry c1  #important for SAPT in psi4, default
}

set PROPERTIES_ORIGIN ["COM"]
properties('MP2/aug-cc-pvtz', properties = ['dipole'])
--------------------------------------------------------------------------

    Molecular point group: c1
  Charge       = 0
  Multiplicity = 1
  Basis Set: AUG-CC-PVTZ
    Blend: AUG-CC-PVTZ
  Basis Set: (AUG-CC-PVTZ AUX)
    Blend: AUG-CC-PVTZ-JKFIT

    Orbital Energies [Eh]
    ---------------------

    Doubly Occupied:

       1A    -15.584824     2A    -15.550091     3A    -11.302469
       4A    -11.275080     5A    -11.274851     6A    -11.232083
       7A    -11.231506     8A     -1.258702     9A     -1.226907
      10A     -1.052319    11A     -1.026079    12A     -0.859257
      13A     -0.841050    14A     -0.718346    15A     -0.710942
      16A     -0.654449    17A     -0.624131    18A     -0.607568
      19A     -0.588036    20A     -0.556182    21A     -0.510817
      22A     -0.488639    23A     -0.413673    24A     -0.346172
      25A     -0.335632

  @DF-RHF Final Energy:  -301.83746679567838

   => Energetics <=

    Nuclear Repulsion Energy =            273.9077821914695505
    One-Electron Energy =                -950.9508857784487645
    Two-Electron Energy =                 375.2056367913008330
    Total Energy =                       -301.8374667956783810
  Basis Set: (AUG-CC-PVTZ AUX)
    Blend: AUG-CC-PVTZ-RI
    Molecular point group: c1

    Geometry (in Angstrom), charge = 0, multiplicity = 1:

       Center              X                  Y                   Z               Mass
    ------------   -----------------  -----------------  -----------------  -----------------
         N            2.359321935913     0.002159462039    -0.074960098814    14.003074004430
         N           -1.869595064087     0.002160462039     0.015768901186    14.003074004430
         C            0.967878935913     0.002160462039     0.004000901186    12.000000000000
         C            0.236746935913     1.197382462039    -0.001664098814    12.000000000000
         C            0.236746935913    -1.193061537961    -0.001666098814    12.000000000000
         C           -1.164168264087     1.124442862039     0.009569401186    12.000000000000
         C           -1.153525064087    -1.137054537961     0.009478901186    12.000000000000
         H            0.745646935913     2.158931462039    -0.008853098814     1.007825032230
         H            0.745647935913    -2.154609537961    -0.008861098814     1.007825032230
         H           -1.731624064087     2.064256462039     0.012621901186     1.007825032230
         H           -1.731624064087    -2.059935537961     0.012618901186     1.007825032230
         H            2.800857935913    -0.834541537961     0.290062901186     1.007825032230
         H            2.800856935913     0.838868462039     0.290042901186     1.007825032230

  Basis Set: AUG-CC-PVTZ
    Blend: AUG-CC-PVTZ
  Basis Set: (AUG-CC-PVTZ AUX)
    Blend: AUG-CC-PVTZ-JKFIT
	 Reference Energy          =    -301.8374667956783810 [Eh]
	 Singles Energy            =      -0.0000000000000000 [Eh]
	 Same-Spin Energy          =      -0.3279752808883643 [Eh]
	 Opposite-Spin Energy      =      -1.0127229599689893 [Eh]
	 Correlation Energy        =      -1.3406982408573536 [Eh]
	 Total Energy              =    -303.1781650365357450 [Eh]

	 ================> DF-SCS-MP2 Energies <==================
	-----------------------------------------------------------
	 SCS Same-Spin Scale       =       0.3333333333333333 [-]
	 SCS Opposite-Spin Scale   =       1.2000000000000000 [-]
	 SCS Same-Spin Energy      =      -0.1093250936294548 [Eh]
	 SCS Opposite-Spin Energy  =      -1.2152675519627871 [Eh]
	 SCS Correlation Energy    =      -1.3245926455922419 [Eh]
	 SCS Total Energy          =    -303.1620594412706282 [Eh]
	-----------------------------------------------------------

  Dipole Moment: [D]
     X:     3.5981      Y:    -0.0210      Z:     0.9643     Total:     3.7251

*** Psi4 exiting successfully. Buy a developer a beer!
