                               Psi4 1.4a3.dev225

  ==> Input File <==

--------------------------------------------------------------------------
#psi4
#
memory 32 gb

molecule  {
0 1
  N        2.3220460    -0.0000010    -0.0807810
  N       -1.9068710     0.0000000     0.0099480
  C        0.9106351     0.0000000    -0.0006869
  C        0.1994710     1.1952220    -0.0074850
  C        0.1994710    -1.1952220    -0.0074870
  C       -1.1908010     1.1392150     0.0036550
  C       -1.1908010    -1.1392150     0.0036580
  H        0.7083710     2.1567710    -0.0146740
  H        0.7083720    -2.1567700    -0.0146820
  H       -1.7689000     2.0620960     0.0068010
  H       -1.7689000    -2.0620960     0.0067980
  H        2.7635820    -0.8367020     0.2842420
  H        2.7635810     0.8367080     0.2842220
units angstrom
no_reorient  #important for SAPT in psi4, default
symmetry c1  #important for SAPT in psi4, default
}

set PROPERTIES_ORIGIN ["COM"]
properties('MP2/aug-cc-pvtz', properties = ['dipole'])
--------------------------------------------------------------------------

    Molecular point group: c1
  Charge       = 0
  Multiplicity = 1
  Basis Set: AUG-CC-PVTZ
    Blend: AUG-CC-PVTZ
  Basis Set: (AUG-CC-PVTZ AUX)
    Blend: AUG-CC-PVTZ-JKFIT

    Orbital Energies [Eh]
    ---------------------

    Doubly Occupied:

       1A    -15.582583     2A    -15.552367     3A    -11.301468
       4A    -11.275366     5A    -11.275350     6A    -11.231636
       7A    -11.231617     8A     -1.254804     9A     -1.219158
      10A     -1.054228    11A     -1.029631    12A     -0.859205
      13A     -0.842288    14A     -0.716752    15A     -0.707729
      16A     -0.654492    17A     -0.624373    18A     -0.604006
      19A     -0.591985    20A     -0.554764    21A     -0.514035
      22A     -0.483764    23A     -0.414742    24A     -0.348262
      25A     -0.337642

  @DF-RHF Final Energy:  -301.83697779090647

   => Energetics <=

    Nuclear Repulsion Energy =            273.8588081486473129
    One-Electron Energy =                -950.8670778987258245
    Two-Electron Energy =                 375.1712919591720379
    Total Energy =                       -301.8369777909064737
  Basis Set: (AUG-CC-PVTZ AUX)
    Blend: AUG-CC-PVTZ-RI
    Molecular point group: c1

    Geometry (in Angstrom), charge = 0, multiplicity = 1:

       Center              X                  Y                   Z               Mass
    ------------   -----------------  -----------------  -----------------  -----------------
         N            2.360511651107    -0.000000926124    -0.075092738783    14.003074004430
         N           -1.868405348893     0.000000073876     0.015636261217    14.003074004430
         C            0.949100751107     0.000000073876     0.005001361217    12.000000000000
         C            0.237936651107     1.195222073876    -0.001796738783    12.000000000000
         C            0.237936651107    -1.195221926124    -0.001798738783    12.000000000000
         C           -1.152335348893     1.139215073876     0.009343261217    12.000000000000
         C           -1.152335348893    -1.139214926124     0.009346261217    12.000000000000
         H            0.746836651107     2.156771073876    -0.008985738783     1.007825032230
         H            0.746837651107    -2.156769926124    -0.008993738783     1.007825032230
         H           -1.730434348893     2.062096073876     0.012489261217     1.007825032230
         H           -1.730434348893    -2.062095926124     0.012486261217     1.007825032230
         H            2.802047651107    -0.836701926124     0.289930261217     1.007825032230
         H            2.802046651107     0.836708073876     0.289910261217     1.007825032230

  Basis Set: AUG-CC-PVTZ
    Blend: AUG-CC-PVTZ
  Basis Set: (AUG-CC-PVTZ AUX)
    Blend: AUG-CC-PVTZ-JKFIT
	 Reference Energy          =    -301.8369777909064737 [Eh]
	 Singles Energy            =      -0.0000000000000000 [Eh]
	 Same-Spin Energy          =      -0.3280512832107589 [Eh]
	 Opposite-Spin Energy      =      -1.0130774366689916 [Eh]
	 Correlation Energy        =      -1.3411287198797506 [Eh]
	 Total Energy              =    -303.1781065107862219 [Eh]

	 ================> DF-SCS-MP2 Energies <==================
	-----------------------------------------------------------
	 SCS Same-Spin Scale       =       0.3333333333333333 [-]
	 SCS Opposite-Spin Scale   =       1.2000000000000000 [-]
	 SCS Same-Spin Energy      =      -0.1093504277369196 [Eh]
	 SCS Opposite-Spin Energy  =      -1.2156929240027898 [Eh]
	 SCS Correlation Energy    =      -1.3250433517397096 [Eh]
	 SCS Total Energy          =    -303.1620211426462106 [Eh]
	-----------------------------------------------------------

  Dipole Moment: [D]
     X:     3.4700      Y:     0.0000      Z:     0.9689     Total:     3.6028

*** Psi4 exiting successfully. Buy a developer a beer!
