                               Psi4 1.3.2 release

  ==> Input File <==

--------------------------------------------------------------------------
#psi4
#
memory 32 gb

molecule  {
0 1
  N        2.3228640    -0.0000190    -0.0807740
  N       -1.9067410     0.0000080     0.0117080
  C        0.9299840    -0.0000240    -0.0024660
  C        0.1996340     1.1955560    -0.0090950
  C        0.1996160    -1.1955790    -0.0091200
  C       -1.1320493     1.1005806     0.0031310
  C       -1.1320924    -1.1005448     0.0031744
  H        0.7091300     2.1568960    -0.0157440
  H        0.7090670    -2.1569450    -0.0157620
  H       -1.7697200     2.0619740     0.0063330
  H       -1.7697630    -2.0619320     0.0061490
  H        2.7609080    -0.8358400     0.2906890
  H        2.7608480     0.8359780     0.2902720
units angstrom
no_reorient  #important for SAPT in psi4, default
symmetry c1  #important for SAPT in psi4, default
}

set PROPERTIES_ORIGIN ["COM"]
properties('MP2/aug-cc-pvtz', properties = ['dipole'])
--------------------------------------------------------------------------

    Molecular point group: c1
  Charge       = 0
  Multiplicity = 1
  Basis Set: AUG-CC-PVTZ
    Blend: AUG-CC-PVTZ
  Basis Set: (AUG-CC-PVTZ AUX)
    Blend: AUG-CC-PVTZ-JKFIT

    Orbital Energies [Eh]
    ---------------------

    Doubly Occupied:

       1A    -15.589309     2A    -15.550140     3A    -11.307396
       4A    -11.271895     5A    -11.271884     6A    -11.226032
       7A    -11.226015     8A     -1.264270     9A     -1.228564
      10A     -1.063186    11A     -1.038753    12A     -0.849922
      13A     -0.848050    14A     -0.716735    15A     -0.716544
      16A     -0.652990    17A     -0.627633    18A     -0.593963
      19A     -0.590017    20A     -0.563307    21A     -0.490476
      22A     -0.483067    23A     -0.427543    24A     -0.361746
      25A     -0.336744

  @DF-RHF Final Energy:  -301.82365815158084

   => Energetics <=

    Nuclear Repulsion Energy =            275.9902457328284981
    One-Electron Energy =                -955.0354471563562129
    Two-Electron Energy =                 377.2215432719468708
    Total Energy =                       -301.8236581515808439
  Basis Set: (AUG-CC-PVTZ AUX)
    Blend: AUG-CC-PVTZ-RI
    Molecular point group: c1

    Geometry (in Angstrom), charge = 0, multiplicity = 1:

       Center              X                  Y                   Z               Mass
    ------------   -----------------  -----------------  -----------------  -----------------
         N            2.343754459605    -0.000017337017    -0.074678407776    14.003074004430
         N           -1.885850540395     0.000009662983     0.017803592224    14.003074004430
         C            0.950874459605    -0.000022337017     0.003629592224    12.000000000000
         C            0.220524459605     1.195557662983    -0.002999407776    12.000000000000
         C            0.220506459605    -1.195577337017    -0.003024407776    12.000000000000
         C           -1.111158840395     1.100582262983     0.009226592224    12.000000000000
         C           -1.111201940395    -1.100543137017     0.009269992224    12.000000000000
         H            0.730020459605     2.156897662983    -0.009648407776     1.007825032230
         H            0.729957459605    -2.156943337017    -0.009666407776     1.007825032230
         H           -1.748829540395     2.061975662983     0.012428592224     1.007825032230
         H           -1.748872540395    -2.061930337017     0.012244592224     1.007825032230
         H            2.781798459605    -0.835838337017     0.296784592224     1.007825032230
         H            2.781738459605     0.835979662983     0.296367592224     1.007825032230

  Basis Set: AUG-CC-PVTZ
    Blend: AUG-CC-PVTZ
  Basis Set: (AUG-CC-PVTZ AUX)
    Blend: AUG-CC-PVTZ-JKFIT
	 Reference Energy          =    -301.8236581515808439 [Eh]
	 Singles Energy            =      -0.0000000000000000 [Eh]
	 Same-Spin Energy          =      -0.3282022292011144 [Eh]
	 Opposite-Spin Energy      =      -1.0131663575492800 [Eh]
	 Correlation Energy        =      -1.3413685867503944 [Eh]
	 Total Energy              =    -303.1650267383312212 [Eh]

	 ================> DF-SCS-MP2 Energies <==================
	-----------------------------------------------------------
	 SCS Same-Spin Scale       =       0.3333333333333333 [-]
	 SCS Opposite-Spin Scale   =       1.2000000000000000 [-]
	 SCS Same-Spin Energy      =      -0.1094007430670381 [Eh]
	 SCS Opposite-Spin Energy  =      -1.2157996290591360 [Eh]
	 SCS Correlation Energy    =      -1.3252003721261740 [Eh]
	 SCS Total Energy          =    -303.1488585237070197 [Eh]
	-----------------------------------------------------------

  Dipole Moment: [D]
     X:     3.8372      Y:     0.0002      Z:     0.9739     Total:     3.9588

*** Psi4 exiting successfully. Buy a developer a beer!
