                               Psi4 1.3.2 release

  ==> Input File <==

--------------------------------------------------------------------------
#psi4
#
memory 32 gb

molecule  {
0 1
  N        2.3228640    -0.0000190    -0.0807740
  N       -1.9067410     0.0000080     0.0117080
  C        0.9299840    -0.0000240    -0.0024660
  C        0.3038935     1.0248836    -0.0081487
  C        0.1996160    -1.1955790    -0.0091200
  C       -1.1907070     1.1396190     0.0037780
  C       -1.1907490    -1.1395810     0.0038230
  H        0.7091300     2.1568960    -0.0157440
  H        0.7090670    -2.1569450    -0.0157620
  H       -1.7697200     2.0619740     0.0063330
  H       -1.7697630    -2.0619320     0.0061490
  H        2.7609080    -0.8358400     0.2906890
  H        2.7608480     0.8359780     0.2902720
units angstrom
no_reorient  #important for SAPT in psi4, default
symmetry c1  #important for SAPT in psi4, default
}

set PROPERTIES_ORIGIN ["COM"]
properties('MP2/aug-cc-pvtz', properties = ['dipole'])
--------------------------------------------------------------------------

    Molecular point group: c1
  Charge       = 0
  Multiplicity = 1
  Basis Set: AUG-CC-PVTZ
    Blend: AUG-CC-PVTZ
  Basis Set: (AUG-CC-PVTZ AUX)
    Blend: AUG-CC-PVTZ-JKFIT

    Orbital Energies [Eh]
    ---------------------

    Doubly Occupied:

       1A    -15.572278     2A    -15.560301     3A    -11.293354
       4A    -11.270547     5A    -11.267798     6A    -11.236288
       7A    -11.227820     8A     -1.264694     9A     -1.224392
      10A     -1.077544    11A     -1.018852    12A     -0.877014
      13A     -0.827004    14A     -0.721991    15A     -0.704788
      16A     -0.645217    17A     -0.628029    18A     -0.616362
      19A     -0.569421    20A     -0.562718    21A     -0.512972
      22A     -0.484062    23A     -0.408335    24A     -0.358196
      25A     -0.335911

  @DF-RHF Final Energy:  -301.77341751241443

   => Energetics <=

    Nuclear Repulsion Energy =            276.2557180670261801
    One-Electron Energy =                -955.5264971398263469
    Two-Electron Energy =                 377.4973615603857979
    Total Energy =                       -301.7734175124144258
  Basis Set: (AUG-CC-PVTZ AUX)
    Blend: AUG-CC-PVTZ-RI
    Molecular point group: c1

    Geometry (in Angstrom), charge = 0, multiplicity = 1:

       Center              X                  Y                   Z               Mass
    ------------   -----------------  -----------------  -----------------  -----------------
         N            2.345420088946     0.021758047730    -0.074964446200    14.003074004430
         N           -1.884184911054     0.021785047730     0.017517553800    14.003074004430
         C            0.952540088946     0.021753047730     0.003343553800    12.000000000000
         C            0.326449588946     1.046660647730    -0.002339146200    12.000000000000
         C            0.222172088946    -1.173801952270    -0.003310446200    12.000000000000
         C           -1.168150911054     1.161396047730     0.009587553800    12.000000000000
         C           -1.168192911054    -1.117803952270     0.009632553800    12.000000000000
         H            0.731686088946     2.178673047730    -0.009934446200     1.007825032230
         H            0.731623088946    -2.135167952270    -0.009952446200     1.007825032230
         H           -1.747163911054     2.083751047730     0.012142553800     1.007825032230
         H           -1.747206911054    -2.040154952270     0.011958553800     1.007825032230
         H            2.783464088946    -0.814062952270     0.296498553800     1.007825032230
         H            2.783404088946     0.857755047730     0.296081553800     1.007825032230

  Basis Set: AUG-CC-PVTZ
    Blend: AUG-CC-PVTZ
  Basis Set: (AUG-CC-PVTZ AUX)
    Blend: AUG-CC-PVTZ-JKFIT
	 Reference Energy          =    -301.7734175124144258 [Eh]
	 Singles Energy            =      -0.0000000000000000 [Eh]
	 Same-Spin Energy          =      -0.3285771314563540 [Eh]
	 Opposite-Spin Energy      =      -1.0156146781525075 [Eh]
	 Correlation Energy        =      -1.3441918096088614 [Eh]
	 Total Energy              =    -303.1176093220232701 [Eh]

	 ================> DF-SCS-MP2 Energies <==================
	-----------------------------------------------------------
	 SCS Same-Spin Scale       =       0.3333333333333333 [-]
	 SCS Opposite-Spin Scale   =       1.2000000000000000 [-]
	 SCS Same-Spin Energy      =      -0.1095257104854513 [Eh]
	 SCS Opposite-Spin Energy  =      -1.2187376137830090 [Eh]
	 SCS Correlation Energy    =      -1.3282633242684603 [Eh]
	 SCS Total Energy          =    -303.1016808366828741 [Eh]
	-----------------------------------------------------------

  Dipole Moment: [D]
     X:     3.0185      Y:     0.0419      Z:     0.9970     Total:     3.1791

*** Psi4 exiting successfully. Buy a developer a beer!
