                               Psi4 1.3.2 release

  ==> Input File <==

--------------------------------------------------------------------------
#psi4
#
memory 32 gb

molecule  {
0 1
  N        2.3228640    -0.0000190    -0.0807740
  N       -1.9067410     0.0000080     0.0117080
  C        0.9299840    -0.0000240    -0.0024660
  C        0.1996340     1.1955560    -0.0090950
  C        0.1996160    -1.1955790    -0.0091200
  C       -1.2513273     1.1755338     0.0044468
  C       -1.2513681    -1.1754936     0.0044932
  H        0.7091300     2.1568960    -0.0157440
  H        0.7090670    -2.1569450    -0.0157620
  H       -1.7697200     2.0619740     0.0063330
  H       -1.7697630    -2.0619320     0.0061490
  H        2.7609080    -0.8358400     0.2906890
  H        2.7608480     0.8359780     0.2902720
units angstrom
no_reorient  #important for SAPT in psi4, default
symmetry c1  #important for SAPT in psi4, default
}

set PROPERTIES_ORIGIN ["COM"]
properties('MP2/aug-cc-pvtz', properties = ['dipole'])
--------------------------------------------------------------------------

    Molecular point group: c1
  Charge       = 0
  Multiplicity = 1
  Basis Set: AUG-CC-PVTZ
    Blend: AUG-CC-PVTZ
  Basis Set: (AUG-CC-PVTZ AUX)
    Blend: AUG-CC-PVTZ-JKFIT

    Orbital Energies [Eh]
    ---------------------

    Doubly Occupied:

       1A    -15.581792     2A    -15.553272     3A    -11.299593
       4A    -11.278739     5A    -11.278720     6A    -11.238320
       7A    -11.238304     8A     -1.248733     9A     -1.220511
      10A     -1.042592    11A     -1.020005    12A     -0.866316
      13A     -0.838650    14A     -0.726150    15A     -0.703788
      16A     -0.658449    17A     -0.630564    18A     -0.611715
      19A     -0.586761    20A     -0.548683    21A     -0.527466
      22A     -0.483907    23A     -0.399424    24A     -0.334424
      25A     -0.334204

  @DF-RHF Final Energy:  -301.82094055033991

   => Energetics <=

    Nuclear Repulsion Energy =            271.5424218461693613
    One-Electron Energy =                -946.2245570189514865
    Two-Electron Energy =                 372.8611946224422695
    Total Energy =                       -301.8209405503399125
  Basis Set: (AUG-CC-PVTZ AUX)
    Blend: AUG-CC-PVTZ-RI
    Molecular point group: c1

    Geometry (in Angstrom), charge = 0, multiplicity = 1:

       Center              X                  Y                   Z               Mass
    ------------   -----------------  -----------------  -----------------  -----------------
         N            2.374190930649    -0.000017898402    -0.075014549813    14.003074004430
         N           -1.855414069351     0.000009101598     0.017467450187    14.003074004430
         C            0.981310930649    -0.000022898402     0.003293450187    12.000000000000
         C            0.250960930649     1.195557101598    -0.003335549813    12.000000000000
         C            0.250942930649    -1.195577898402    -0.003360549813    12.000000000000
         C           -1.200000369351     1.175534901598     0.010206250187    12.000000000000
         C           -1.200041169351    -1.175492498402     0.010252650187    12.000000000000
         H            0.760456930649     2.156897101598    -0.009984549813     1.007825032230
         H            0.760393930649    -2.156943898402    -0.010002549813     1.007825032230
         H           -1.718393069351     2.061975101598     0.012092450187     1.007825032230
         H           -1.718436069351    -2.061930898402     0.011908450187     1.007825032230
         H            2.812234930649    -0.835838898402     0.296448450187     1.007825032230
         H            2.812174930649     0.835979101598     0.296031450187     1.007825032230

  Basis Set: AUG-CC-PVTZ
    Blend: AUG-CC-PVTZ
  Basis Set: (AUG-CC-PVTZ AUX)
    Blend: AUG-CC-PVTZ-JKFIT
	 Reference Energy          =    -301.8209405503399125 [Eh]
	 Singles Energy            =      -0.0000000000000000 [Eh]
	 Same-Spin Energy          =      -0.3287560154754977 [Eh]
	 Opposite-Spin Energy      =      -1.0149950739919955 [Eh]
	 Correlation Energy        =      -1.3437510894674931 [Eh]
	 Total Energy              =    -303.1646916398074154 [Eh]

	 ================> DF-SCS-MP2 Energies <==================
	-----------------------------------------------------------
	 SCS Same-Spin Scale       =       0.3333333333333333 [-]
	 SCS Opposite-Spin Scale   =       1.2000000000000000 [-]
	 SCS Same-Spin Energy      =      -0.1095853384918326 [Eh]
	 SCS Opposite-Spin Energy  =      -1.2179940887903946 [Eh]
	 SCS Correlation Energy    =      -1.3275794272822272 [Eh]
	 SCS Total Energy          =    -303.1485199776221293 [Eh]
	-----------------------------------------------------------

  Dipole Moment: [D]
     X:     3.3826      Y:     0.0002      Z:     0.9795     Total:     3.5215

*** Psi4 exiting successfully. Buy a developer a beer!
