                               Psi4 1.3.2 release

  ==> Input File <==

--------------------------------------------------------------------------
#psi4
#
memory 32 gb

molecule  {
0 1
  N        2.3228640    -0.0000190    -0.0807740
  N       -1.9067410     0.0000080     0.0117080
  C        0.9299840    -0.0000240    -0.0024660
  C        0.1996340     1.1955560    -0.0090950
  C        0.1996160    -1.1955790    -0.0091200
  C       -1.1907070     1.1396190     0.0037780
  C       -1.1907490    -1.1395810     0.0038230
  H        0.7091300     2.1568960    -0.0157440
  H        0.7090670    -2.1569450    -0.0157620
  H       -1.7697200     2.0619740     0.0063330
  H       -1.7697630    -2.0619320     0.0061490
  H        2.7828954    -0.8152866     0.3093207
  H        2.7828358     0.8154355     0.3089130
units angstrom
no_reorient  #important for SAPT in psi4, default
symmetry c1  #important for SAPT in psi4, default
}

set PROPERTIES_ORIGIN ["COM"]
properties('MP2/aug-cc-pvtz', properties = ['dipole'])
--------------------------------------------------------------------------

    Molecular point group: c1
  Charge       = 0
  Multiplicity = 1
  Basis Set: AUG-CC-PVTZ
    Blend: AUG-CC-PVTZ
  Basis Set: (AUG-CC-PVTZ AUX)
    Blend: AUG-CC-PVTZ-JKFIT

    Orbital Energies [Eh]
    ---------------------

    Doubly Occupied:

       1A    -15.584960     2A    -15.551446     3A    -11.303644
       4A    -11.274817     5A    -11.274801     6A    -11.232015
       7A    -11.231999     8A     -1.255497     9A     -1.224121
      10A     -1.052414    11A     -1.027800    12A     -0.857193
      13A     -0.844082    14A     -0.721050    15A     -0.705502
      16A     -0.654522    17A     -0.620001    18A     -0.609308
      19A     -0.590249    20A     -0.555319    21A     -0.510359
      22A     -0.487004    23A     -0.414283    24A     -0.347402
      25A     -0.335851

  @DF-RHF Final Energy:  -301.83671332359188

   => Energetics <=

    Nuclear Repulsion Energy =            273.6225174634232644
    One-Electron Energy =                -950.3871796029202415
    Two-Electron Energy =                 374.9279488159050970
    Total Energy =                       -301.8367133235918800
  Basis Set: (AUG-CC-PVTZ AUX)
    Blend: AUG-CC-PVTZ-RI
    Molecular point group: c1

    Geometry (in Angstrom), charge = 0, multiplicity = 1:

       Center              X                  Y                   Z               Mass
    ------------   -----------------  -----------------  -----------------  -----------------
         N            2.358251082456    -0.000017734508    -0.075243105389    14.003074004430
         N           -1.871353917544     0.000009265492     0.017238894611    14.003074004430
         C            0.965371082456    -0.000022734508     0.003064894611    12.000000000000
         C            0.235021082456     1.195557265492    -0.003564105389    12.000000000000
         C            0.235003082456    -1.195577734508    -0.003589105389    12.000000000000
         C           -1.155319917544     1.139620265492     0.009308894611    12.000000000000
         C           -1.155361917544    -1.139579734508     0.009353894611    12.000000000000
         H            0.744517082456     2.156897265492    -0.010213105389     1.007825032230
         H            0.744454082456    -2.156943734508    -0.010231105389     1.007825032230
         H           -1.734332917544     2.061975265492     0.011863894611     1.007825032230
         H           -1.734375917544    -2.061930734508     0.011679894611     1.007825032230
         H            2.818282482456    -0.815285334508     0.314851594611     1.007825032230
         H            2.818222882456     0.815436765492     0.314443894611     1.007825032230

  Basis Set: AUG-CC-PVTZ
    Blend: AUG-CC-PVTZ
  Basis Set: (AUG-CC-PVTZ AUX)
    Blend: AUG-CC-PVTZ-JKFIT
	 Reference Energy          =    -301.8367133235918800 [Eh]
	 Singles Energy            =      -0.0000000000000000 [Eh]
	 Same-Spin Energy          =      -0.3281111991825614 [Eh]
	 Opposite-Spin Energy      =      -1.0131780136049584 [Eh]
	 Correlation Energy        =      -1.3412892127875198 [Eh]
	 Total Energy              =    -303.1780025363793811 [Eh]

	 ================> DF-SCS-MP2 Energies <==================
	-----------------------------------------------------------
	 SCS Same-Spin Scale       =       0.3333333333333333 [-]
	 SCS Opposite-Spin Scale   =       1.2000000000000000 [-]
	 SCS Same-Spin Energy      =      -0.1093703997275205 [Eh]
	 SCS Opposite-Spin Energy  =      -1.2158136163259501 [Eh]
	 SCS Correlation Energy    =      -1.3251840160534705 [Eh]
	 SCS Total Energy          =    -303.1618973396453498 [Eh]
	-----------------------------------------------------------

  Dipole Moment: [D]
     X:     3.5904      Y:     0.0002      Z:     1.0209     Total:     3.7327

*** Psi4 exiting successfully. Buy a developer a beer!
