                               Psi4 1.3.2 release

  ==> Input File <==

--------------------------------------------------------------------------
#psi4
#
memory 32 gb

molecule  {
0 1
  N        2.3228640    -0.0000190    -0.0807740
  N       -1.8867433    -0.0123156     0.0115789
  C        0.9299840    -0.0000240    -0.0024660
  C        0.1996340     1.1955560    -0.0090950
  C        0.1996160    -1.1955790    -0.0091200
  C       -1.1907070     1.1396190     0.0037780
  C       -1.1907490    -1.1395810     0.0038230
  H        0.7091300     2.1568960    -0.0157440
  H        0.7090670    -2.1569450    -0.0157620
  H       -1.7535351     2.0719387     0.0061868
  H       -1.7697630    -2.0619320     0.0061490
  H        2.7609080    -0.8358400     0.2906890
  H        2.7608480     0.8359780     0.2902720
units angstrom
no_reorient  #important for SAPT in psi4, default
symmetry c1  #important for SAPT in psi4, default
}

set PROPERTIES_ORIGIN ["COM"]
properties('MP2/aug-cc-pvtz', properties = ['dipole'])
--------------------------------------------------------------------------

    Molecular point group: c1
  Charge       = 0
  Multiplicity = 1
  Basis Set: AUG-CC-PVTZ
    Blend: AUG-CC-PVTZ
  Basis Set: (AUG-CC-PVTZ AUX)
    Blend: AUG-CC-PVTZ-JKFIT

    Orbital Energies [Eh]
    ---------------------

    Doubly Occupied:

       1A    -15.584413     2A    -15.548401     3A    -11.301985
       4A    -11.275151     5A    -11.272219     6A    -11.231783
       7A    -11.230387     8A     -1.258283     9A     -1.225825
      10A     -1.051151    11A     -1.028692    12A     -0.859228
      13A     -0.842079    14A     -0.719089    15A     -0.710556
      16A     -0.653597    17A     -0.624779    18A     -0.608028
      19A     -0.590581    20A     -0.556187    21A     -0.512681
      22A     -0.488181    23A     -0.409950    24A     -0.347504
      25A     -0.334840

  @DF-RHF Final Energy:  -301.83780490097342

   => Energetics <=

    Nuclear Repulsion Energy =            274.1909054841520401
    One-Electron Energy =                -951.5262823144944377
    Two-Electron Energy =                 375.4975719293689735
    Total Energy =                       -301.8378049009734241
  Basis Set: (AUG-CC-PVTZ AUX)
    Blend: AUG-CC-PVTZ-RI
    Molecular point group: c1

    Geometry (in Angstrom), charge = 0, multiplicity = 1:

       Center              X                  Y                   Z               Mass
    ------------   -----------------  -----------------  -----------------  -----------------
         N            2.355571516149     0.001710402014    -0.074822922517    14.003074004430
         N           -1.854035783851    -0.010586197986     0.017529977483    14.003074004430
         C            0.962691516149     0.001705402014     0.003485077483    12.000000000000
         C            0.232341516149     1.197285402014    -0.003143922517    12.000000000000
         C            0.232323516149    -1.193849597986    -0.003168922517    12.000000000000
         C           -1.157999483851     1.141348402014     0.009729077483    12.000000000000
         C           -1.158041483851    -1.137851597986     0.009774077483    12.000000000000
         H            0.741837516149     2.158625402014    -0.009792922517     1.007825032230
         H            0.741774516149    -2.155215597986    -0.009810922517     1.007825032230
         H           -1.720827583851     2.073668102014     0.012137877483     1.007825032230
         H           -1.737055483851    -2.060202597986     0.012100077483     1.007825032230
         H            2.793615516149    -0.834110597986     0.296640077483     1.007825032230
         H            2.793555516149     0.837707402014     0.296223077483     1.007825032230

  Basis Set: AUG-CC-PVTZ
    Blend: AUG-CC-PVTZ
  Basis Set: (AUG-CC-PVTZ AUX)
    Blend: AUG-CC-PVTZ-JKFIT
	 Reference Energy          =    -301.8378049009734241 [Eh]
	 Singles Energy            =      -0.0000000000000000 [Eh]
	 Same-Spin Energy          =      -0.3280175721924234 [Eh]
	 Opposite-Spin Energy      =      -1.0126093340510907 [Eh]
	 Correlation Energy        =      -1.3406269062435141 [Eh]
	 Total Energy              =    -303.1784318072169526 [Eh]

	 ================> DF-SCS-MP2 Energies <==================
	-----------------------------------------------------------
	 SCS Same-Spin Scale       =       0.3333333333333333 [-]
	 SCS Opposite-Spin Scale   =       1.2000000000000000 [-]
	 SCS Same-Spin Energy      =      -0.1093391907308078 [Eh]
	 SCS Opposite-Spin Energy  =      -1.2151312008613087 [Eh]
	 SCS Correlation Energy    =      -1.3244703915921165 [Eh]
	 SCS Total Energy          =    -303.1622752925655391 [Eh]
	-----------------------------------------------------------

  Dipole Moment: [D]
     X:     3.5393      Y:     0.0325      Z:     0.9774     Total:     3.6720

*** Psi4 exiting successfully. Buy a developer a beer!
