                               Psi4 1.4a3.dev225

  ==> Input File <==

--------------------------------------------------------------------------
#psi4
#
memory 32 gb

molecule  {
0 1
  N        2.3220460    -0.0000010    -0.0807810
  N       -1.9068710     0.0000000     0.0099480
  C        0.9306030     0.0000000    -0.0018200
  C        0.1994710     1.1952220    -0.0074850
  C        0.1994710    -1.1952220    -0.0074870
  C       -1.1908010     1.1392150     0.0036550
  C       -1.1908010    -1.1392150     0.0036580
  H        0.7083710     2.1567710    -0.0146740
  H        0.7083720    -2.1567700    -0.0146820
  H       -1.7689000     2.0620960     0.0068010
  H       -1.7795171    -2.0790452     0.0068557
  H        2.7635820    -0.8367020     0.2842420
  H        2.7635810     0.8367080     0.2842220
units angstrom
no_reorient  #important for SAPT in psi4, default
symmetry c1  #important for SAPT in psi4, default
}

set PROPERTIES_ORIGIN ["COM"]
properties('MP2/aug-cc-pvtz', properties = ['dipole'])
--------------------------------------------------------------------------

    Molecular point group: c1
  Charge       = 0
  Multiplicity = 1
  Basis Set: AUG-CC-PVTZ
    Blend: AUG-CC-PVTZ
  Basis Set: (AUG-CC-PVTZ AUX)
    Blend: AUG-CC-PVTZ-JKFIT

    Orbital Energies [Eh]
    ---------------------

    Doubly Occupied:

       1A    -15.585387     2A    -15.551055     3A    -11.303242
       4A    -11.276949     5A    -11.274816     6A    -11.231722
       7A    -11.231604     8A     -1.255797     9A     -1.224495
      10A     -1.051731    11A     -1.027157    12A     -0.856850
      13A     -0.842132    14A     -0.717670    15A     -0.710626
      16A     -0.653832    17A     -0.622876    18A     -0.606935
      19A     -0.589065    20A     -0.555568    21A     -0.509432
      22A     -0.486833    23A     -0.413832    24A     -0.347432
      25A     -0.334869

  @DF-RHF Final Energy:  -301.83666224029298

   => Energetics <=

    Nuclear Repulsion Energy =            273.6283192468879975
    One-Electron Energy =                -950.4061491084288491
    Two-Electron Energy =                 374.9411676212478142
    Total Energy =                       -301.8366622402929806
  Basis Set: (AUG-CC-PVTZ AUX)
    Blend: AUG-CC-PVTZ-RI
    Molecular point group: c1

    Geometry (in Angstrom), charge = 0, multiplicity = 1:

       Center              X                  Y                   Z               Mass
    ------------   -----------------  -----------------  -----------------  -----------------
         N            2.358077764024     0.000180692859    -0.074948787666    14.003074004430
         N           -1.870839235976     0.000181692859     0.015780212334    14.003074004430
         C            0.966634764024     0.000181692859     0.004012212334    12.000000000000
         C            0.235502764024     1.195403692859    -0.001652787666    12.000000000000
         C            0.235502764024    -1.195040307141    -0.001654787666    12.000000000000
         C           -1.154769235976     1.139396692859     0.009487212334    12.000000000000
         C           -1.154769235976    -1.139033307141     0.009490212334    12.000000000000
         H            0.744402764024     2.156952692859    -0.008841787666     1.007825032230
         H            0.744403764024    -2.156588307141    -0.008849787666     1.007825032230
         H           -1.732868235976     2.062277692859     0.012633212334     1.007825032230
         H           -1.743485335976    -2.078863507141     0.012687912334     1.007825032230
         H            2.799613764024    -0.836520307141     0.290074212334     1.007825032230
         H            2.799612764024     0.836889692859     0.290054212334     1.007825032230

  Basis Set: AUG-CC-PVTZ
    Blend: AUG-CC-PVTZ
  Basis Set: (AUG-CC-PVTZ AUX)
    Blend: AUG-CC-PVTZ-JKFIT
	 Reference Energy          =    -301.8366622402929806 [Eh]
	 Singles Energy            =      -0.0000000000000000 [Eh]
	 Same-Spin Energy          =      -0.3281604460589503 [Eh]
	 Opposite-Spin Energy      =      -1.0132596984297375 [Eh]
	 Correlation Energy        =      -1.3414201444886877 [Eh]
	 Total Energy              =    -303.1780823847816464 [Eh]

	 ================> DF-SCS-MP2 Energies <==================
	-----------------------------------------------------------
	 SCS Same-Spin Scale       =       0.3333333333333333 [-]
	 SCS Opposite-Spin Scale   =       1.2000000000000000 [-]
	 SCS Same-Spin Energy      =      -0.1093868153529834 [Eh]
	 SCS Opposite-Spin Energy  =      -1.2159116381156849 [Eh]
	 SCS Correlation Energy    =      -1.3252984534686683 [Eh]
	 SCS Total Energy          =    -303.1619606937616709 [Eh]
	-----------------------------------------------------------

  Dipole Moment: [D]
     X:     3.6215      Y:     0.0098      Z:     0.9642     Total:     3.7476

*** Psi4 exiting successfully. Buy a developer a beer!
