                               Psi4 1.3.2 release

  ==> Input File <==

--------------------------------------------------------------------------
#psi4
#
memory 32 gb

molecule  {
0 1
  N        2.3228640    -0.0000190    -0.0807740
  N       -1.9067410     0.0000080     0.0117080
  C        0.9299840    -0.0000240    -0.0024660
  C        0.1996340     1.1955560    -0.0090950
  C        0.1996160    -1.1955790    -0.0091200
  C       -1.1907070     1.1396190     0.0037780
  C       -1.1907490    -1.1395810     0.0038230
  H        0.7091300     2.1568960    -0.0157440
  H        0.7090670    -2.1569450    -0.0157620
  H       -1.7697200     2.0619740     0.0063330
  H       -1.6634276    -1.8925431     0.0057218
  H        2.7609080    -0.8358400     0.2906890
  H        2.7608480     0.8359780     0.2902720
units angstrom
no_reorient  #important for SAPT in psi4, default
symmetry c1  #important for SAPT in psi4, default
}

set PROPERTIES_ORIGIN ["COM"]
properties('MP2/aug-cc-pvtz', properties = ['dipole'])
--------------------------------------------------------------------------

    Molecular point group: c1
  Charge       = 0
  Multiplicity = 1
  Basis Set: AUG-CC-PVTZ
    Blend: AUG-CC-PVTZ
  Basis Set: (AUG-CC-PVTZ AUX)
    Blend: AUG-CC-PVTZ-JKFIT

    Orbital Energies [Eh]
    ---------------------

    Doubly Occupied:

       1A    -15.584615     2A    -15.549721     3A    -11.302115
       4A    -11.273437     5A    -11.250976     6A    -11.231368
       7A    -11.230533     8A     -1.255498     9A     -1.224167
      10A     -1.050677    11A     -1.036259    12A     -0.874696
      13A     -0.846299    14A     -0.735417    15A     -0.709762
      16A     -0.660922    17A     -0.626136    18A     -0.615162
      19A     -0.594637    20A     -0.554593    21A     -0.517459
      22A     -0.485898    23A     -0.414850    24A     -0.346984
      25A     -0.334218

  @DF-RHF Final Energy:  -301.80297858251049

   => Energetics <=

    Nuclear Repulsion Energy =            274.8326035110924295
    One-Electron Energy =                -952.6583645421592337
    Two-Electron Energy =                 376.0227824485563133
    Total Energy =                       -301.8029785825104909
  Basis Set: (AUG-CC-PVTZ AUX)
    Blend: AUG-CC-PVTZ-RI
    Molecular point group: c1

    Geometry (in Angstrom), charge = 0, multiplicity = 1:

       Center              X                  Y                   Z               Mass
    ------------   -----------------  -----------------  -----------------  -----------------
         N            2.357582862357    -0.001832702771    -0.074839132488    14.003074004430
         N           -1.872022137643    -0.001805702771     0.017642867512    14.003074004430
         C            0.964702862357    -0.001837702771     0.003468867512    12.000000000000
         C            0.234352862357     1.193742297229    -0.003160132488    12.000000000000
         C            0.234334862357    -1.197392702771    -0.003185132488    12.000000000000
         C           -1.155988137643     1.137805297229     0.009712867512    12.000000000000
         C           -1.156030137643    -1.141394702771     0.009757867512    12.000000000000
         H            0.743848862357     2.155082297229    -0.009809132488     1.007825032230
         H            0.743785862357    -2.158758702771    -0.009827132488     1.007825032230
         H           -1.735001137643     2.060160297229     0.012267867512     1.007825032230
         H           -1.628708737643    -1.894356802771     0.011656667512     1.007825032230
         H            2.795626862357    -0.837653702771     0.296623867512     1.007825032230
         H            2.795566862357     0.834164297229     0.296206867512     1.007825032230

  Basis Set: AUG-CC-PVTZ
    Blend: AUG-CC-PVTZ
  Basis Set: (AUG-CC-PVTZ AUX)
    Blend: AUG-CC-PVTZ-JKFIT
	 Reference Energy          =    -301.8029785825104909 [Eh]
	 Singles Energy            =      -0.0000000000000000 [Eh]
	 Same-Spin Energy          =      -0.3279121683794038 [Eh]
	 Opposite-Spin Energy      =      -1.0125709860706866 [Eh]
	 Correlation Energy        =      -1.3404831544500904 [Eh]
	 Total Energy              =    -303.1434617369606030 [Eh]

	 ================> DF-SCS-MP2 Energies <==================
	-----------------------------------------------------------
	 SCS Same-Spin Scale       =       0.3333333333333333 [-]
	 SCS Opposite-Spin Scale   =       1.2000000000000000 [-]
	 SCS Same-Spin Energy      =      -0.1093040561264679 [Eh]
	 SCS Opposite-Spin Energy  =      -1.2150851832848240 [Eh]
	 SCS Correlation Energy    =      -1.3243892394112919 [Eh]
	 SCS Total Energy          =    -303.1273678219217800 [Eh]
	-----------------------------------------------------------

  Dipole Moment: [D]
     X:     3.5883      Y:    -0.0545      Z:     0.9769     Total:     3.7193

*** Psi4 exiting successfully. Buy a developer a beer!
