                               Psi4 1.3.2 release

  ==> Input File <==

--------------------------------------------------------------------------
#psi4
#
memory 32 gb

molecule  {
0 1
  N        2.3228640    -0.0000190    -0.0807740
  N       -1.9067410     0.0000080     0.0117080
  C        0.9296635     0.0439860    -0.0233040
  C        0.1996340     1.1955560    -0.0090950
  C        0.1996160    -1.1955790    -0.0091200
  C       -1.1907070     1.1396190     0.0037780
  C       -1.1907490    -1.1395810     0.0038230
  H        0.7091300     2.1568960    -0.0157440
  H        0.7090670    -2.1569450    -0.0157620
  H       -1.7697200     2.0619740     0.0063330
  H       -1.7697630    -2.0619320     0.0061490
  H        2.7925114    -0.8221916     0.2824444
  H        2.7608480     0.8359780     0.2902720
units angstrom
no_reorient  #important for SAPT in psi4, default
symmetry c1  #important for SAPT in psi4, default
}

set PROPERTIES_ORIGIN ["COM"]
properties('MP2/aug-cc-pvtz', properties = ['dipole'])
--------------------------------------------------------------------------

    Molecular point group: c1
  Charge       = 0
  Multiplicity = 1
  Basis Set: AUG-CC-PVTZ
    Blend: AUG-CC-PVTZ
  Basis Set: (AUG-CC-PVTZ AUX)
    Blend: AUG-CC-PVTZ-JKFIT

    Orbital Energies [Eh]
    ---------------------

    Doubly Occupied:

       1A    -15.584712     2A    -15.551096     3A    -11.303464
       4A    -11.277066     5A    -11.272382     6A    -11.234473
       7A    -11.228549     8A     -1.255188     9A     -1.223453
      10A     -1.054076    11A     -1.026057    12A     -0.859056
      13A     -0.841591    14A     -0.721033    15A     -0.707521
      16A     -0.654852    17A     -0.625142    18A     -0.605644
      19A     -0.589618    20A     -0.555514    21A     -0.509392
      22A     -0.485701    23A     -0.413920    24A     -0.349025
      25A     -0.333447

  @DF-RHF Final Energy:  -301.83441480772342

   => Energetics <=

    Nuclear Repulsion Energy =            273.6537345379637145
    One-Electron Energy =                -950.4523550788453576
    Two-Electron Energy =                 374.9642057331582237
    Total Energy =                       -301.8344148077234195
  Basis Set: (AUG-CC-PVTZ AUX)
    Blend: AUG-CC-PVTZ-RI
    Molecular point group: c1

    Geometry (in Angstrom), charge = 0, multiplicity = 1:

       Center              X                  Y                   Z               Mass
    ------------   -----------------  -----------------  -----------------  -----------------
         N            2.358424544150    -0.005778993034    -0.072096696818    14.003074004430
         N           -1.871180455850    -0.005751993034     0.020385303182    14.003074004430
         C            0.965224044150     0.038226006966    -0.014626696818    12.000000000000
         C            0.235194544150     1.189796006966    -0.000417696818    12.000000000000
         C            0.235176544150    -1.201338993034    -0.000442696818    12.000000000000
         C           -1.155146455850     1.133859006966     0.012455303182    12.000000000000
         C           -1.155188455850    -1.145340993034     0.012500303182    12.000000000000
         H            0.744690544150     2.151136006966    -0.007066696818     1.007825032230
         H            0.744627544150    -2.162704993034    -0.007084696818     1.007825032230
         H           -1.734159455850     2.056214006966     0.015010303182     1.007825032230
         H           -1.734202455850    -2.067691993034     0.014826303182     1.007825032230
         H            2.828071944150    -0.827951593034     0.291121703182     1.007825032230
         H            2.796408544150     0.830218006966     0.298949303182     1.007825032230

  Basis Set: AUG-CC-PVTZ
    Blend: AUG-CC-PVTZ
  Basis Set: (AUG-CC-PVTZ AUX)
    Blend: AUG-CC-PVTZ-JKFIT
	 Reference Energy          =    -301.8344148077234195 [Eh]
	 Singles Energy            =      -0.0000000000000000 [Eh]
	 Same-Spin Energy          =      -0.3280755218760535 [Eh]
	 Opposite-Spin Energy      =      -1.0132207370050188 [Eh]
	 Correlation Energy        =      -1.3412962588810724 [Eh]
	 Total Energy              =    -303.1757110666044923 [Eh]

	 ================> DF-SCS-MP2 Energies <==================
	-----------------------------------------------------------
	 SCS Same-Spin Scale       =       0.3333333333333333 [-]
	 SCS Opposite-Spin Scale   =       1.2000000000000000 [-]
	 SCS Same-Spin Energy      =      -0.1093585072920178 [Eh]
	 SCS Opposite-Spin Energy  =      -1.2158648844060225 [Eh]
	 SCS Correlation Energy    =      -1.3252233916980403 [Eh]
	 SCS Total Energy          =    -303.1596381994214653 [Eh]
	-----------------------------------------------------------

  Dipole Moment: [D]
     X:     3.6192      Y:     0.0159      Z:     0.9648     Total:     3.7456

*** Psi4 exiting successfully. Buy a developer a beer!
