                               Psi4 1.4a2.dev612

  ==> Input File <==

--------------------------------------------------------------------------
#psi4
#
memory 32 gb

molecule  {
0 1
  O       -0.0931590     2.3556990    -0.4150330
  N        1.0902530     0.4589530     0.1084880
  C        3.5423410    -1.0378250     0.1583630
  C        3.3922610     0.2419230    -0.6640150
  C        2.1860550    -1.7140940     0.3593590
  C        2.3559930     1.1736850    -0.0440690
  C        1.1838660    -0.7305840     0.9537980
  C       -0.0769430     1.1544410    -0.1174940
  C       -1.3555190     0.3759530    -0.0649830
  C       -2.4581180     0.9595770     0.5701650
  C       -1.4764924    -0.8916826    -0.6515809
  C       -3.6889550     0.3043920     0.5733300
  C       -2.7428150    -1.4894620    -0.7452070
  C       -3.8339540    -0.9208060    -0.0836890
  H        4.2467360    -1.7252930    -0.3235850
  H        3.9658390    -0.7874970     1.1407660
  H        4.3526700     0.7654030    -0.7430120
  H        3.0718610    -0.0071480    -1.6828650
  H        1.8013720    -2.0729510    -0.6033450
  H        2.2806590    -2.5842610     1.0203320
  H        2.7011300     1.5279490     0.9404770
  H        2.1670460     2.0514870    -0.6632420
  H        0.1966470    -1.1794980     1.0614980
  H        1.5220510    -0.4257650     1.9581480
  H       -2.3377960     1.9283990     1.0483720
  H       -0.6569890    -1.2752080    -1.2661150
  H       -4.5402850     0.7544580     1.0784950
  H       -2.8585310    -2.4316580    -1.2759100
  H       -4.7967310    -1.4262250    -0.0878670
units angstrom
no_reorient  #important for SAPT in psi4, default
symmetry c1  #important for SAPT in psi4, default
}

set PROPERTIES_ORIGIN ["COM"]
properties('MP2/aug-cc-pvtz', properties = ['dipole'])
--------------------------------------------------------------------------

    Molecular point group: c1
  Charge       = 0
  Multiplicity = 1
  Basis Set: AUG-CC-PVTZ
    Blend: AUG-CC-PVTZ
  Basis Set: (AUG-CC-PVTZ AUX)
    Blend: AUG-CC-PVTZ-JKFIT

    Orbital Energies [Eh]
    ---------------------

    Doubly Occupied:

       1A    -20.514632     2A    -15.581302     3A    -11.350145
       4A    -11.266267     5A    -11.253139     6A    -11.252047
       7A    -11.250865     8A    -11.248280     9A    -11.246966
      10A    -11.245924    11A    -11.244152    12A    -11.230463
      13A    -11.227568    14A    -11.224806    15A     -1.369003
      16A     -1.247829    17A     -1.160946    18A     -1.083560
      19A     -1.040953    20A     -1.025531    21A     -1.022204
      22A     -0.924402    23A     -0.867384    24A     -0.845729
      25A     -0.835910    26A     -0.792938    27A     -0.747441
      28A     -0.719800    29A     -0.681064    30A     -0.651157
      31A     -0.637704    32A     -0.630335    33A     -0.626026
      34A     -0.610262    35A     -0.600956    36A     -0.593341
      37A     -0.588190    38A     -0.560237    39A     -0.551122
      40A     -0.533080    41A     -0.513391    42A     -0.505293
      43A     -0.501208    44A     -0.494479    45A     -0.478434
      46A     -0.468661    47A     -0.460355    48A     -0.421710
      49A     -0.369388    50A     -0.344878    51A     -0.342622

  @DF-RHF Final Energy:  -592.67942123048920

   => Energetics <=

    Nuclear Repulsion Energy =            877.2544104335946713
    One-Electron Energy =               -2545.8994976772432892
    Two-Electron Energy =                1075.9656660131593071
    Total Energy =                       -592.6794212304891971
  Basis Set: (AUG-CC-PVTZ AUX)
    Blend: AUG-CC-PVTZ-RI
    Molecular point group: c1

    Geometry (in Angstrom), charge = 0, multiplicity = 1:

       Center              X                  Y                   Z               Mass
    ------------   -----------------  -----------------  -----------------  -----------------
         O           -0.036643855858     2.322542198024    -0.411982783231    15.994914619570
         N            1.146768144142     0.425796198024     0.111538216769    14.003074004430
         C            3.598856144142    -1.070981801976     0.161413216769    12.000000000000
         C            3.448776144142     0.208766198024    -0.660964783231    12.000000000000
         C            2.242570144142    -1.747250801976     0.362409216769    12.000000000000
         C            2.412508144142     1.140528198024    -0.041018783231    12.000000000000
         C            1.240381144142    -0.763740801976     0.956848216769    12.000000000000
         C           -0.020427855858     1.121284198024    -0.114443783231    12.000000000000
         C           -1.299003855858     0.342796198024    -0.061932783231    12.000000000000
         C           -2.401602855858     0.926420198024     0.573215216769    12.000000000000
         C           -1.419977255858    -0.924839401976    -0.648530683231    12.000000000000
         C           -3.632439855858     0.271235198024     0.576380216769    12.000000000000
         C           -2.686299855858    -1.522618801976    -0.742156783231    12.000000000000
         C           -3.777438855858    -0.953962801976    -0.080638783231    12.000000000000
         H            4.303251144142    -1.758449801976    -0.320534783231     1.007825032230
         H            4.022354144142    -0.820653801976     1.143816216769     1.007825032230
         H            4.409185144142     0.732246198024    -0.739961783231     1.007825032230
         H            3.128376144142    -0.040304801976    -1.679814783231     1.007825032230
         H            1.857887144142    -2.106107801976    -0.600294783231     1.007825032230
         H            2.337174144142    -2.617417801976     1.023382216769     1.007825032230
         H            2.757645144142     1.494792198024     0.943527216769     1.007825032230
         H            2.223561144142     2.018330198024    -0.660191783231     1.007825032230
         H            0.253162144142    -1.212654801976     1.064548216769     1.007825032230
         H            1.578566144142    -0.458921801976     1.961198216769     1.007825032230
         H           -2.281280855858     1.895242198024     1.051422216769     1.007825032230
         H           -0.600473855858    -1.308364801976    -1.263064783231     1.007825032230
         H           -4.483769855858     0.721301198024     1.081545216769     1.007825032230
         H           -2.802015855858    -2.464814801976    -1.272859783231     1.007825032230
         H           -4.740215855858    -1.459381801976    -0.084816783231     1.007825032230

  Basis Set: AUG-CC-PVTZ
    Blend: AUG-CC-PVTZ
  Basis Set: (AUG-CC-PVTZ AUX)
    Blend: AUG-CC-PVTZ-JKFIT
	 Reference Energy          =    -592.6794212304891971 [Eh]
	 Singles Energy            =      -0.0000000000000000 [Eh]
	 Same-Spin Energy          =      -0.6438501983301560 [Eh]
	 Opposite-Spin Energy      =      -2.0540840413961767 [Eh]
	 Correlation Energy        =      -2.6979342397263326 [Eh]
	 Total Energy              =    -595.3773554702155479 [Eh]

	 ================> DF-SCS-MP2 Energies <==================
	-----------------------------------------------------------
	 SCS Same-Spin Scale       =       0.3333333333333333 [-]
	 SCS Opposite-Spin Scale   =       1.2000000000000000 [-]
	 SCS Same-Spin Energy      =      -0.2146167327767187 [Eh]
	 SCS Opposite-Spin Energy  =      -2.4649008496754119 [Eh]
	 SCS Correlation Energy    =      -2.6795175824521307 [Eh]
	 SCS Total Energy          =    -595.3589388129413464 [Eh]
	-----------------------------------------------------------

  Dipole Moment: [D]
     X:     0.9565      Y:    -3.3738      Z:     1.0887     Total:     3.6719

*** Psi4 exiting successfully. Buy a developer a beer!
