                               Psi4 1.4a2.dev612

  ==> Input File <==

--------------------------------------------------------------------------
#psi4
#
memory 32 gb

molecule  {
0 1
  O       -0.0931590     2.3556990    -0.4150330
  N        1.0902530     0.4589530     0.1084880
  C        3.5423410    -1.0378250     0.1583630
  C        3.3922610     0.2419230    -0.6640150
  C        2.1860550    -1.7140940     0.3593590
  C        2.3559930     1.1736850    -0.0440690
  C        1.1838660    -0.7305840     0.9537980
  C       -0.0769430     1.1544410    -0.1174940
  C       -1.3555190     0.3759530    -0.0649830
  C       -2.4581180     0.9595770     0.5701650
  C       -1.4484079    -0.9377561    -0.5673877
  C       -3.6889550     0.3043920     0.5733300
  C       -2.7428150    -1.4894620    -0.7452070
  C       -3.8339540    -0.9208060    -0.0836890
  H        4.2467360    -1.7252930    -0.3235850
  H        3.9658390    -0.7874970     1.1407660
  H        4.3526700     0.7654030    -0.7430120
  H        3.0718610    -0.0071480    -1.6828650
  H        1.8013720    -2.0729510    -0.6033450
  H        2.2806590    -2.5842610     1.0203320
  H        2.7011300     1.5279490     0.9404770
  H        2.1670460     2.0514870    -0.6632420
  H        0.1966470    -1.1794980     1.0614980
  H        1.5220510    -0.4257650     1.9581480
  H       -2.3377960     1.9283990     1.0483720
  H       -0.6569890    -1.2752080    -1.2661150
  H       -4.5402850     0.7544580     1.0784950
  H       -2.8585310    -2.4316580    -1.2759100
  H       -4.7967310    -1.4262250    -0.0878670
units angstrom
no_reorient  #important for SAPT in psi4, default
symmetry c1  #important for SAPT in psi4, default
}

set PROPERTIES_ORIGIN ["COM"]
properties('MP2/aug-cc-pvtz', properties = ['dipole'])
--------------------------------------------------------------------------

    Molecular point group: c1
  Charge       = 0
  Multiplicity = 1
  Basis Set: AUG-CC-PVTZ
    Blend: AUG-CC-PVTZ
  Basis Set: (AUG-CC-PVTZ AUX)
    Blend: AUG-CC-PVTZ-JKFIT

    Orbital Energies [Eh]
    ---------------------

    Doubly Occupied:

       1A    -20.514674     2A    -15.580911     3A    -11.350064
       4A    -11.265155     5A    -11.254591     6A    -11.253457
       7A    -11.252897     8A    -11.250771     9A    -11.247958
      10A    -11.246547    11A    -11.245339    12A    -11.229757
      13A    -11.227097    14A    -11.224479    15A     -1.368998
      16A     -1.247526    17A     -1.160141    18A     -1.083152
      19A     -1.041023    20A     -1.025150    21A     -1.020764
      22A     -0.924048    23A     -0.866788    24A     -0.845230
      25A     -0.835542    26A     -0.792156    27A     -0.746751
      28A     -0.718972    29A     -0.680419    30A     -0.650603
      31A     -0.635930    32A     -0.629908    33A     -0.625866
      34A     -0.609368    35A     -0.600949    36A     -0.591766
      37A     -0.587018    38A     -0.559768    39A     -0.551398
      40A     -0.531435    41A     -0.513416    42A     -0.505973
      43A     -0.500472    44A     -0.491810    45A     -0.478119
      46A     -0.468248    47A     -0.459927    48A     -0.420921
      49A     -0.369118    50A     -0.344962    51A     -0.342140

  @DF-RHF Final Energy:  -592.66924810791181

   => Energetics <=

    Nuclear Repulsion Energy =            877.2634789554049348
    One-Electron Energy =               -2545.9265087066919477
    Two-Electron Energy =                1075.9937816433753142
    Total Energy =                       -592.6692481079116988
  Basis Set: (AUG-CC-PVTZ AUX)
    Blend: AUG-CC-PVTZ-RI
    Molecular point group: c1

    Geometry (in Angstrom), charge = 0, multiplicity = 1:

       Center              X                  Y                   Z               Mass
    ------------   -----------------  -----------------  -----------------  -----------------
         O           -0.038425910962     2.325465715119    -0.417325122310    15.994914619570
         N            1.144986089038     0.428719715119     0.106195877690    14.003074004430
         C            3.597074089038    -1.068058284881     0.156070877690    12.000000000000
         C            3.446994089038     0.211689715119    -0.666307122310    12.000000000000
         C            2.240788089038    -1.744327284881     0.357066877690    12.000000000000
         C            2.410726089038     1.143451715119    -0.046361122310    12.000000000000
         C            1.238599089038    -0.760817284881     0.951505877690    12.000000000000
         C           -0.022209910962     1.124207715119    -0.119786122310    12.000000000000
         C           -1.300785910962     0.345719715119    -0.067275122310    12.000000000000
         C           -2.403384910962     0.929343715119     0.567872877690    12.000000000000
         C           -1.393674810962    -0.967989384881    -0.569679822310    12.000000000000
         C           -3.634221910962     0.274158715119     0.571037877690    12.000000000000
         C           -2.688081910962    -1.519695284881    -0.747499122310    12.000000000000
         C           -3.779220910962    -0.951039284881    -0.085981122310    12.000000000000
         H            4.301469089038    -1.755526284881    -0.325877122310     1.007825032230
         H            4.020572089038    -0.817730284881     1.138473877690     1.007825032230
         H            4.407403089038     0.735169715119    -0.745304122310     1.007825032230
         H            3.126594089038    -0.037381284881    -1.685157122310     1.007825032230
         H            1.856105089038    -2.103184284881    -0.605637122310     1.007825032230
         H            2.335392089038    -2.614494284881     1.018039877690     1.007825032230
         H            2.755863089038     1.497715715119     0.938184877690     1.007825032230
         H            2.221779089038     2.021253715119    -0.665534122310     1.007825032230
         H            0.251380089038    -1.209731284881     1.059205877690     1.007825032230
         H            1.576784089038    -0.455998284881     1.955855877690     1.007825032230
         H           -2.283062910962     1.898165715119     1.046079877690     1.007825032230
         H           -0.602255910962    -1.305441284881    -1.268407122310     1.007825032230
         H           -4.485551910962     0.724224715119     1.076202877690     1.007825032230
         H           -2.803797910962    -2.461891284881    -1.278202122310     1.007825032230
         H           -4.741997910962    -1.456458284881    -0.090159122310     1.007825032230

  Basis Set: AUG-CC-PVTZ
    Blend: AUG-CC-PVTZ
  Basis Set: (AUG-CC-PVTZ AUX)
    Blend: AUG-CC-PVTZ-JKFIT
	 Reference Energy          =    -592.6692481079118124 [Eh]
	 Singles Energy            =      -0.0000000000000000 [Eh]
	 Same-Spin Energy          =      -0.6446246042777607 [Eh]
	 Opposite-Spin Energy      =      -2.0559515306367242 [Eh]
	 Correlation Energy        =      -2.7005761349144848 [Eh]
	 Total Energy              =    -595.3698242428263256 [Eh]

	 ================> DF-SCS-MP2 Energies <==================
	-----------------------------------------------------------
	 SCS Same-Spin Scale       =       0.3333333333333333 [-]
	 SCS Opposite-Spin Scale   =       1.2000000000000000 [-]
	 SCS Same-Spin Energy      =      -0.2148748680925869 [Eh]
	 SCS Opposite-Spin Energy  =      -2.4671418367640690 [Eh]
	 SCS Correlation Energy    =      -2.6820167048566557 [Eh]
	 SCS Total Energy          =    -595.3512648127684770 [Eh]
	-----------------------------------------------------------

  Dipole Moment: [D]
     X:     0.8525      Y:    -3.3348      Z:     1.0694     Total:     3.6044

*** Psi4 exiting successfully. Buy a developer a beer!
