                               Psi4 1.4a2.dev612

  ==> Input File <==

--------------------------------------------------------------------------
#psi4
#
memory 32 gb

molecule  {
0 1
  O       -0.0931590     2.3556990    -0.4150330
  N        1.0902530     0.4589530     0.1084880
  C        3.5423410    -1.0378250     0.1583630
  C        3.3922610     0.2419230    -0.6640150
  C        2.1860550    -1.7140940     0.3593590
  C        2.3559930     1.1736850    -0.0440690
  C        1.1838660    -0.7305840     0.9537980
  C       -0.0769430     1.1544410    -0.1174940
  C       -1.3440508     0.3428516    -0.2108349
  C       -2.4581180     0.9595770     0.5701650
  C       -1.5045770    -0.8456090    -0.7357740
  C       -3.6889550     0.3043920     0.5733300
  C       -2.7428150    -1.4894620    -0.7452070
  C       -3.8339540    -0.9208060    -0.0836890
  H        4.2467360    -1.7252930    -0.3235850
  H        3.9658390    -0.7874970     1.1407660
  H        4.3526700     0.7654030    -0.7430120
  H        3.0718610    -0.0071480    -1.6828650
  H        1.8013720    -2.0729510    -0.6033450
  H        2.2806590    -2.5842610     1.0203320
  H        2.7011300     1.5279490     0.9404770
  H        2.1670460     2.0514870    -0.6632420
  H        0.1966470    -1.1794980     1.0614980
  H        1.5220510    -0.4257650     1.9581480
  H       -2.3377960     1.9283990     1.0483720
  H       -0.6569890    -1.2752080    -1.2661150
  H       -4.5402850     0.7544580     1.0784950
  H       -2.8585310    -2.4316580    -1.2759100
  H       -4.7967310    -1.4262250    -0.0878670
units angstrom
no_reorient  #important for SAPT in psi4, default
symmetry c1  #important for SAPT in psi4, default
}

set PROPERTIES_ORIGIN ["COM"]
properties('MP2/aug-cc-pvtz', properties = ['dipole'])
--------------------------------------------------------------------------

    Molecular point group: c1
  Charge       = 0
  Multiplicity = 1
  Basis Set: AUG-CC-PVTZ
    Blend: AUG-CC-PVTZ
  Basis Set: (AUG-CC-PVTZ AUX)
    Blend: AUG-CC-PVTZ-JKFIT

    Orbital Energies [Eh]
    ---------------------

    Doubly Occupied:

       1A    -20.516030     2A    -15.581982     3A    -11.351513
       4A    -11.267664     5A    -11.253503     6A    -11.253360
       7A    -11.249681     8A    -11.247710     9A    -11.245218
      10A    -11.242617    11A    -11.238697    12A    -11.231182
      13A    -11.228148    14A    -11.225428    15A     -1.369745
      16A     -1.248497    17A     -1.163124    18A     -1.084119
      19A     -1.046009    20A     -1.028294    21A     -1.015294
      22A     -0.924497    23A     -0.867288    24A     -0.845273
      25A     -0.835879    26A     -0.794522    27A     -0.747235
      28A     -0.720001    29A     -0.683370    30A     -0.650052
      31A     -0.639680    32A     -0.630992    33A     -0.626395
      34A     -0.612131    35A     -0.598135    36A     -0.591214
      37A     -0.589251    38A     -0.560780    39A     -0.551778
      40A     -0.534438    41A     -0.517573    42A     -0.503136
      43A     -0.502450    44A     -0.485252    45A     -0.479115
      46A     -0.468951    47A     -0.460904    48A     -0.421087
      49A     -0.370457    50A     -0.358486    51A     -0.331614

  @DF-RHF Final Energy:  -592.66646469180989

   => Energetics <=

    Nuclear Repulsion Energy =            876.9943867162431843
    One-Electron Energy =               -2545.3421913054316974
    Two-Electron Energy =                1075.6813398973786207
    Total Energy =                       -592.6664646918097787
  Basis Set: (AUG-CC-PVTZ AUX)
    Blend: AUG-CC-PVTZ-RI
    Molecular point group: c1

    Geometry (in Angstrom), charge = 0, multiplicity = 1:

       Center              X                  Y                   Z               Mass
    ------------   -----------------  -----------------  -----------------  -----------------
         O           -0.035589489911     2.321719068709    -0.397385661453    15.994914619570
         N            1.147822510089     0.424973068709     0.126135338547    14.003074004430
         C            3.599910510089    -1.071804931291     0.176010338547    12.000000000000
         C            3.449830510089     0.207943068709    -0.646367661453    12.000000000000
         C            2.243624510089    -1.748073931291     0.377006338547    12.000000000000
         C            2.413562510089     1.139705068709    -0.026421661453    12.000000000000
         C            1.241435510089    -0.764563931291     0.971445338547    12.000000000000
         C           -0.019373489911     1.120461068709    -0.099846661453    12.000000000000
         C           -1.286481289911     0.308871668709    -0.193187561453    12.000000000000
         C           -2.400548489911     0.925597068709     0.587812338547    12.000000000000
         C           -1.447007489911    -0.879588931291    -0.718126661453    12.000000000000
         C           -3.631385489911     0.270412068709     0.590977338547    12.000000000000
         C           -2.685245489911    -1.523441931291    -0.727559661453    12.000000000000
         C           -3.776384489911    -0.954785931291    -0.066041661453    12.000000000000
         H            4.304305510089    -1.759272931291    -0.305937661453     1.007825032230
         H            4.023408510089    -0.821476931291     1.158413338547     1.007825032230
         H            4.410239510089     0.731423068709    -0.725364661453     1.007825032230
         H            3.129430510089    -0.041127931291    -1.665217661453     1.007825032230
         H            1.858941510089    -2.106930931291    -0.585697661453     1.007825032230
         H            2.338228510089    -2.618240931291     1.037979338547     1.007825032230
         H            2.758699510089     1.493969068709     0.958124338547     1.007825032230
         H            2.224615510089     2.017507068709    -0.645594661453     1.007825032230
         H            0.254216510089    -1.213477931291     1.079145338547     1.007825032230
         H            1.579620510089    -0.459744931291     1.975795338547     1.007825032230
         H           -2.280226489911     1.894419068709     1.066019338547     1.007825032230
         H           -0.599419489911    -1.309187931291    -1.248467661453     1.007825032230
         H           -4.482715489911     0.720478068709     1.096142338547     1.007825032230
         H           -2.800961489911    -2.465637931291    -1.258262661453     1.007825032230
         H           -4.739161489911    -1.460204931291    -0.070219661453     1.007825032230

  Basis Set: AUG-CC-PVTZ
    Blend: AUG-CC-PVTZ
  Basis Set: (AUG-CC-PVTZ AUX)
    Blend: AUG-CC-PVTZ-JKFIT
	 Reference Energy          =    -592.6664646918098924 [Eh]
	 Singles Energy            =      -0.0000000000000000 [Eh]
	 Same-Spin Energy          =      -0.6431189370112947 [Eh]
	 Opposite-Spin Energy      =      -2.0539297068891904 [Eh]
	 Correlation Energy        =      -2.6970486439004850 [Eh]
	 Total Energy              =    -595.3635133357104223 [Eh]

	 ================> DF-SCS-MP2 Energies <==================
	-----------------------------------------------------------
	 SCS Same-Spin Scale       =       0.3333333333333333 [-]
	 SCS Opposite-Spin Scale   =       1.2000000000000000 [-]
	 SCS Same-Spin Energy      =      -0.2143729790037649 [Eh]
	 SCS Opposite-Spin Energy  =      -2.4647156482670285 [Eh]
	 SCS Correlation Energy    =      -2.6790886272707932 [Eh]
	 SCS Total Energy          =    -595.3455533190806364 [Eh]
	-----------------------------------------------------------

  Dipole Moment: [D]
     X:     1.0591      Y:    -3.3849      Z:     1.1173     Total:     3.7186

*** Psi4 exiting successfully. Buy a developer a beer!
