                               Psi4 1.4a2.dev612

  ==> Input File <==

--------------------------------------------------------------------------
#psi4
#
memory 32 gb

molecule  {
0 1
  O       -0.0931590     2.3556990    -0.4150330
  N        1.0902530     0.4589530     0.1084880
  C        3.5423410    -1.0378250     0.1583630
  C        3.3922610     0.2419230    -0.6640150
  C        2.1860550    -1.7140940     0.3593590
  C        2.3559930     1.1736850    -0.0440690
  C        1.1838660    -0.7305840     0.9537980
  C       -0.0769430     1.1544410    -0.1174940
  C       -1.3555190     0.3759530    -0.0649830
  C       -2.4581180     0.9595770     0.5701650
  C       -1.4203233    -0.9838297    -0.4831946
  C       -3.6889550     0.3043920     0.5733300
  C       -2.7428150    -1.4894620    -0.7452070
  C       -3.8339540    -0.9208060    -0.0836890
  H        4.2467360    -1.7252930    -0.3235850
  H        3.9658390    -0.7874970     1.1407660
  H        4.3526700     0.7654030    -0.7430120
  H        3.0718610    -0.0071480    -1.6828650
  H        1.8013720    -2.0729510    -0.6033450
  H        2.2806590    -2.5842610     1.0203320
  H        2.7011300     1.5279490     0.9404770
  H        2.1670460     2.0514870    -0.6632420
  H        0.1966470    -1.1794980     1.0614980
  H        1.5220510    -0.4257650     1.9581480
  H       -2.3377960     1.9283990     1.0483720
  H       -0.6569890    -1.2752080    -1.2661150
  H       -4.5402850     0.7544580     1.0784950
  H       -2.8585310    -2.4316580    -1.2759100
  H       -4.7967310    -1.4262250    -0.0878670
units angstrom
no_reorient  #important for SAPT in psi4, default
symmetry c1  #important for SAPT in psi4, default
}

set PROPERTIES_ORIGIN ["COM"]
properties('MP2/aug-cc-pvtz', properties = ['dipole'])
--------------------------------------------------------------------------

    Molecular point group: c1
  Charge       = 0
  Multiplicity = 1
  Basis Set: AUG-CC-PVTZ
    Blend: AUG-CC-PVTZ
  Basis Set: (AUG-CC-PVTZ AUX)
    Blend: AUG-CC-PVTZ-JKFIT

    Orbital Energies [Eh]
    ---------------------

    Doubly Occupied:

       1A    -20.514902     2A    -15.580487     3A    -11.350077
       4A    -11.263722     5A    -11.258547     6A    -11.257451
       7A    -11.255453     8A    -11.252602     9A    -11.249617
      10A    -11.247545    11A    -11.245670    12A    -11.228812
      13A    -11.226472    14A    -11.224051    15A     -1.369122
      16A     -1.247164    17A     -1.158807    18A     -1.082613
      19A     -1.040905    20A     -1.024683    21A     -1.018522
      22A     -0.923568    23A     -0.865993    24A     -0.844580
      25A     -0.834724    26A     -0.791083    27A     -0.745852
      28A     -0.717906    29A     -0.679426    30A     -0.649781
      31A     -0.633730    32A     -0.629390    33A     -0.625204
      34A     -0.607957    35A     -0.600922    36A     -0.589659
      37A     -0.584973    38A     -0.559167    39A     -0.551545
      40A     -0.529199    41A     -0.513170    42A     -0.505836
      43A     -0.499618    44A     -0.487644    45A     -0.477691
      46A     -0.467689    47A     -0.459365    48A     -0.420214
      49A     -0.368789    50A     -0.345191    51A     -0.341049

  @DF-RHF Final Energy:  -592.65212492057833

   => Energetics <=

    Nuclear Repulsion Energy =            877.0631620943750022
    One-Electron Energy =               -2545.5342928769132413
    Two-Electron Energy =                1075.8190058619600222
    Total Energy =                       -592.6521249205782169
  Basis Set: (AUG-CC-PVTZ AUX)
    Blend: AUG-CC-PVTZ-RI
    Molecular point group: c1

    Geometry (in Angstrom), charge = 0, multiplicity = 1:

       Center              X                  Y                   Z               Mass
    ------------   -----------------  -----------------  -----------------  -----------------
         O           -0.040207972413     2.328389238560    -0.422667455043    15.994914619570
         N            1.143204027587     0.431643238560     0.100853544957    14.003074004430
         C            3.595292027587    -1.065134761440     0.150728544957    12.000000000000
         C            3.445212027587     0.214613238560    -0.671649455043    12.000000000000
         C            2.239006027587    -1.741403761440     0.351724544957    12.000000000000
         C            2.408944027587     1.146375238560    -0.051703455043    12.000000000000
         C            1.236817027587    -0.757893761440     0.946163544957    12.000000000000
         C           -0.023991972413     1.127131238560    -0.125128455043    12.000000000000
         C           -1.302567972413     0.348643238560    -0.072617455043    12.000000000000
         C           -2.405166972413     0.932267238560     0.562530544957    12.000000000000
         C           -1.367372272413    -1.011139461440    -0.490829055043    12.000000000000
         C           -3.636003972413     0.277082238560     0.565695544957    12.000000000000
         C           -2.689863972413    -1.516771761440    -0.752841455043    12.000000000000
         C           -3.781002972413    -0.948115761440    -0.091323455043    12.000000000000
         H            4.299687027587    -1.752602761440    -0.331219455043     1.007825032230
         H            4.018790027587    -0.814806761440     1.133131544957     1.007825032230
         H            4.405621027587     0.738093238560    -0.750646455043     1.007825032230
         H            3.124812027587    -0.034457761440    -1.690499455043     1.007825032230
         H            1.854323027587    -2.100260761440    -0.610979455043     1.007825032230
         H            2.333610027587    -2.611570761440     1.012697544957     1.007825032230
         H            2.754081027587     1.500639238560     0.932842544957     1.007825032230
         H            2.219997027587     2.024177238560    -0.670876455043     1.007825032230
         H            0.249598027587    -1.206807761440     1.053863544957     1.007825032230
         H            1.575002027587    -0.453074761440     1.950513544957     1.007825032230
         H           -2.284844972413     1.901089238560     1.040737544957     1.007825032230
         H           -0.604037972413    -1.302517761440    -1.273749455043     1.007825032230
         H           -4.487333972413     0.727148238560     1.070860544957     1.007825032230
         H           -2.805579972413    -2.458967761440    -1.283544455043     1.007825032230
         H           -4.743779972413    -1.453534761440    -0.095501455043     1.007825032230

  Basis Set: AUG-CC-PVTZ
    Blend: AUG-CC-PVTZ
  Basis Set: (AUG-CC-PVTZ AUX)
    Blend: AUG-CC-PVTZ-JKFIT
	 Reference Energy          =    -592.6521249205783306 [Eh]
	 Singles Energy            =      -0.0000000000000000 [Eh]
	 Same-Spin Energy          =      -0.6457636110370376 [Eh]
	 Opposite-Spin Energy      =      -2.0588410518880069 [Eh]
	 Correlation Energy        =      -2.7046046629250444 [Eh]
	 Total Energy              =    -595.3567295835033519 [Eh]

	 ================> DF-SCS-MP2 Energies <==================
	-----------------------------------------------------------
	 SCS Same-Spin Scale       =       0.3333333333333333 [-]
	 SCS Opposite-Spin Scale   =       1.2000000000000000 [-]
	 SCS Same-Spin Energy      =      -0.2152545370123459 [Eh]
	 SCS Opposite-Spin Energy  =      -2.4706092622656084 [Eh]
	 SCS Correlation Energy    =      -2.6858637992779544 [Eh]
	 SCS Total Energy          =    -595.3379887198562983 [Eh]
	-----------------------------------------------------------

  Dipole Moment: [D]
     X:     0.7217      Y:    -3.2776      Z:     1.0640     Total:     3.5207

*** Psi4 exiting successfully. Buy a developer a beer!
