                               Psi4 1.4a2.dev612

  ==> Input File <==

--------------------------------------------------------------------------
#psi4
#
memory 32 gb

molecule  {
0 1
  O       -0.0931590     2.3556990    -0.4150330
  N        1.0902530     0.4589530     0.1084880
  C        3.5423410    -1.0378250     0.1583630
  C        3.3922610     0.2419230    -0.6640150
  C        2.1860550    -1.7140940     0.3593590
  C        2.3559930     1.1736850    -0.0440690
  C        1.1838660    -0.7305840     0.9537980
  C       -0.0769430     1.1544410    -0.1174940
  C       -1.3364054     0.3207840    -0.3080695
  C       -2.4581180     0.9595770     0.5701650
  C       -1.5045770    -0.8456090    -0.7357740
  C       -3.6889550     0.3043920     0.5733300
  C       -2.7428150    -1.4894620    -0.7452070
  C       -3.8339540    -0.9208060    -0.0836890
  H        4.2467360    -1.7252930    -0.3235850
  H        3.9658390    -0.7874970     1.1407660
  H        4.3526700     0.7654030    -0.7430120
  H        3.0718610    -0.0071480    -1.6828650
  H        1.8013720    -2.0729510    -0.6033450
  H        2.2806590    -2.5842610     1.0203320
  H        2.7011300     1.5279490     0.9404770
  H        2.1670460     2.0514870    -0.6632420
  H        0.1966470    -1.1794980     1.0614980
  H        1.5220510    -0.4257650     1.9581480
  H       -2.3377960     1.9283990     1.0483720
  H       -0.6569890    -1.2752080    -1.2661150
  H       -4.5402850     0.7544580     1.0784950
  H       -2.8585310    -2.4316580    -1.2759100
  H       -4.7967310    -1.4262250    -0.0878670
units angstrom
no_reorient  #important for SAPT in psi4, default
symmetry c1  #important for SAPT in psi4, default
}

set PROPERTIES_ORIGIN ["COM"]
properties('MP2/aug-cc-pvtz', properties = ['dipole'])
--------------------------------------------------------------------------

    Molecular point group: c1
  Charge       = 0
  Multiplicity = 1
  Basis Set: AUG-CC-PVTZ
    Blend: AUG-CC-PVTZ
  Basis Set: (AUG-CC-PVTZ AUX)
    Blend: AUG-CC-PVTZ-JKFIT

    Orbital Energies [Eh]
    ---------------------

    Doubly Occupied:

       1A    -20.517124     2A    -15.582279     3A    -11.353341
       4A    -11.268176     5A    -11.257032     6A    -11.253753
       7A    -11.248564     8A    -11.247953     9A    -11.244835
      10A    -11.241794    11A    -11.231384    12A    -11.231084
      13A    -11.228373    14A    -11.225757    15A     -1.370124
      16A     -1.248841    17A     -1.165930    18A     -1.084313
      19A     -1.052167    20A     -1.029700    21A     -1.008384
      22A     -0.924425    23A     -0.866820    24A     -0.846730
      25A     -0.833515    26A     -0.793966    27A     -0.746564
      28A     -0.719569    29A     -0.685738    30A     -0.650254
      31A     -0.639371    32A     -0.631901    33A     -0.625994
      34A     -0.612757    35A     -0.599089    36A     -0.589489
      37A     -0.585018    38A     -0.560932    39A     -0.552544
      40A     -0.535126    41A     -0.520458    42A     -0.503030
      43A     -0.502520    44A     -0.479758    45A     -0.474970
      46A     -0.467812    47A     -0.461125    48A     -0.417529
      49A     -0.371467    50A     -0.368119    51A     -0.325531

  @DF-RHF Final Energy:  -592.63627939545358

   => Energetics <=

    Nuclear Repulsion Energy =            876.8362312036116464
    One-Electron Energy =               -2544.9789686606318355
    Two-Electron Energy =                1075.5064580615667182
    Total Energy =                       -592.6362793954535846
  Basis Set: (AUG-CC-PVTZ AUX)
    Blend: AUG-CC-PVTZ-RI
    Molecular point group: c1

    Geometry (in Angstrom), charge = 0, multiplicity = 1:

       Center              X                  Y                   Z               Mass
    ------------   -----------------  -----------------  -----------------  -----------------
         O           -0.036074616016     2.323119331460    -0.391215802090    15.994914619570
         N            1.147337383984     0.426373331460     0.132305197910    14.003074004430
         C            3.599425383984    -1.070404668540     0.182180197910    12.000000000000
         C            3.449345383984     0.209343331460    -0.640197802090    12.000000000000
         C            2.243139383984    -1.746673668540     0.383176197910    12.000000000000
         C            2.413077383984     1.141105331460    -0.020251802090    12.000000000000
         C            1.240950383984    -0.763163668540     0.977615197910    12.000000000000
         C           -0.019858616016     1.121861331460    -0.093676802090    12.000000000000
         C           -1.279321016016     0.288204331460    -0.284252302090    12.000000000000
         C           -2.401033616016     0.926997331460     0.593982197910    12.000000000000
         C           -1.447492616016    -0.878188668540    -0.711956802090    12.000000000000
         C           -3.631870616016     0.271812331460     0.597147197910    12.000000000000
         C           -2.685730616016    -1.522041668540    -0.721389802090    12.000000000000
         C           -3.776869616016    -0.953385668540    -0.059871802090    12.000000000000
         H            4.303820383984    -1.757872668540    -0.299767802090     1.007825032230
         H            4.022923383984    -0.820076668540     1.164583197910     1.007825032230
         H            4.409754383984     0.732823331460    -0.719194802090     1.007825032230
         H            3.128945383984    -0.039727668540    -1.659047802090     1.007825032230
         H            1.858456383984    -2.105530668540    -0.579527802090     1.007825032230
         H            2.337743383984    -2.616840668540     1.044149197910     1.007825032230
         H            2.758214383984     1.495369331460     0.964294197910     1.007825032230
         H            2.224130383984     2.018907331460    -0.639424802090     1.007825032230
         H            0.253731383984    -1.212077668540     1.085315197910     1.007825032230
         H            1.579135383984    -0.458344668540     1.981965197910     1.007825032230
         H           -2.280711616016     1.895819331460     1.072189197910     1.007825032230
         H           -0.599904616016    -1.307787668540    -1.242297802090     1.007825032230
         H           -4.483200616016     0.721878331460     1.102312197910     1.007825032230
         H           -2.801446616016    -2.464237668540    -1.252092802090     1.007825032230
         H           -4.739646616016    -1.458804668540    -0.064049802090     1.007825032230

  Basis Set: AUG-CC-PVTZ
    Blend: AUG-CC-PVTZ
  Basis Set: (AUG-CC-PVTZ AUX)
    Blend: AUG-CC-PVTZ-JKFIT
	 Reference Energy          =    -592.6362793954535846 [Eh]
	 Singles Energy            =      -0.0000000000000000 [Eh]
	 Same-Spin Energy          =      -0.6428447894315759 [Eh]
	 Opposite-Spin Energy      =      -2.0553652433251086 [Eh]
	 Correlation Energy        =      -2.6982100327566845 [Eh]
	 Total Energy              =    -595.3344894282103041 [Eh]

	 ================> DF-SCS-MP2 Energies <==================
	-----------------------------------------------------------
	 SCS Same-Spin Scale       =       0.3333333333333333 [-]
	 SCS Opposite-Spin Scale   =       1.2000000000000000 [-]
	 SCS Same-Spin Energy      =      -0.2142815964771919 [Eh]
	 SCS Opposite-Spin Energy  =      -2.4664382919901304 [Eh]
	 SCS Correlation Energy    =      -2.6807198884673222 [Eh]
	 SCS Total Energy          =    -595.3169992839209499 [Eh]
	-----------------------------------------------------------

  Dipole Moment: [D]
     X:     1.0827      Y:    -3.3831      Z:     1.1075     Total:     3.7208

*** Psi4 exiting successfully. Buy a developer a beer!
