                               Psi4 1.4a2.dev612

  ==> Input File <==

--------------------------------------------------------------------------
#psi4
#
memory 32 gb

molecule  {
0 1
  O       -0.0931590     2.3556990    -0.4150330
  N        1.0902530     0.4589530     0.1084880
  C        3.5423410    -1.0378250     0.1583630
  C        3.3922610     0.2419230    -0.6640150
  C        2.1860550    -1.7140940     0.3593590
  C        2.3559930     1.1736850    -0.0440690
  C        1.1838660    -0.7305840     0.9537980
  C       -0.0769430     1.1544410    -0.1174940
  C       -1.3555190     0.3759530    -0.0649830
  C       -2.4581180     0.9595770     0.5701650
  C       -1.4624502    -0.9147193    -0.6094843
  C       -3.6889550     0.3043920     0.5733300
  C       -2.7428150    -1.4894620    -0.7452070
  C       -3.8339540    -0.9208060    -0.0836890
  H        4.2467360    -1.7252930    -0.3235850
  H        3.9658390    -0.7874970     1.1407660
  H        4.3526700     0.7654030    -0.7430120
  H        3.0718610    -0.0071480    -1.6828650
  H        1.8013720    -2.0729510    -0.6033450
  H        2.2806590    -2.5842610     1.0203320
  H        2.7011300     1.5279490     0.9404770
  H        2.1670460     2.0514870    -0.6632420
  H        0.1966470    -1.1794980     1.0614980
  H        1.5220510    -0.4257650     1.9581480
  H       -2.3377960     1.9283990     1.0483720
  H       -0.6569890    -1.2752080    -1.2661150
  H       -4.5402850     0.7544580     1.0784950
  H       -2.8585310    -2.4316580    -1.2759100
  H       -4.7967310    -1.4262250    -0.0878670
units angstrom
no_reorient  #important for SAPT in psi4, default
symmetry c1  #important for SAPT in psi4, default
}

set PROPERTIES_ORIGIN ["COM"]
properties('MP2/aug-cc-pvtz', properties = ['dipole'])
--------------------------------------------------------------------------

    Molecular point group: c1
  Charge       = 0
  Multiplicity = 1
  Basis Set: AUG-CC-PVTZ
    Blend: AUG-CC-PVTZ
  Basis Set: (AUG-CC-PVTZ AUX)
    Blend: AUG-CC-PVTZ-JKFIT

    Orbital Energies [Eh]
    ---------------------

    Doubly Occupied:

       1A    -20.514631     2A    -15.581109     3A    -11.350093
       4A    -11.265745     5A    -11.253130     6A    -11.253023
       7A    -11.251970     8A    -11.249095     9A    -11.247684
      10A    -11.246105    11A    -11.244789    12A    -11.230137
      13A    -11.227350    14A    -11.224654    15A     -1.368985
      16A     -1.247684    17A     -1.160619    18A     -1.083371
      19A     -1.041013    20A     -1.025353    21A     -1.021583
      22A     -0.924239    23A     -0.867110    24A     -0.845500
      25A     -0.835792    26A     -0.792588    27A     -0.747131
      28A     -0.719435    29A     -0.680808    30A     -0.650918
      31A     -0.636896    32A     -0.630136    33A     -0.626006
      34A     -0.609871    35A     -0.600952    36A     -0.592671
      37A     -0.587676    38A     -0.560017    39A     -0.551275
      40A     -0.532330    41A     -0.513431    42A     -0.505728
      43A     -0.500858    44A     -0.493313    45A     -0.478290
      46A     -0.468470    47A     -0.460155    48A     -0.421303
      49A     -0.369259    50A     -0.344901    51A     -0.342474

  @DF-RHF Final Energy:  -592.67518801897802

   => Energetics <=

    Nuclear Repulsion Energy =            877.2860702829533466
    One-Electron Energy =               -2545.9672068636573385
    Two-Electron Energy =                1076.0059485617259725
    Total Energy =                       -592.6751880189779058
  Basis Set: (AUG-CC-PVTZ AUX)
    Blend: AUG-CC-PVTZ-RI
    Molecular point group: c1

    Geometry (in Angstrom), charge = 0, multiplicity = 1:

       Center              X                  Y                   Z               Mass
    ------------   -----------------  -----------------  -----------------  -----------------
         O           -0.037534880237     2.324003953399    -0.414653952771    15.994914619570
         N            1.145877119763     0.427257953399     0.108867047229    14.003074004430
         C            3.597965119763    -1.069520046601     0.158742047229    12.000000000000
         C            3.447885119763     0.210227953399    -0.663635952771    12.000000000000
         C            2.241679119763    -1.745789046601     0.359738047229    12.000000000000
         C            2.411617119763     1.141989953399    -0.043689952771    12.000000000000
         C            1.239490119763    -0.762279046601     0.954177047229    12.000000000000
         C           -0.021318880237     1.122745953399    -0.117114952771    12.000000000000
         C           -1.299894880237     0.344257953399    -0.064603952771    12.000000000000
         C           -2.402493880237     0.927881953399     0.570544047229    12.000000000000
         C           -1.406826080237    -0.946414346601    -0.609105252771    12.000000000000
         C           -3.633330880237     0.272696953399     0.573709047229    12.000000000000
         C           -2.687190880237    -1.521157046601    -0.744827952771    12.000000000000
         C           -3.778329880237    -0.952501046601    -0.083309952771    12.000000000000
         H            4.302360119763    -1.756988046601    -0.323205952771     1.007825032230
         H            4.021463119763    -0.819192046601     1.141145047229     1.007825032230
         H            4.408294119763     0.733707953399    -0.742632952771     1.007825032230
         H            3.127485119763    -0.038843046601    -1.682485952771     1.007825032230
         H            1.856996119763    -2.104646046601    -0.602965952771     1.007825032230
         H            2.336283119763    -2.615956046601     1.020711047229     1.007825032230
         H            2.756754119763     1.496253953399     0.940856047229     1.007825032230
         H            2.222670119763     2.019791953399    -0.662862952771     1.007825032230
         H            0.252271119763    -1.211193046601     1.061877047229     1.007825032230
         H            1.577675119763    -0.457460046601     1.958527047229     1.007825032230
         H           -2.282171880237     1.896703953399     1.048751047229     1.007825032230
         H           -0.601364880237    -1.306903046601    -1.265735952771     1.007825032230
         H           -4.484660880237     0.722762953399     1.078874047229     1.007825032230
         H           -2.802906880237    -2.463353046601    -1.275530952771     1.007825032230
         H           -4.741106880237    -1.457920046601    -0.087487952771     1.007825032230

  Basis Set: AUG-CC-PVTZ
    Blend: AUG-CC-PVTZ
  Basis Set: (AUG-CC-PVTZ AUX)
    Blend: AUG-CC-PVTZ-JKFIT
	 Reference Energy          =    -592.6751880189780195 [Eh]
	 Singles Energy            =      -0.0000000000000000 [Eh]
	 Same-Spin Energy          =      -0.6441893183489094 [Eh]
	 Opposite-Spin Energy      =      -2.0548822045454984 [Eh]
	 Correlation Energy        =      -2.6990715228944078 [Eh]
	 Total Energy              =    -595.3742595418724477 [Eh]

	 ================> DF-SCS-MP2 Energies <==================
	-----------------------------------------------------------
	 SCS Same-Spin Scale       =       0.3333333333333333 [-]
	 SCS Opposite-Spin Scale   =       1.2000000000000000 [-]
	 SCS Same-Spin Energy      =      -0.2147297727829698 [Eh]
	 SCS Opposite-Spin Energy  =      -2.4658586454545981 [Eh]
	 SCS Correlation Energy    =      -2.6805884182375679 [Eh]
	 SCS Total Energy          =    -595.3557764372155816 [Eh]
	-----------------------------------------------------------

  Dipole Moment: [D]
     X:     0.9081      Y:    -3.3567      Z:     1.0773     Total:     3.6404

*** Psi4 exiting successfully. Buy a developer a beer!
