                               Psi4 1.4a2.dev612

  ==> Input File <==

--------------------------------------------------------------------------
#psi4
#
memory 32 gb

molecule  {
0 1
  O       -0.0931590     2.3556990    -0.4150330
  N        1.0902530     0.4589530     0.1084880
  C        3.5423410    -1.0378250     0.1583630
  C        3.3922610     0.2419230    -0.6640150
  C        2.1860550    -1.7140940     0.3593590
  C        2.3559930     1.1736850    -0.0440690
  C        1.1838660    -0.7305840     0.9537980
  C       -0.0769430     1.1544410    -0.1174940
  C       -1.3516963     0.3649192    -0.1136003
  C       -2.4581180     0.9595770     0.5701650
  C       -1.5045770    -0.8456090    -0.7357740
  C       -3.6889550     0.3043920     0.5733300
  C       -2.7428150    -1.4894620    -0.7452070
  C       -3.8339540    -0.9208060    -0.0836890
  H        4.2467360    -1.7252930    -0.3235850
  H        3.9658390    -0.7874970     1.1407660
  H        4.3526700     0.7654030    -0.7430120
  H        3.0718610    -0.0071480    -1.6828650
  H        1.8013720    -2.0729510    -0.6033450
  H        2.2806590    -2.5842610     1.0203320
  H        2.7011300     1.5279490     0.9404770
  H        2.1670460     2.0514870    -0.6632420
  H        0.1966470    -1.1794980     1.0614980
  H        1.5220510    -0.4257650     1.9581480
  H       -2.3377960     1.9283990     1.0483720
  H       -0.6569890    -1.2752080    -1.2661150
  H       -4.5402850     0.7544580     1.0784950
  H       -2.8585310    -2.4316580    -1.2759100
  H       -4.7967310    -1.4262250    -0.0878670
units angstrom
no_reorient  #important for SAPT in psi4, default
symmetry c1  #important for SAPT in psi4, default
}

set PROPERTIES_ORIGIN ["COM"]
properties('MP2/aug-cc-pvtz', properties = ['dipole'])
--------------------------------------------------------------------------

    Molecular point group: c1
  Charge       = 0
  Multiplicity = 1
  Basis Set: AUG-CC-PVTZ
    Blend: AUG-CC-PVTZ
  Basis Set: (AUG-CC-PVTZ AUX)
    Blend: AUG-CC-PVTZ-JKFIT

    Orbital Energies [Eh]
    ---------------------

    Doubly Occupied:

       1A    -20.515120     2A    -15.581764     3A    -11.350501
       4A    -11.267290     5A    -11.253372     6A    -11.250651
       7A    -11.248346     8A    -11.247762     9A    -11.246669
      10A    -11.245184    11A    -11.243226    12A    -11.231036
      13A    -11.227982    14A    -11.225164    15A     -1.369334
      16A     -1.248217    17A     -1.161493    18A     -1.083949
      19A     -1.041632    20A     -1.025778    21A     -1.021911
      22A     -0.924597    23A     -0.867672    24A     -0.845383
      25A     -0.836195    26A     -0.794021    27A     -0.747694
      28A     -0.720148    29A     -0.681546    30A     -0.650774
      31A     -0.639189    32A     -0.630590    33A     -0.626188
      34A     -0.611231    35A     -0.599280    36A     -0.594187
      37A     -0.589089    38A     -0.560655    39A     -0.551068
      40A     -0.534157    41A     -0.514248    42A     -0.503894
      43A     -0.501939    44A     -0.493454    45A     -0.478822
      46A     -0.469012    47A     -0.460745    48A     -0.422480
      49A     -0.369883    50A     -0.348918    51A     -0.338769

  @DF-RHF Final Energy:  -592.68124838414735

   => Energetics <=

    Nuclear Repulsion Energy =            877.0412229963134223
    One-Electron Energy =               -2545.4605227673182526
    Two-Electron Energy =                1075.7380513868574781
    Total Energy =                       -592.6812483841472385
  Basis Set: (AUG-CC-PVTZ AUX)
    Blend: AUG-CC-PVTZ-RI
    Molecular point group: c1

    Geometry (in Angstrom), charge = 0, multiplicity = 1:

       Center              X                  Y                   Z               Mass
    ------------   -----------------  -----------------  -----------------  -----------------
         O           -0.035104357460     2.320318805958    -0.403555520817    15.994914619570
         N            1.148307642540     0.423572805958     0.119965479183    14.003074004430
         C            3.600395642540    -1.073205194042     0.169840479183    12.000000000000
         C            3.450315642540     0.206542805958    -0.652537520817    12.000000000000
         C            2.244109642540    -1.749474194042     0.370836479183    12.000000000000
         C            2.414047642540     1.138304805958    -0.032591520817    12.000000000000
         C            1.241920642540    -0.765964194042     0.965275479183    12.000000000000
         C           -0.018888357460     1.119060805958    -0.106016520817    12.000000000000
         C           -1.293641657460     0.329539005958    -0.102122820817    12.000000000000
         C           -2.400063357460     0.924196805958     0.581642479183    12.000000000000
         C           -1.446522357460    -0.880989194042    -0.724296520817    12.000000000000
         C           -3.630900357460     0.269011805958     0.584807479183    12.000000000000
         C           -2.684760357460    -1.524842194042    -0.733729520817    12.000000000000
         C           -3.775899357460    -0.956186194042    -0.072211520817    12.000000000000
         H            4.304790642540    -1.760673194042    -0.312107520817     1.007825032230
         H            4.023893642540    -0.822877194042     1.152243479183     1.007825032230
         H            4.410724642540     0.730022805958    -0.731534520817     1.007825032230
         H            3.129915642540    -0.042528194042    -1.671387520817     1.007825032230
         H            1.859426642540    -2.108331194042    -0.591867520817     1.007825032230
         H            2.338713642540    -2.619641194042     1.031809479183     1.007825032230
         H            2.759184642540     1.492568805958     0.951954479183     1.007825032230
         H            2.225100642540     2.016106805958    -0.651764520817     1.007825032230
         H            0.254701642540    -1.214878194042     1.072975479183     1.007825032230
         H            1.580105642540    -0.461145194042     1.969625479183     1.007825032230
         H           -2.279741357460     1.893018805958     1.059849479183     1.007825032230
         H           -0.598934357460    -1.310588194042    -1.254637520817     1.007825032230
         H           -4.482230357460     0.719077805958     1.089972479183     1.007825032230
         H           -2.800476357460    -2.467038194042    -1.264432520817     1.007825032230
         H           -4.738676357460    -1.461605194042    -0.076389520817     1.007825032230

  Basis Set: AUG-CC-PVTZ
    Blend: AUG-CC-PVTZ
  Basis Set: (AUG-CC-PVTZ AUX)
    Blend: AUG-CC-PVTZ-JKFIT
	 Reference Energy          =    -592.6812483841473522 [Eh]
	 Singles Energy            =      -0.0000000000000000 [Eh]
	 Same-Spin Energy          =      -0.6433996461920933 [Eh]
	 Opposite-Spin Energy      =      -2.0533259446483703 [Eh]
	 Correlation Energy        =      -2.6967255908404635 [Eh]
	 Total Energy              =    -595.3779739749878672 [Eh]

	 ================> DF-SCS-MP2 Energies <==================
	-----------------------------------------------------------
	 SCS Same-Spin Scale       =       0.3333333333333333 [-]
	 SCS Opposite-Spin Scale   =       1.2000000000000000 [-]
	 SCS Same-Spin Energy      =      -0.2144665487306978 [Eh]
	 SCS Opposite-Spin Energy  =      -2.4639911335780442 [Eh]
	 SCS Correlation Energy    =      -2.6784576823087418 [Eh]
	 SCS Total Energy          =    -595.3597060664560559 [Eh]
	-----------------------------------------------------------

  Dipole Moment: [D]
     X:     1.0399      Y:    -3.3906      Z:     1.1219     Total:     3.7197

*** Psi4 exiting successfully. Buy a developer a beer!
