                               Psi4 1.4a2.dev612

  ==> Input File <==

--------------------------------------------------------------------------
#psi4
#
memory 32 gb

molecule  {
0 1
  O       -0.0931590     2.3556990    -0.4150330
  N        1.0902530     0.4589530     0.1084880
  C        3.5423410    -1.0378250     0.1583630
  C        3.3922610     0.2419230    -0.6640150
  C        2.1860550    -1.7140940     0.3593590
  C        2.3559930     1.1736850    -0.0440690
  C        1.1838660    -0.7305840     0.9537980
  C       -0.0769430     1.1544410    -0.1174940
  C       -1.3555190     0.3759530    -0.0649830
  C       -2.4581180     0.9595770     0.5701650
  C       -1.4343656    -0.9607929    -0.5252911
  C       -3.6889550     0.3043920     0.5733300
  C       -2.7428150    -1.4894620    -0.7452070
  C       -3.8339540    -0.9208060    -0.0836890
  H        4.2467360    -1.7252930    -0.3235850
  H        3.9658390    -0.7874970     1.1407660
  H        4.3526700     0.7654030    -0.7430120
  H        3.0718610    -0.0071480    -1.6828650
  H        1.8013720    -2.0729510    -0.6033450
  H        2.2806590    -2.5842610     1.0203320
  H        2.7011300     1.5279490     0.9404770
  H        2.1670460     2.0514870    -0.6632420
  H        0.1966470    -1.1794980     1.0614980
  H        1.5220510    -0.4257650     1.9581480
  H       -2.3377960     1.9283990     1.0483720
  H       -0.6569890    -1.2752080    -1.2661150
  H       -4.5402850     0.7544580     1.0784950
  H       -2.8585310    -2.4316580    -1.2759100
  H       -4.7967310    -1.4262250    -0.0878670
units angstrom
no_reorient  #important for SAPT in psi4, default
symmetry c1  #important for SAPT in psi4, default
}

set PROPERTIES_ORIGIN ["COM"]
properties('MP2/aug-cc-pvtz', properties = ['dipole'])
--------------------------------------------------------------------------

    Molecular point group: c1
  Charge       = 0
  Multiplicity = 1
  Basis Set: AUG-CC-PVTZ
    Blend: AUG-CC-PVTZ
  Basis Set: (AUG-CC-PVTZ AUX)
    Blend: AUG-CC-PVTZ-JKFIT

    Orbital Energies [Eh]
    ---------------------

    Doubly Occupied:

       1A    -20.514764     2A    -15.580704     3A    -11.350058
       4A    -11.264484     5A    -11.256405     6A    -11.255297
       7A    -11.252936     8A    -11.252758     9A    -11.248394
      10A    -11.247246    11A    -11.245580    12A    -11.229317
      13A    -11.226806    14A    -11.224279    15A     -1.369043
      16A     -1.247354    17A     -1.159529    18A     -1.082900
      19A     -1.040986    20A     -1.024926    21A     -1.019744
      22A     -0.923826    23A     -0.866417    24A     -0.844922
      25A     -0.835179    26A     -0.791650    27A     -0.746319
      28A     -0.718449    29A     -0.679942    30A     -0.650219
      31A     -0.634854    32A     -0.629657    33A     -0.625601
      34A     -0.608737    35A     -0.600942    36A     -0.590720
      37A     -0.586145    38A     -0.559487    39A     -0.551487
      40A     -0.530391    41A     -0.513335    42A     -0.506013
      43A     -0.500059    44A     -0.489934    45A     -0.477921
      46A     -0.467990    47A     -0.459665    48A     -0.420560
      49A     -0.368962    50A     -0.345057    51A     -0.341655

  @DF-RHF Final Energy:  -592.66156920892422

   => Energetics <=

    Nuclear Repulsion Energy =            877.1884408198189931
    One-Electron Energy =               -2545.7808177770748443
    Two-Electron Energy =                1075.9308077483317447
    Total Energy =                       -592.6615692089242202
  Basis Set: (AUG-CC-PVTZ AUX)
    Blend: AUG-CC-PVTZ-RI
    Molecular point group: c1

    Geometry (in Angstrom), charge = 0, multiplicity = 1:

       Center              X                  Y                   Z               Mass
    ------------   -----------------  -----------------  -----------------  -----------------
         O           -0.039316941688     2.326927476840    -0.419996291849    15.994914619570
         N            1.144095058312     0.430181476840     0.103524708151    14.003074004430
         C            3.596183058312    -1.066596523160     0.153399708151    12.000000000000
         C            3.446103058312     0.213151476840    -0.668978291849    12.000000000000
         C            2.239897058312    -1.742865523160     0.354395708151    12.000000000000
         C            2.409835058312     1.144913476840    -0.049032291849    12.000000000000
         C            1.237708058312    -0.759355523160     0.948834708151    12.000000000000
         C           -0.023100941688     1.125669476840    -0.122457291849    12.000000000000
         C           -1.301676941688     0.347181476840    -0.069946291849    12.000000000000
         C           -2.404275941688     0.930805476840     0.565201708151    12.000000000000
         C           -1.380523541688    -0.989564423160    -0.530254391849    12.000000000000
         C           -3.635112941688     0.275620476840     0.568366708151    12.000000000000
         C           -2.688972941688    -1.518233523160    -0.750170291849    12.000000000000
         C           -3.780111941688    -0.949577523160    -0.088652291849    12.000000000000
         H            4.300578058312    -1.754064523160    -0.328548291849     1.007825032230
         H            4.019681058312    -0.816268523160     1.135802708151     1.007825032230
         H            4.406512058312     0.736631476840    -0.747975291849     1.007825032230
         H            3.125703058312    -0.035919523160    -1.687828291849     1.007825032230
         H            1.855214058312    -2.101722523160    -0.608308291849     1.007825032230
         H            2.334501058312    -2.613032523160     1.015368708151     1.007825032230
         H            2.754972058312     1.499177476840     0.935513708151     1.007825032230
         H            2.220888058312     2.022715476840    -0.668205291849     1.007825032230
         H            0.250489058312    -1.208269523160     1.056534708151     1.007825032230
         H            1.575893058312    -0.454536523160     1.953184708151     1.007825032230
         H           -2.283953941688     1.899627476840     1.043408708151     1.007825032230
         H           -0.603146941688    -1.303979523160    -1.271078291849     1.007825032230
         H           -4.486442941688     0.725686476840     1.073531708151     1.007825032230
         H           -2.804688941688    -2.460429523160    -1.280873291849     1.007825032230
         H           -4.742888941688    -1.454996523160    -0.092830291849     1.007825032230

  Basis Set: AUG-CC-PVTZ
    Blend: AUG-CC-PVTZ
  Basis Set: (AUG-CC-PVTZ AUX)
    Blend: AUG-CC-PVTZ-JKFIT
	 Reference Energy          =    -592.6615692089242202 [Eh]
	 Singles Energy            =      -0.0000000000000000 [Eh]
	 Same-Spin Energy          =      -0.6451513805657092 [Eh]
	 Opposite-Spin Energy      =      -2.0572775244771226 [Eh]
	 Correlation Energy        =      -2.7024289050428321 [Eh]
	 Total Energy              =    -595.3639981139669999 [Eh]

	 ================> DF-SCS-MP2 Energies <==================
	-----------------------------------------------------------
	 SCS Same-Spin Scale       =       0.3333333333333333 [-]
	 SCS Opposite-Spin Scale   =       1.2000000000000000 [-]
	 SCS Same-Spin Energy      =      -0.2150504601885697 [Eh]
	 SCS Opposite-Spin Energy  =      -2.4687330293725469 [Eh]
	 SCS Correlation Energy    =      -2.6837834895611166 [Eh]
	 SCS Total Energy          =    -595.3453526984853852 [Eh]
	-----------------------------------------------------------

  Dipole Moment: [D]
     X:     0.7902      Y:    -3.3083      Z:     1.0650     Total:     3.5642

*** Psi4 exiting successfully. Buy a developer a beer!
