                               Psi4 1.4a2.dev612

  ==> Input File <==

--------------------------------------------------------------------------
#psi4
#
memory 32 gb

molecule  {
0 1
  O       -0.0931590     2.3556990    -0.4150330
  N        1.0902530     0.4589530     0.1084880
  C        3.5423410    -1.0378250     0.1583630
  C        3.3922610     0.2419230    -0.6640150
  C        2.1860550    -1.7140940     0.3593590
  C        2.3559930     1.1736850    -0.0440690
  C        1.1838660    -0.7305840     0.9537980
  C       -0.0769430     1.1544410    -0.1174940
  C       -1.3325827     0.3097502    -0.3566868
  C       -2.4581180     0.9595770     0.5701650
  C       -1.5045770    -0.8456090    -0.7357740
  C       -3.6889550     0.3043920     0.5733300
  C       -2.7428150    -1.4894620    -0.7452070
  C       -3.8339540    -0.9208060    -0.0836890
  H        4.2467360    -1.7252930    -0.3235850
  H        3.9658390    -0.7874970     1.1407660
  H        4.3526700     0.7654030    -0.7430120
  H        3.0718610    -0.0071480    -1.6828650
  H        1.8013720    -2.0729510    -0.6033450
  H        2.2806590    -2.5842610     1.0203320
  H        2.7011300     1.5279490     0.9404770
  H        2.1670460     2.0514870    -0.6632420
  H        0.1966470    -1.1794980     1.0614980
  H        1.5220510    -0.4257650     1.9581480
  H       -2.3377960     1.9283990     1.0483720
  H       -0.6569890    -1.2752080    -1.2661150
  H       -4.5402850     0.7544580     1.0784950
  H       -2.8585310    -2.4316580    -1.2759100
  H       -4.7967310    -1.4262250    -0.0878670
units angstrom
no_reorient  #important for SAPT in psi4, default
symmetry c1  #important for SAPT in psi4, default
}

set PROPERTIES_ORIGIN ["COM"]
properties('MP2/aug-cc-pvtz', properties = ['dipole'])
--------------------------------------------------------------------------

    Molecular point group: c1
  Charge       = 0
  Multiplicity = 1
  Basis Set: AUG-CC-PVTZ
    Blend: AUG-CC-PVTZ
  Basis Set: (AUG-CC-PVTZ AUX)
    Blend: AUG-CC-PVTZ-JKFIT

    Orbital Energies [Eh]
    ---------------------

    Doubly Occupied:

       1A    -20.517732     2A    -15.582470     3A    -11.354562
       4A    -11.268483     5A    -11.258350     6A    -11.253930
       7A    -11.248173     8A    -11.248002     9A    -11.244641
      10A    -11.241307    11A    -11.231512    12A    -11.228511
      13A    -11.227522    14A    -11.225950    15A     -1.370306
      16A     -1.249047    17A     -1.167773    18A     -1.084432
      19A     -1.055441    20A     -1.030177    21A     -1.005063
      22A     -0.924391    23A     -0.866591    24A     -0.847717
      25A     -0.831761    26A     -0.793332    27A     -0.746187
      28A     -0.719245    29A     -0.686928    30A     -0.650600
      31A     -0.639003    32A     -0.632408    33A     -0.625776
      34A     -0.612962    35A     -0.599703    36A     -0.589572
      37A     -0.581832    38A     -0.561012    39A     -0.552948
      40A     -0.535582    41A     -0.521688    42A     -0.503299
      43A     -0.502261    44A     -0.479895    45A     -0.472044
      46A     -0.464897    47A     -0.461263    48A     -0.414544
      49A     -0.374264    50A     -0.370574    51A     -0.322869

  @DF-RHF Final Energy:  -592.61557584930654

   => Energetics <=

    Nuclear Repulsion Energy =            876.7136753035730408
    One-Electron Energy =               -2544.7014371256914274
    Two-Electron Energy =                1075.3721859728120762
    Total Energy =                       -592.6155758493064241
  Basis Set: (AUG-CC-PVTZ AUX)
    Blend: AUG-CC-PVTZ-RI
    Molecular point group: c1

    Geometry (in Angstrom), charge = 0, multiplicity = 1:

       Center              X                  Y                   Z               Mass
    ------------   -----------------  -----------------  -----------------  -----------------
         O           -0.036317179068     2.323819462836    -0.388130872408    15.994914619570
         N            1.147094820932     0.427073462836     0.135390127592    14.003074004430
         C            3.599182820932    -1.069704537164     0.185265127592    12.000000000000
         C            3.449102820932     0.210043462836    -0.637112872408    12.000000000000
         C            2.242896820932    -1.745973537164     0.386261127592    12.000000000000
         C            2.412834820932     1.141805462836    -0.017166872408    12.000000000000
         C            1.240707820932    -0.762463537164     0.980700127592    12.000000000000
         C           -0.020101179068     1.122561462836    -0.090591872408    12.000000000000
         C           -1.275740879068     0.277870662836    -0.329784672408    12.000000000000
         C           -2.401276179068     0.927697462836     0.597067127592    12.000000000000
         C           -1.447735179068    -0.877488537164    -0.708871872408    12.000000000000
         C           -3.632113179068     0.272512462836     0.600232127592    12.000000000000
         C           -2.685973179068    -1.521341537164    -0.718304872408    12.000000000000
         C           -3.777112179068    -0.952685537164    -0.056786872408    12.000000000000
         H            4.303577820932    -1.757172537164    -0.296682872408     1.007825032230
         H            4.022680820932    -0.819376537164     1.167668127592     1.007825032230
         H            4.409511820932     0.733523462836    -0.716109872408     1.007825032230
         H            3.128702820932    -0.039027537164    -1.655962872408     1.007825032230
         H            1.858213820932    -2.104830537164    -0.576442872408     1.007825032230
         H            2.337500820932    -2.616140537164     1.047234127592     1.007825032230
         H            2.757971820932     1.496069462836     0.967379127592     1.007825032230
         H            2.223887820932     2.019607462836    -0.636339872408     1.007825032230
         H            0.253488820932    -1.211377537164     1.088400127592     1.007825032230
         H            1.578892820932    -0.457644537164     1.985050127592     1.007825032230
         H           -2.280954179068     1.896519462836     1.075274127592     1.007825032230
         H           -0.600147179068    -1.307087537164    -1.239212872408     1.007825032230
         H           -4.483443179068     0.722578462836     1.105397127592     1.007825032230
         H           -2.801689179068    -2.463537537164    -1.249007872408     1.007825032230
         H           -4.739889179068    -1.458104537164    -0.060964872408     1.007825032230

  Basis Set: AUG-CC-PVTZ
    Blend: AUG-CC-PVTZ
  Basis Set: (AUG-CC-PVTZ AUX)
    Blend: AUG-CC-PVTZ-JKFIT
	 Reference Energy          =    -592.6155758493065377 [Eh]
	 Singles Energy            =      -0.0000000000000000 [Eh]
	 Same-Spin Energy          =      -0.6428003520117697 [Eh]
	 Opposite-Spin Energy      =      -2.0564245862007304 [Eh]
	 Correlation Energy        =      -2.6992249382125002 [Eh]
	 Total Energy              =    -595.3148007875190615 [Eh]

	 ================> DF-SCS-MP2 Energies <==================
	-----------------------------------------------------------
	 SCS Same-Spin Scale       =       0.3333333333333333 [-]
	 SCS Opposite-Spin Scale   =       1.2000000000000000 [-]
	 SCS Same-Spin Energy      =      -0.2142667840039232 [Eh]
	 SCS Opposite-Spin Energy  =      -2.4677095034408763 [Eh]
	 SCS Correlation Energy    =      -2.6819762874447997 [Eh]
	 SCS Total Energy          =    -595.2975521367513920 [Eh]
	-----------------------------------------------------------

  Dipole Moment: [D]
     X:     1.0978      Y:    -3.3844      Z:     1.0999     Total:     3.7241

*** Psi4 exiting successfully. Buy a developer a beer!
