                               Psi4 1.4a2.dev612

  ==> Input File <==

--------------------------------------------------------------------------
#psi4
#
memory 32 gb

molecule  {
0 1
  O       -0.0931590     2.3556990    -0.4150330
  N        1.0902530     0.4589530     0.1084880
  C        3.5423410    -1.0378250     0.1583630
  C        3.3922610     0.2419230    -0.6640150
  C        2.1860550    -1.7140940     0.3593590
  C        2.3559930     1.1736850    -0.0440690
  C        1.1838660    -0.7305840     0.9537980
  C       -0.0769430     1.1544410    -0.1174940
  C       -1.3555190     0.3759530    -0.0649830
  C       -2.4581180     0.9595770     0.5701650
  C       -1.4905347    -0.8686458    -0.6936774
  C       -3.6889550     0.3043920     0.5733300
  C       -2.7428150    -1.4894620    -0.7452070
  C       -3.8339540    -0.9208060    -0.0836890
  H        4.2467360    -1.7252930    -0.3235850
  H        3.9658390    -0.7874970     1.1407660
  H        4.3526700     0.7654030    -0.7430120
  H        3.0718610    -0.0071480    -1.6828650
  H        1.8013720    -2.0729510    -0.6033450
  H        2.2806590    -2.5842610     1.0203320
  H        2.7011300     1.5279490     0.9404770
  H        2.1670460     2.0514870    -0.6632420
  H        0.1966470    -1.1794980     1.0614980
  H        1.5220510    -0.4257650     1.9581480
  H       -2.3377960     1.9283990     1.0483720
  H       -0.6569890    -1.2752080    -1.2661150
  H       -4.5402850     0.7544580     1.0784950
  H       -2.8585310    -2.4316580    -1.2759100
  H       -4.7967310    -1.4262250    -0.0878670
units angstrom
no_reorient  #important for SAPT in psi4, default
symmetry c1  #important for SAPT in psi4, default
}

set PROPERTIES_ORIGIN ["COM"]
properties('MP2/aug-cc-pvtz', properties = ['dipole'])
--------------------------------------------------------------------------

    Molecular point group: c1
  Charge       = 0
  Multiplicity = 1
  Basis Set: AUG-CC-PVTZ
    Blend: AUG-CC-PVTZ
  Basis Set: (AUG-CC-PVTZ AUX)
    Blend: AUG-CC-PVTZ-JKFIT

    Orbital Energies [Eh]
    ---------------------

    Doubly Occupied:

       1A    -20.514674     2A    -15.581491     3A    -11.350217
       4A    -11.266731     5A    -11.253245     6A    -11.251359
       7A    -11.250162     8A    -11.248032     9A    -11.246076
      10A    -11.245797    11A    -11.243662    12A    -11.230741
      13A    -11.227755    14A    -11.224938    15A     -1.369051
      16A     -1.247966    17A     -1.161109    18A     -1.083723
      19A     -1.040843    20A     -1.025682    21A     -1.022629
      22A     -0.924541    23A     -0.867613    24A     -0.845909
      25A     -0.835884    26A     -0.793200    27A     -0.747671
      28A     -0.720035    29A     -0.681151    30A     -0.651321
      31A     -0.638320    32A     -0.630504    33A     -0.625929
      34A     -0.610551    35A     -0.600965    36A     -0.593725
      37A     -0.588605    38A     -0.560432    39A     -0.550940
      40A     -0.533692    41A     -0.513304    42A     -0.504690
      43A     -0.501502    44A     -0.495335    45A     -0.478554
      46A     -0.468826    47A     -0.460530    48A     -0.422143
      49A     -0.369508    50A     -0.344893    51A     -0.342563

  @DF-RHF Final Energy:  -592.68197875660690

   => Energetics <=

    Nuclear Repulsion Energy =            877.1671634890321911
    One-Electron Energy =               -2545.7208448971296093
    Two-Electron Energy =                1075.8717026514905228
    Total Energy =                       -592.6819787566068953
  Basis Set: (AUG-CC-PVTZ AUX)
    Blend: AUG-CC-PVTZ-RI
    Molecular point group: c1

    Geometry (in Angstrom), charge = 0, multiplicity = 1:

       Center              X                  Y                   Z               Mass
    ------------   -----------------  -----------------  -----------------  -----------------
         O           -0.035752825133     2.321080436303    -0.409311620038    15.994914619570
         N            1.147659174867     0.424334436303     0.114209379962    14.003074004430
         C            3.599747174867    -1.072443563697     0.164084379962    12.000000000000
         C            3.449667174867     0.207304436303    -0.658293620038    12.000000000000
         C            2.243461174867    -1.748712563697     0.365080379962    12.000000000000
         C            2.413399174867     1.139066436303    -0.038347620038    12.000000000000
         C            1.241272174867    -0.765202563697     0.959519379962    12.000000000000
         C           -0.019536825133     1.119822436303    -0.111772620038    12.000000000000
         C           -1.298112825133     0.341334436303    -0.059261620038    12.000000000000
         C           -2.400711825133     0.924958436303     0.575886379962    12.000000000000
         C           -1.433128525133    -0.903264363697    -0.687956020038    12.000000000000
         C           -3.631548825133     0.269773436303     0.579051379962    12.000000000000
         C           -2.685408825133    -1.524080563697    -0.739485620038    12.000000000000
         C           -3.776547825133    -0.955424563697    -0.077967620038    12.000000000000
         H            4.304142174867    -1.759911563697    -0.317863620038     1.007825032230
         H            4.023245174867    -0.822115563697     1.146487379962     1.007825032230
         H            4.410076174867     0.730784436303    -0.737290620038     1.007825032230
         H            3.129267174867    -0.041766563697    -1.677143620038     1.007825032230
         H            1.858778174867    -2.107569563697    -0.597623620038     1.007825032230
         H            2.338065174867    -2.618879563697     1.026053379962     1.007825032230
         H            2.758536174867     1.493330436303     0.946198379962     1.007825032230
         H            2.224452174867     2.016868436303    -0.657520620038     1.007825032230
         H            0.254053174867    -1.214116563697     1.067219379962     1.007825032230
         H            1.579457174867    -0.460383563697     1.963869379962     1.007825032230
         H           -2.280389825133     1.893780436303     1.054093379962     1.007825032230
         H           -0.599582825133    -1.309826563697    -1.260393620038     1.007825032230
         H           -4.482878825133     0.719839436303     1.084216379962     1.007825032230
         H           -2.801124825133    -2.466276563697    -1.270188620038     1.007825032230
         H           -4.739324825133    -1.460843563697    -0.082145620038     1.007825032230

  Basis Set: AUG-CC-PVTZ
    Blend: AUG-CC-PVTZ
  Basis Set: (AUG-CC-PVTZ AUX)
    Blend: AUG-CC-PVTZ-JKFIT
	 Reference Energy          =    -592.6819787566068953 [Eh]
	 Singles Energy            =      -0.0000000000000000 [Eh]
	 Same-Spin Energy          =      -0.6436096919432017 [Eh]
	 Opposite-Spin Energy      =      -2.0535621689062902 [Eh]
	 Correlation Energy        =      -2.6971718608494921 [Eh]
	 Total Energy              =    -595.3791506174563892 [Eh]

	 ================> DF-SCS-MP2 Energies <==================
	-----------------------------------------------------------
	 SCS Same-Spin Scale       =       0.3333333333333333 [-]
	 SCS Opposite-Spin Scale   =       1.2000000000000000 [-]
	 SCS Same-Spin Energy      =      -0.2145365639810672 [Eh]
	 SCS Opposite-Spin Energy  =      -2.4642746026875479 [Eh]
	 SCS Correlation Energy    =      -2.6788111666686154 [Eh]
	 SCS Total Energy          =    -595.3607899232755472 [Eh]
	-----------------------------------------------------------

  Dipole Moment: [D]
     X:     0.9973      Y:    -3.3862      Z:     1.1039     Total:     3.6986

*** Psi4 exiting successfully. Buy a developer a beer!
