                               Psi4 1.4a2.dev612

  ==> Input File <==

--------------------------------------------------------------------------
#psi4
#
memory 32 gb

molecule  {
0 1
  O       -0.0931590     2.3556990    -0.4150330
  N        1.0902530     0.4589530     0.1084880
  C        3.5423410    -1.0378250     0.1583630
  C        3.3922610     0.2419230    -0.6640150
  C        2.1860550    -1.7140940     0.3593590
  C        2.3559930     1.1736850    -0.0440690
  C        1.1838660    -0.7305840     0.9537980
  C       -0.0769430     1.1544410    -0.1174940
  C       -1.3402281     0.3318178    -0.2594522
  C       -2.4581180     0.9595770     0.5701650
  C       -1.5045770    -0.8456090    -0.7357740
  C       -3.6889550     0.3043920     0.5733300
  C       -2.7428150    -1.4894620    -0.7452070
  C       -3.8339540    -0.9208060    -0.0836890
  H        4.2467360    -1.7252930    -0.3235850
  H        3.9658390    -0.7874970     1.1407660
  H        4.3526700     0.7654030    -0.7430120
  H        3.0718610    -0.0071480    -1.6828650
  H        1.8013720    -2.0729510    -0.6033450
  H        2.2806590    -2.5842610     1.0203320
  H        2.7011300     1.5279490     0.9404770
  H        2.1670460     2.0514870    -0.6632420
  H        0.1966470    -1.1794980     1.0614980
  H        1.5220510    -0.4257650     1.9581480
  H       -2.3377960     1.9283990     1.0483720
  H       -0.6569890    -1.2752080    -1.2661150
  H       -4.5402850     0.7544580     1.0784950
  H       -2.8585310    -2.4316580    -1.2759100
  H       -4.7967310    -1.4262250    -0.0878670
units angstrom
no_reorient  #important for SAPT in psi4, default
symmetry c1  #important for SAPT in psi4, default
}

set PROPERTIES_ORIGIN ["COM"]
properties('MP2/aug-cc-pvtz', properties = ['dipole'])
--------------------------------------------------------------------------

    Molecular point group: c1
  Charge       = 0
  Multiplicity = 1
  Basis Set: AUG-CC-PVTZ
    Blend: AUG-CC-PVTZ
  Basis Set: (AUG-CC-PVTZ AUX)
    Blend: AUG-CC-PVTZ-JKFIT

    Orbital Energies [Eh]
    ---------------------

    Doubly Occupied:

       1A    -20.516557     2A    -15.582119     3A    -11.352325
       4A    -11.267903     5A    -11.255354     6A    -11.253612
       7A    -11.249148     8A    -11.247797     9A    -11.245027
      10A    -11.242230    11A    -11.234842    12A    -11.231275
      13A    -11.228252    14A    -11.225584    15A     -1.369938
      16A     -1.248660    17A     -1.164379    18A     -1.084210
      19A     -1.048971    20A     -1.029099    21A     -1.011813
      22A     -0.924459    23A     -0.867058    24A     -0.845866
      25A     -0.834922    26A     -0.794369    27A     -0.746919
      28A     -0.719821    29A     -0.684528    30A     -0.650052
      31A     -0.639616    32A     -0.631414    33A     -0.626223
      34A     -0.612482    35A     -0.598538    36A     -0.589459
      37A     -0.588146    38A     -0.560854    39A     -0.552154
      40A     -0.534737    41A     -0.519100    42A     -0.502877
      43A     -0.502670    44A     -0.480604    45A     -0.478835
      46A     -0.468702    47A     -0.461006    48A     -0.419646
      49A     -0.370814    50A     -0.363438    51A     -0.328438

  @DF-RHF Final Energy:  -592.65327937551422

   => Energetics <=

    Nuclear Repulsion Energy =            876.9294931421594583
    One-Electron Energy =               -2545.1918621580575746
    Two-Electron Energy =                1075.6090896403838997
    Total Energy =                       -592.6532793755141029
  Basis Set: (AUG-CC-PVTZ AUX)
    Blend: AUG-CC-PVTZ-RI
    Molecular point group: c1

    Geometry (in Angstrom), charge = 0, multiplicity = 1:

       Center              X                  Y                   Z               Mass
    ------------   -----------------  -----------------  -----------------  -----------------
         O           -0.035832052963     2.322419200085    -0.394300731772    15.994914619570
         N            1.147579947037     0.425673200085     0.129220268228    14.003074004430
         C            3.599667947037    -1.071104799915     0.179095268228    12.000000000000
         C            3.449587947037     0.208643200085    -0.643282731772    12.000000000000
         C            2.243381947037    -1.747373799915     0.380091268228    12.000000000000
         C            2.413319947037     1.140405200085    -0.023336731772    12.000000000000
         C            1.241192947037    -0.763863799915     0.974530268228    12.000000000000
         C           -0.019616052963     1.121161200085    -0.096761731772    12.000000000000
         C           -1.282901152963     0.298538000085    -0.238719931772    12.000000000000
         C           -2.400791052963     0.926297200085     0.590897268228    12.000000000000
         C           -1.447250052963    -0.878888799915    -0.715041731772    12.000000000000
         C           -3.631628052963     0.271112200085     0.594062268228    12.000000000000
         C           -2.685488052963    -1.522741799915    -0.724474731772    12.000000000000
         C           -3.776627052963    -0.954085799915    -0.062956731772    12.000000000000
         H            4.304062947037    -1.758572799915    -0.302852731772     1.007825032230
         H            4.023165947037    -0.820776799915     1.161498268228     1.007825032230
         H            4.409996947037     0.732123200085    -0.722279731772     1.007825032230
         H            3.129187947037    -0.040427799915    -1.662132731772     1.007825032230
         H            1.858698947037    -2.106230799915    -0.582612731772     1.007825032230
         H            2.337985947037    -2.617540799915     1.041064268228     1.007825032230
         H            2.758456947037     1.494669200085     0.961209268228     1.007825032230
         H            2.224372947037     2.018207200085    -0.642509731772     1.007825032230
         H            0.253973947037    -1.212777799915     1.082230268228     1.007825032230
         H            1.579377947037    -0.459044799915     1.978880268228     1.007825032230
         H           -2.280469052963     1.895119200085     1.069104268228     1.007825032230
         H           -0.599662052963    -1.308487799915    -1.245382731772     1.007825032230
         H           -4.482958052963     0.721178200085     1.099227268228     1.007825032230
         H           -2.801204052963    -2.464937799915    -1.255177731772     1.007825032230
         H           -4.739404052963    -1.459504799915    -0.067134731772     1.007825032230

  Basis Set: AUG-CC-PVTZ
    Blend: AUG-CC-PVTZ
  Basis Set: (AUG-CC-PVTZ AUX)
    Blend: AUG-CC-PVTZ-JKFIT
	 Reference Energy          =    -592.6532793755142166 [Eh]
	 Singles Energy            =      -0.0000000000000000 [Eh]
	 Same-Spin Energy          =      -0.6429630094303476 [Eh]
	 Opposite-Spin Energy      =      -2.0545371729796056 [Eh]
	 Correlation Energy        =      -2.6975001824099532 [Eh]
	 Total Energy              =    -595.3507795579241701 [Eh]

	 ================> DF-SCS-MP2 Energies <==================
	-----------------------------------------------------------
	 SCS Same-Spin Scale       =       0.3333333333333333 [-]
	 SCS Opposite-Spin Scale   =       1.2000000000000000 [-]
	 SCS Same-Spin Energy      =      -0.2143210031434492 [Eh]
	 SCS Opposite-Spin Energy  =      -2.4654446075755265 [Eh]
	 SCS Correlation Energy    =      -2.6797656107189756 [Eh]
	 SCS Total Energy          =    -595.3330449862331761 [Eh]
	-----------------------------------------------------------

  Dipole Moment: [D]
     X:     1.0701      Y:    -3.3834      Z:     1.1132     Total:     3.7191

*** Psi4 exiting successfully. Buy a developer a beer!
