                               Psi4 1.4a2.dev612

  ==> Input File <==

--------------------------------------------------------------------------
#psi4
#
memory 32 gb

molecule  {
0 1
  O       -0.0931590     2.3556990    -0.4150330
  N        1.0902530     0.4589530     0.1084880
  C        3.5423410    -1.0378250     0.1583630
  C        3.3922610     0.2419230    -0.6640150
  C        2.1860550    -1.7140940     0.3593590
  C        2.3559930     1.1736850    -0.0440690
  C        1.1838660    -0.7305840     0.9537980
  C       -0.0769430     1.1544410    -0.1174940
  C       -1.3478736     0.3538854    -0.1622176
  C       -2.4581180     0.9595770     0.5701650
  C       -1.5045770    -0.8456090    -0.7357740
  C       -3.6889550     0.3043920     0.5733300
  C       -2.7428150    -1.4894620    -0.7452070
  C       -3.8339540    -0.9208060    -0.0836890
  H        4.2467360    -1.7252930    -0.3235850
  H        3.9658390    -0.7874970     1.1407660
  H        4.3526700     0.7654030    -0.7430120
  H        3.0718610    -0.0071480    -1.6828650
  H        1.8013720    -2.0729510    -0.6033450
  H        2.2806590    -2.5842610     1.0203320
  H        2.7011300     1.5279490     0.9404770
  H        2.1670460     2.0514870    -0.6632420
  H        0.1966470    -1.1794980     1.0614980
  H        1.5220510    -0.4257650     1.9581480
  H       -2.3377960     1.9283990     1.0483720
  H       -0.6569890    -1.2752080    -1.2661150
  H       -4.5402850     0.7544580     1.0784950
  H       -2.8585310    -2.4316580    -1.2759100
  H       -4.7967310    -1.4262250    -0.0878670
units angstrom
no_reorient  #important for SAPT in psi4, default
symmetry c1  #important for SAPT in psi4, default
}

set PROPERTIES_ORIGIN ["COM"]
properties('MP2/aug-cc-pvtz', properties = ['dipole'])
--------------------------------------------------------------------------

    Molecular point group: c1
  Charge       = 0
  Multiplicity = 1
  Basis Set: AUG-CC-PVTZ
    Blend: AUG-CC-PVTZ
  Basis Set: (AUG-CC-PVTZ AUX)
    Blend: AUG-CC-PVTZ-JKFIT

    Orbital Energies [Eh]
    ---------------------

    Doubly Occupied:

       1A    -20.515549     2A    -15.581865     3A    -11.350904
       4A    -11.267461     5A    -11.253424     6A    -11.251203
       7A    -11.249991     8A    -11.247695     9A    -11.245439
      10A    -11.242953    11A    -11.242514    12A    -11.231104
      13A    -11.228059    14A    -11.225289    15A     -1.369542
      16A     -1.248350    17A     -1.162165    18A     -1.084033
      19A     -1.043484    20A     -1.027188    21A     -1.018735
      22A     -0.924542    23A     -0.867497    24A     -0.845098
      25A     -0.836299    26A     -0.794408    27A     -0.747498
      28A     -0.720110    29A     -0.682348    30A     -0.650297
      31A     -0.639531    32A     -0.630699    33A     -0.626413
      34A     -0.611709    35A     -0.598192    36A     -0.593413
      37A     -0.589189    38A     -0.560714    39A     -0.551416
      40A     -0.534245    41A     -0.515896    42A     -0.503503
      43A     -0.502194    44A     -0.489795    45A     -0.478984
      46A     -0.469017    47A     -0.460818    48A     -0.421997
      49A     -0.370158    50A     -0.353598    51A     -0.335066

  @DF-RHF Final Energy:  -592.67578729383945

   => Energetics <=

    Nuclear Repulsion Energy =            877.0315260834149740
    One-Electron Energy =               -2545.4314482118120395
    Two-Electron Energy =                1075.7241348345576171
    Total Energy =                       -592.6757872938394485
  Basis Set: (AUG-CC-PVTZ AUX)
    Blend: AUG-CC-PVTZ-RI
    Molecular point group: c1

    Geometry (in Angstrom), charge = 0, multiplicity = 1:

       Center              X                  Y                   Z               Mass
    ------------   -----------------  -----------------  -----------------  -----------------
         O           -0.035346920513     2.321018937334    -0.400470591135    15.994914619570
         N            1.148065079487     0.424272937334     0.123050408865    14.003074004430
         C            3.600153079487    -1.072505062666     0.172925408865    12.000000000000
         C            3.450073079487     0.207242937334    -0.649452591135    12.000000000000
         C            2.243867079487    -1.748774062666     0.373921408865    12.000000000000
         C            2.413805079487     1.139004937334    -0.029506591135    12.000000000000
         C            1.241678079487    -0.765264062666     0.968360408865    12.000000000000
         C           -0.019130920513     1.119760937334    -0.102931591135    12.000000000000
         C           -1.290061520513     0.319205337334    -0.147655191135    12.000000000000
         C           -2.400305920513     0.924896937334     0.584727408865    12.000000000000
         C           -1.446764920513    -0.880289062666    -0.721211591135    12.000000000000
         C           -3.631142920513     0.269711937334     0.587892408865    12.000000000000
         C           -2.685002920513    -1.524142062666    -0.730644591135    12.000000000000
         C           -3.776141920513    -0.955486062666    -0.069126591135    12.000000000000
         H            4.304548079487    -1.759973062666    -0.309022591135     1.007825032230
         H            4.023651079487    -0.822177062666     1.155328408865     1.007825032230
         H            4.410482079487     0.730722937334    -0.728449591135     1.007825032230
         H            3.129673079487    -0.041828062666    -1.668302591135     1.007825032230
         H            1.859184079487    -2.107631062666    -0.588782591135     1.007825032230
         H            2.338471079487    -2.618941062666     1.034894408865     1.007825032230
         H            2.758942079487     1.493268937334     0.955039408865     1.007825032230
         H            2.224858079487     2.016806937334    -0.648679591135     1.007825032230
         H            0.254459079487    -1.214178062666     1.076060408865     1.007825032230
         H            1.579863079487    -0.460445062666     1.972710408865     1.007825032230
         H           -2.279983920513     1.893718937334     1.062934408865     1.007825032230
         H           -0.599176920513    -1.309888062666    -1.251552591135     1.007825032230
         H           -4.482472920513     0.719777937334     1.093057408865     1.007825032230
         H           -2.800718920513    -2.466338062666    -1.261347591135     1.007825032230
         H           -4.738918920513    -1.460905062666    -0.073304591135     1.007825032230

  Basis Set: AUG-CC-PVTZ
    Blend: AUG-CC-PVTZ
  Basis Set: (AUG-CC-PVTZ AUX)
    Blend: AUG-CC-PVTZ-JKFIT
	 Reference Energy          =    -592.6757872938394485 [Eh]
	 Singles Energy            =      -0.0000000000000000 [Eh]
	 Same-Spin Energy          =      -0.6432754454295928 [Eh]
	 Opposite-Spin Energy      =      -2.0535303435660297 [Eh]
	 Correlation Energy        =      -2.6968057889956225 [Eh]
	 Total Energy              =    -595.3725930828351238 [Eh]

	 ================> DF-SCS-MP2 Energies <==================
	-----------------------------------------------------------
	 SCS Same-Spin Scale       =       0.3333333333333333 [-]
	 SCS Opposite-Spin Scale   =       1.2000000000000000 [-]
	 SCS Same-Spin Energy      =      -0.2144251484765309 [Eh]
	 SCS Opposite-Spin Energy  =      -2.4642364122792357 [Eh]
	 SCS Correlation Energy    =      -2.6786615607557667 [Eh]
	 SCS Total Energy          =    -595.3544488545952618 [Eh]
	-----------------------------------------------------------

  Dipole Moment: [D]
     X:     1.0493      Y:    -3.3874      Z:     1.1201     Total:     3.7189

*** Psi4 exiting successfully. Buy a developer a beer!
