                               Psi4 1.3.2 release

  ==> Input File <==

--------------------------------------------------------------------------
#psi4
#
memory 32 gb

molecule  {
0 1
  N        0.3833600    -0.5125370    -0.0001240
  N       -0.3832800     0.5120360    -0.0003650
  C        1.7672300    -0.1861950    -0.0000230
  C       -1.7671580     0.1858050    -0.0001250
  C        2.6296550    -1.2889660    -0.0004100
  C       -2.2820560    -1.1203900     0.0004250
  C        2.2816634     1.1203217    -0.1995569
  C       -2.6293090     1.2888360    -0.0004050
  C        4.0102370    -1.0927240    -0.0003780
  C       -3.6612700    -1.3047800     0.0004470
  C        3.6608930     1.3050510     0.0005180
  C       -4.0099580     1.0931000    -0.0003430
  C        4.5276310     0.2044750     0.0001450
  C       -4.5277070    -0.2039390     0.0001440
  H        2.1941740    -2.2850020    -0.0008280
  H       -1.5949460    -1.9607630     0.0007310
  H        1.5942790     1.9602490     0.0007180
  H       -2.1933450     2.2846620    -0.0007500
  H        4.6808280    -1.9484460    -0.0006320
  H       -4.0692680    -2.3129040     0.0009720
  H        4.0684950     2.3133330     0.0008240
  H       -4.6802440     1.9490580    -0.0004760
  H        5.6036530     0.3614050     0.0000240
  H       -5.6037540    -0.3606960     0.0002220
units angstrom
no_reorient  #important for SAPT in psi4, default
symmetry c1  #important for SAPT in psi4, default
}

set PROPERTIES_ORIGIN ["COM"]
properties('MP2/aug-cc-pvtz', properties = ['dipole'])
--------------------------------------------------------------------------

    Molecular point group: c1
  Charge       = 0
  Multiplicity = 1
  Basis Set: AUG-CC-PVTZ
    Blend: AUG-CC-PVTZ
  Basis Set: (AUG-CC-PVTZ AUX)
    Blend: AUG-CC-PVTZ-JKFIT

    Orbital Energies [Eh]
    ---------------------

    Doubly Occupied:

       1A    -15.632685     2A    -15.631099     3A    -11.272876
       4A    -11.270226     5A    -11.246847     6A    -11.246001
       7A    -11.245245     8A    -11.244933     9A    -11.244378
      10A    -11.244034    11A    -11.243777    12A    -11.242900
      13A    -11.242639    14A    -11.242413    15A     -1.357694
      16A     -1.171942    17A     -1.148857    18A     -1.075418
      19A     -1.023384    20A     -1.021288    21A     -1.006145
      22A     -0.925551    23A     -0.843478    24A     -0.838995
      25A     -0.816558    26A     -0.774839    27A     -0.716149
      28A     -0.698340    29A     -0.667075    30A     -0.659870
      31A     -0.629881    32A     -0.617575    33A     -0.598860
      34A     -0.596857    35A     -0.592195    36A     -0.578214
      37A     -0.573324    38A     -0.521067    39A     -0.518548
      40A     -0.514020    41A     -0.499339    42A     -0.496209
      43A     -0.475529    44A     -0.403070    45A     -0.361910
      46A     -0.344053    47A     -0.343094    48A     -0.302657

  @DF-RHF Final Energy:  -569.26586543712915

   => Energetics <=

    Nuclear Repulsion Energy =            748.8230113934893097
    One-Electron Energy =               -2256.2536742739553119
    Two-Electron Energy =                 938.1647974433369654
    Total Energy =                       -569.2658654371291505
  Basis Set: (AUG-CC-PVTZ AUX)
    Blend: AUG-CC-PVTZ-RI
    Molecular point group: c1

    Geometry (in Angstrom), charge = 0, multiplicity = 1:

       Center              X                  Y                   Z               Mass
    ------------   -----------------  -----------------  -----------------  -----------------
         N            0.383364349388    -0.512542623058     0.013060979197    14.003074004430
         N           -0.383275650612     0.512030376942     0.012819979197    14.003074004430
         C            1.767234349388    -0.186200623058     0.013161979197    12.000000000000
         C           -1.767153650612     0.185799376942     0.013059979197    12.000000000000
         C            2.629659349388    -1.288971623058     0.012774979197    12.000000000000
         C           -2.282051650612    -1.120395623058     0.013609979197    12.000000000000
         C            2.281667749388     1.120316076942    -0.186371920803    12.000000000000
         C           -2.629304650612     1.288830376942     0.012779979197    12.000000000000
         C            4.010241349388    -1.092729623058     0.012806979197    12.000000000000
         C           -3.661265650612    -1.304785623058     0.013631979197    12.000000000000
         C            3.660897349388     1.305045376942     0.013702979197    12.000000000000
         C           -4.009953650612     1.093094376942     0.012841979197    12.000000000000
         C            4.527635349388     0.204469376942     0.013329979197    12.000000000000
         C           -4.527702650612    -0.203944623058     0.013328979197    12.000000000000
         H            2.194178349388    -2.285007623058     0.012356979197     1.007825032230
         H           -1.594941650612    -1.960768623058     0.013915979197     1.007825032230
         H            1.594283349388     1.960243376942     0.013902979197     1.007825032230
         H           -2.193340650612     2.284656376942     0.012434979197     1.007825032230
         H            4.680832349388    -1.948451623058     0.012552979197     1.007825032230
         H           -4.069263650612    -2.312909623058     0.014156979197     1.007825032230
         H            4.068499349388     2.313327376942     0.014008979197     1.007825032230
         H           -4.680239650612     1.949052376942     0.012708979197     1.007825032230
         H            5.603657349388     0.361399376942     0.013208979197     1.007825032230
         H           -5.603749650612    -0.360701623058     0.013406979197     1.007825032230

  Basis Set: AUG-CC-PVTZ
    Blend: AUG-CC-PVTZ
  Basis Set: (AUG-CC-PVTZ AUX)
    Blend: AUG-CC-PVTZ-JKFIT
	 Reference Energy          =    -569.2658654371291505 [Eh]
	 Singles Energy            =      -0.0000000000000000 [Eh]
	 Same-Spin Energy          =      -0.6335463128489721 [Eh]
	 Opposite-Spin Energy      =      -1.9435614749481238 [Eh]
	 Correlation Energy        =      -2.5771077877970958 [Eh]
	 Total Energy              =    -571.8429732249262543 [Eh]

	 ================> DF-SCS-MP2 Energies <==================
	-----------------------------------------------------------
	 SCS Same-Spin Scale       =       0.3333333333333333 [-]
	 SCS Opposite-Spin Scale   =       1.2000000000000000 [-]
	 SCS Same-Spin Energy      =      -0.2111821042829907 [Eh]
	 SCS Opposite-Spin Energy  =      -2.3322737699377485 [Eh]
	 SCS Correlation Energy    =      -2.5434558742207392 [Eh]
	 SCS Total Energy          =    -571.8093213113498905 [Eh]
	-----------------------------------------------------------

  Dipole Moment: [D]
     X:     0.0278      Y:    -0.0614      Z:     0.0776     Total:     0.1027

*** Psi4 exiting successfully. Buy a developer a beer!
