                               Psi4 1.3.2 release

  ==> Input File <==

--------------------------------------------------------------------------
#psi4
#
memory 32 gb

molecule  {
0 1
  N        0.3833600    -0.5125370    -0.0001240
  N       -0.3832800     0.5120360    -0.0003650
  C        1.7672300    -0.1861950    -0.0000230
  C       -1.7671580     0.1858050    -0.0001250
  C        2.6296550    -1.2889660    -0.0004100
  C       -2.2820560    -1.1203900     0.0004250
  C        2.2816440     1.1203616    -0.2495569
  C       -2.6293090     1.2888360    -0.0004050
  C        4.0102370    -1.0927240    -0.0003780
  C       -3.6612700    -1.3047800     0.0004470
  C        3.6608930     1.3050510     0.0005180
  C       -4.0099580     1.0931000    -0.0003430
  C        4.5276310     0.2044750     0.0001450
  C       -4.5277070    -0.2039390     0.0001440
  H        2.1941740    -2.2850020    -0.0008280
  H       -1.5949460    -1.9607630     0.0007310
  H        1.5942790     1.9602490     0.0007180
  H       -2.1933450     2.2846620    -0.0007500
  H        4.6808280    -1.9484460    -0.0006320
  H       -4.0692680    -2.3129040     0.0009720
  H        4.0684950     2.3133330     0.0008240
  H       -4.6802440     1.9490580    -0.0004760
  H        5.6036530     0.3614050     0.0000240
  H       -5.6037540    -0.3606960     0.0002220
units angstrom
no_reorient  #important for SAPT in psi4, default
symmetry c1  #important for SAPT in psi4, default
}

set PROPERTIES_ORIGIN ["COM"]
properties('MP2/aug-cc-pvtz', properties = ['dipole'])
--------------------------------------------------------------------------

    Molecular point group: c1
  Charge       = 0
  Multiplicity = 1
  Basis Set: AUG-CC-PVTZ
    Blend: AUG-CC-PVTZ
  Basis Set: (AUG-CC-PVTZ AUX)
    Blend: AUG-CC-PVTZ-JKFIT

    Orbital Energies [Eh]
    ---------------------

    Doubly Occupied:

       1A    -15.633046     2A    -15.630995     3A    -11.274433
       4A    -11.270337     5A    -11.248454     6A    -11.246517
       7A    -11.246205     8A    -11.245809     9A    -11.244567
      10A    -11.243951    11A    -11.243924    12A    -11.242772
      13A    -11.242723    14A    -11.242585    15A     -1.357788
      16A     -1.171656    17A     -1.148520    18A     -1.075471
      19A     -1.023516    20A     -1.020373    21A     -1.005753
      22A     -0.925415    23A     -0.843390    24A     -0.838589
      25A     -0.815992    26A     -0.774282    27A     -0.715751
      28A     -0.697740    29A     -0.666502    30A     -0.659672
      31A     -0.629113    32A     -0.617469    33A     -0.598647
      34A     -0.596804    35A     -0.591174    36A     -0.577622
      37A     -0.572757    38A     -0.521093    39A     -0.518215
      40A     -0.513400    41A     -0.499335    42A     -0.494552
      43A     -0.474863    44A     -0.403039    45A     -0.361407
      46A     -0.344157    47A     -0.342859    48A     -0.302635

  @DF-RHF Final Energy:  -569.25863008253725

   => Energetics <=

    Nuclear Repulsion Energy =            748.5630073829769344
    One-Electron Energy =               -2255.7315414515992416
    Two-Electron Energy =                 937.9099039860849416
    Total Energy =                       -569.2586300825372518
  Basis Set: (AUG-CC-PVTZ AUX)
    Blend: AUG-CC-PVTZ-RI
    Molecular point group: c1

    Geometry (in Angstrom), charge = 0, multiplicity = 1:

       Center              X                  Y                   Z               Mass
    ------------   -----------------  -----------------  -----------------  -----------------
         N            0.383365627916    -0.512545252608     0.016356154431    14.003074004430
         N           -0.383274372084     0.512027747392     0.016115154431    14.003074004430
         C            1.767235627916    -0.186203252608     0.016457154431    12.000000000000
         C           -1.767152372084     0.185796747392     0.016355154431    12.000000000000
         C            2.629660627916    -1.288974252608     0.016070154431    12.000000000000
         C           -2.282050372084    -1.120398252608     0.016905154431    12.000000000000
         C            2.281649627916     1.120353347392    -0.233076745569    12.000000000000
         C           -2.629303372084     1.288827747392     0.016075154431    12.000000000000
         C            4.010242627916    -1.092732252608     0.016102154431    12.000000000000
         C           -3.661264372084    -1.304788252608     0.016927154431    12.000000000000
         C            3.660898627916     1.305042747392     0.016998154431    12.000000000000
         C           -4.009952372084     1.093091747392     0.016137154431    12.000000000000
         C            4.527636627916     0.204466747392     0.016625154431    12.000000000000
         C           -4.527701372084    -0.203947252608     0.016624154431    12.000000000000
         H            2.194179627916    -2.285010252608     0.015652154431     1.007825032230
         H           -1.594940372084    -1.960771252608     0.017211154431     1.007825032230
         H            1.594284627916     1.960240747392     0.017198154431     1.007825032230
         H           -2.193339372084     2.284653747392     0.015730154431     1.007825032230
         H            4.680833627916    -1.948454252608     0.015848154431     1.007825032230
         H           -4.069262372084    -2.312912252608     0.017452154431     1.007825032230
         H            4.068500627916     2.313324747392     0.017304154431     1.007825032230
         H           -4.680238372084     1.949049747392     0.016004154431     1.007825032230
         H            5.603658627916     0.361396747392     0.016504154431     1.007825032230
         H           -5.603748372084    -0.360704252608     0.016702154431     1.007825032230

  Basis Set: AUG-CC-PVTZ
    Blend: AUG-CC-PVTZ
  Basis Set: (AUG-CC-PVTZ AUX)
    Blend: AUG-CC-PVTZ-JKFIT
	 Reference Energy          =    -569.2586300825372518 [Eh]
	 Singles Energy            =      -0.0000000000000000 [Eh]
	 Same-Spin Energy          =      -0.6339118874241129 [Eh]
	 Opposite-Spin Energy      =      -1.9446098978656483 [Eh]
	 Correlation Energy        =      -2.5785217852897611 [Eh]
	 Total Energy              =    -571.8371518678270604 [Eh]

	 ================> DF-SCS-MP2 Energies <==================
	-----------------------------------------------------------
	 SCS Same-Spin Scale       =       0.3333333333333333 [-]
	 SCS Opposite-Spin Scale   =       1.2000000000000000 [-]
	 SCS Same-Spin Energy      =      -0.2113039624747043 [Eh]
	 SCS Opposite-Spin Energy  =      -2.3335318774387779 [Eh]
	 SCS Correlation Energy    =      -2.5448358399134823 [Eh]
	 SCS Total Energy          =    -571.8034659224507550 [Eh]
	-----------------------------------------------------------

  Dipole Moment: [D]
     X:     0.0432      Y:    -0.0957      Z:     0.0997     Total:     0.1448

*** Psi4 exiting successfully. Buy a developer a beer!
