                               Psi4 1.3.2 release

  ==> Input File <==

--------------------------------------------------------------------------
#psi4
#
memory 32 gb

molecule  {
0 1
  N        0.3833600    -0.5125370    -0.0001240
  N       -0.3832800     0.5120360    -0.0003650
  C        1.7672300    -0.1861950    -0.0000230
  C       -1.7671580     0.1858050    -0.0001250
  C        2.6296550    -1.2889660    -0.0004100
  C       -2.2820560    -1.1203900     0.0004250
  C        2.2816828     1.1202818    -0.1495569
  C       -2.6293090     1.2888360    -0.0004050
  C        4.0102370    -1.0927240    -0.0003780
  C       -3.6612700    -1.3047800     0.0004470
  C        3.6608930     1.3050510     0.0005180
  C       -4.0099580     1.0931000    -0.0003430
  C        4.5276310     0.2044750     0.0001450
  C       -4.5277070    -0.2039390     0.0001440
  H        2.1941740    -2.2850020    -0.0008280
  H       -1.5949460    -1.9607630     0.0007310
  H        1.5942790     1.9602490     0.0007180
  H       -2.1933450     2.2846620    -0.0007500
  H        4.6808280    -1.9484460    -0.0006320
  H       -4.0692680    -2.3129040     0.0009720
  H        4.0684950     2.3133330     0.0008240
  H       -4.6802440     1.9490580    -0.0004760
  H        5.6036530     0.3614050     0.0000240
  H       -5.6037540    -0.3606960     0.0002220
units angstrom
no_reorient  #important for SAPT in psi4, default
symmetry c1  #important for SAPT in psi4, default
}

set PROPERTIES_ORIGIN ["COM"]
properties('MP2/aug-cc-pvtz', properties = ['dipole'])
--------------------------------------------------------------------------

    Molecular point group: c1
  Charge       = 0
  Multiplicity = 1
  Basis Set: AUG-CC-PVTZ
    Blend: AUG-CC-PVTZ
  Basis Set: (AUG-CC-PVTZ AUX)
    Blend: AUG-CC-PVTZ-JKFIT

    Orbital Energies [Eh]
    ---------------------

    Doubly Occupied:

       1A    -15.632452     2A    -15.631141     3A    -11.271640
       4A    -11.270141     5A    -11.245844     6A    -11.245802
       7A    -11.244857     8A    -11.244234     9A    -11.243987
      10A    -11.243695    11A    -11.243665    12A    -11.242867
      13A    -11.242537    14A    -11.242280    15A     -1.357626
      16A     -1.172188    17A     -1.149122    18A     -1.075385
      19A     -1.023292    20A     -1.022025    21A     -1.006422
      22A     -0.925651    23A     -0.843563    24A     -0.839328
      25A     -0.817022    26A     -0.775299    27A     -0.716523
      28A     -0.698856    29A     -0.667533    30A     -0.660052
      31A     -0.630502    32A     -0.617685    33A     -0.599068
      34A     -0.596969    35A     -0.592944    36A     -0.578597
      37A     -0.573802    38A     -0.521068    39A     -0.518764
      40A     -0.514519    41A     -0.499374    42A     -0.497439
      43A     -0.476015    44A     -0.403085    45A     -0.362323
      46A     -0.343992    47A     -0.343282    48A     -0.302682

  @DF-RHF Final Energy:  -569.27145098589278

   => Energetics <=

    Nuclear Repulsion Energy =            749.0278708621431178
    One-Electron Energy =               -2256.6643626317304552
    Two-Electron Energy =                 938.3650407836945533
    Total Energy =                       -569.2714509858927840
  Basis Set: (AUG-CC-PVTZ AUX)
    Blend: AUG-CC-PVTZ-RI
    Molecular point group: c1

    Geometry (in Angstrom), charge = 0, multiplicity = 1:

       Center              X                  Y                   Z               Mass
    ------------   -----------------  -----------------  -----------------  -----------------
         N            0.383363070860    -0.512539993508     0.009765803962    14.003074004430
         N           -0.383276929140     0.512033006492     0.009524803962    14.003074004430
         C            1.767233070860    -0.186197993508     0.009866803962    12.000000000000
         C           -1.767154929140     0.185802006492     0.009764803962    12.000000000000
         C            2.629658070860    -1.288968993508     0.009479803962    12.000000000000
         C           -2.282052929140    -1.120392993508     0.010314803962    12.000000000000
         C            2.281685870860     1.120278806492    -0.139667096038    12.000000000000
         C           -2.629305929140     1.288833006492     0.009484803962    12.000000000000
         C            4.010240070860    -1.092726993508     0.009511803962    12.000000000000
         C           -3.661266929140    -1.304782993508     0.010336803962    12.000000000000
         C            3.660896070860     1.305048006492     0.010407803962    12.000000000000
         C           -4.009954929140     1.093097006492     0.009546803962    12.000000000000
         C            4.527634070860     0.204472006492     0.010034803962    12.000000000000
         C           -4.527703929140    -0.203941993508     0.010033803962    12.000000000000
         H            2.194177070860    -2.285004993508     0.009061803962     1.007825032230
         H           -1.594942929140    -1.960765993508     0.010620803962     1.007825032230
         H            1.594282070860     1.960246006492     0.010607803962     1.007825032230
         H           -2.193341929140     2.284659006492     0.009139803962     1.007825032230
         H            4.680831070860    -1.948448993508     0.009257803962     1.007825032230
         H           -4.069264929140    -2.312906993508     0.010861803962     1.007825032230
         H            4.068498070860     2.313330006492     0.010713803962     1.007825032230
         H           -4.680240929140     1.949055006492     0.009413803962     1.007825032230
         H            5.603656070860     0.361402006492     0.009913803962     1.007825032230
         H           -5.603750929140    -0.360698993508     0.010111803962     1.007825032230

  Basis Set: AUG-CC-PVTZ
    Blend: AUG-CC-PVTZ
  Basis Set: (AUG-CC-PVTZ AUX)
    Blend: AUG-CC-PVTZ-JKFIT
	 Reference Energy          =    -569.2714509858927840 [Eh]
	 Singles Energy            =      -0.0000000000000000 [Eh]
	 Same-Spin Energy          =      -0.6332547660813368 [Eh]
	 Opposite-Spin Energy      =      -1.9427518936137385 [Eh]
	 Correlation Energy        =      -2.5760066596950750 [Eh]
	 Total Energy              =    -571.8474576455878378 [Eh]

	 ================> DF-SCS-MP2 Energies <==================
	-----------------------------------------------------------
	 SCS Same-Spin Scale       =       0.3333333333333333 [-]
	 SCS Opposite-Spin Scale   =       1.2000000000000000 [-]
	 SCS Same-Spin Energy      =      -0.2110849220271123 [Eh]
	 SCS Opposite-Spin Energy  =      -2.3313022723364862 [Eh]
	 SCS Correlation Energy    =      -2.5423871943635987 [Eh]
	 SCS Total Energy          =    -571.8138381802564254 [Eh]
	-----------------------------------------------------------

  Dipole Moment: [D]
     X:     0.0158      Y:    -0.0345      Z:     0.0567     Total:     0.0683

*** Psi4 exiting successfully. Buy a developer a beer!
