                               Psi4 1.3.2 release

  ==> Input File <==

--------------------------------------------------------------------------
#psi4
#
memory 32 gb

molecule  {
0 1
  N        0.3833600    -0.5125370    -0.0001240
  N       -0.3832800     0.5120360    -0.0003650
  C        1.7672300    -0.1861950    -0.0000230
  C       -1.7671580     0.1858050    -0.0001250
  C        2.6296550    -1.2889660    -0.0004100
  C       -2.2820560    -1.1203900     0.0004250
  C        2.2816246     1.1204015    -0.2995569
  C       -2.6293090     1.2888360    -0.0004050
  C        4.0102370    -1.0927240    -0.0003780
  C       -3.6612700    -1.3047800     0.0004470
  C        3.6608930     1.3050510     0.0005180
  C       -4.0099580     1.0931000    -0.0003430
  C        4.5276310     0.2044750     0.0001450
  C       -4.5277070    -0.2039390     0.0001440
  H        2.1941740    -2.2850020    -0.0008280
  H       -1.5949460    -1.9607630     0.0007310
  H        1.5942790     1.9602490     0.0007180
  H       -2.1933450     2.2846620    -0.0007500
  H        4.6808280    -1.9484460    -0.0006320
  H       -4.0692680    -2.3129040     0.0009720
  H        4.0684950     2.3133330     0.0008240
  H       -4.6802440     1.9490580    -0.0004760
  H        5.6036530     0.3614050     0.0000240
  H       -5.6037540    -0.3606960     0.0002220
units angstrom
no_reorient  #important for SAPT in psi4, default
symmetry c1  #important for SAPT in psi4, default
}

set PROPERTIES_ORIGIN ["COM"]
properties('MP2/aug-cc-pvtz', properties = ['dipole'])
--------------------------------------------------------------------------

    Molecular point group: c1
  Charge       = 0
  Multiplicity = 1
  Basis Set: AUG-CC-PVTZ
    Blend: AUG-CC-PVTZ
  Basis Set: (AUG-CC-PVTZ AUX)
    Blend: AUG-CC-PVTZ-JKFIT

    Orbital Energies [Eh]
    ---------------------

    Doubly Occupied:

       1A    -15.633534     2A    -15.630835     3A    -11.276283
       4A    -11.270477     5A    -11.250425     6A    -11.248251
       7A    -11.246900     8A    -11.246459     9A    -11.244802
      10A    -11.244108    11A    -11.243638    12A    -11.242938
      13A    -11.242791    14A    -11.242434    15A     -1.357907
      16A     -1.171350    17A     -1.148112    18A     -1.075549
      19A     -1.023684    20A     -1.019325    21A     -1.005208
      22A     -0.925236    23A     -0.843308    24A     -0.838125
      25A     -0.815345    26A     -0.773650    27A     -0.715366
      28A     -0.697100    29A     -0.665833    30A     -0.659477
      31A     -0.628223    32A     -0.617383    33A     -0.598431
      34A     -0.596820    35A     -0.589958    36A     -0.576754
      37A     -0.572124    38A     -0.521157    39A     -0.517756
      40A     -0.512643    41A     -0.499327    42A     -0.492487
      43A     -0.473972    44A     -0.402978    45A     -0.360831
      46A     -0.344300    47A     -0.342601    48A     -0.302623

  @DF-RHF Final Energy:  -569.24972217115828

   => Energetics <=

    Nuclear Repulsion Energy =            748.2501819244699846
    One-Electron Energy =               -2255.1021729438766670
    Two-Electron Energy =                 937.6022688482485137
    Total Energy =                       -569.2497221711582824
  Basis Set: (AUG-CC-PVTZ AUX)
    Blend: AUG-CC-PVTZ-RI
    Molecular point group: c1

    Geometry (in Angstrom), charge = 0, multiplicity = 1:

       Center              X                  Y                   Z               Mass
    ------------   -----------------  -----------------  -----------------  -----------------
         N            0.383366906444    -0.512547882158     0.019651329666    14.003074004430
         N           -0.383273093556     0.512025117842     0.019410329666    14.003074004430
         C            1.767236906444    -0.186205882158     0.019752329666    12.000000000000
         C           -1.767151093556     0.185794117842     0.019650329666    12.000000000000
         C            2.629661906444    -1.288976882158     0.019365329666    12.000000000000
         C           -2.282049093556    -1.120400882158     0.020200329666    12.000000000000
         C            2.281631506444     1.120390617842    -0.279781570334    12.000000000000
         C           -2.629302093556     1.288825117842     0.019370329666    12.000000000000
         C            4.010243906444    -1.092734882158     0.019397329666    12.000000000000
         C           -3.661263093556    -1.304790882158     0.020222329666    12.000000000000
         C            3.660899906444     1.305040117842     0.020293329666    12.000000000000
         C           -4.009951093556     1.093089117842     0.019432329666    12.000000000000
         C            4.527637906444     0.204464117842     0.019920329666    12.000000000000
         C           -4.527700093556    -0.203949882158     0.019919329666    12.000000000000
         H            2.194180906444    -2.285012882158     0.018947329666     1.007825032230
         H           -1.594939093556    -1.960773882158     0.020506329666     1.007825032230
         H            1.594285906444     1.960238117842     0.020493329666     1.007825032230
         H           -2.193338093556     2.284651117842     0.019025329666     1.007825032230
         H            4.680834906444    -1.948456882158     0.019143329666     1.007825032230
         H           -4.069261093556    -2.312914882158     0.020747329666     1.007825032230
         H            4.068501906444     2.313322117842     0.020599329666     1.007825032230
         H           -4.680237093556     1.949047117842     0.019299329666     1.007825032230
         H            5.603659906444     0.361394117842     0.019799329666     1.007825032230
         H           -5.603747093556    -0.360706882158     0.019997329666     1.007825032230

  Basis Set: AUG-CC-PVTZ
    Blend: AUG-CC-PVTZ
  Basis Set: (AUG-CC-PVTZ AUX)
    Blend: AUG-CC-PVTZ-JKFIT
	 Reference Energy          =    -569.2497221711582824 [Eh]
	 Singles Energy            =      -0.0000000000000000 [Eh]
	 Same-Spin Energy          =      -0.6343446627449275 [Eh]
	 Opposite-Spin Energy      =      -1.9458834226199013 [Eh]
	 Correlation Energy        =      -2.5802280853648289 [Eh]
	 Total Energy              =    -571.8299502565231478 [Eh]

	 ================> DF-SCS-MP2 Energies <==================
	-----------------------------------------------------------
	 SCS Same-Spin Scale       =       0.3333333333333333 [-]
	 SCS Opposite-Spin Scale   =       1.2000000000000000 [-]
	 SCS Same-Spin Energy      =      -0.2114482209149758 [Eh]
	 SCS Opposite-Spin Energy  =      -2.3350601071438817 [Eh]
	 SCS Correlation Energy    =      -2.5465083280588576 [Eh]
	 SCS Total Energy          =    -571.7962304992171312 [Eh]
	-----------------------------------------------------------

  Dipole Moment: [D]
     X:     0.0619      Y:    -0.1372      Z:     0.1230     Total:     0.1944

*** Psi4 exiting successfully. Buy a developer a beer!
