                               Psi4 1.3.2 release

  ==> Input File <==

--------------------------------------------------------------------------
#psi4
#
memory 32 gb

molecule  {
0 1
  N        0.3833600    -0.5125370    -0.0001240
  N       -0.3832800     0.5120360    -0.0003650
  C        1.7672300    -0.1861950    -0.0000230
  C       -1.7671580     0.1858050    -0.0001250
  C        2.6296550    -1.2889660    -0.0004100
  C       -2.2820560    -1.1203900     0.0004250
  C        2.2817022     1.1202418    -0.0995570
  C       -2.6293090     1.2888360    -0.0004050
  C        4.0102370    -1.0927240    -0.0003780
  C       -3.6612700    -1.3047800     0.0004470
  C        3.6608930     1.3050510     0.0005180
  C       -4.0099580     1.0931000    -0.0003430
  C        4.5276310     0.2044750     0.0001450
  C       -4.5277070    -0.2039390     0.0001440
  H        2.1941740    -2.2850020    -0.0008280
  H       -1.5949460    -1.9607630     0.0007310
  H        1.5942790     1.9602490     0.0007180
  H       -2.1933450     2.2846620    -0.0007500
  H        4.6808280    -1.9484460    -0.0006320
  H       -4.0692680    -2.3129040     0.0009720
  H        4.0684950     2.3133330     0.0008240
  H       -4.6802440     1.9490580    -0.0004760
  H        5.6036530     0.3614050     0.0000240
  H       -5.6037540    -0.3606960     0.0002220
units angstrom
no_reorient  #important for SAPT in psi4, default
symmetry c1  #important for SAPT in psi4, default
}

set PROPERTIES_ORIGIN ["COM"]
properties('MP2/aug-cc-pvtz', properties = ['dipole'])
--------------------------------------------------------------------------

    Molecular point group: c1
  Charge       = 0
  Multiplicity = 1
  Basis Set: AUG-CC-PVTZ
    Blend: AUG-CC-PVTZ
  Basis Set: (AUG-CC-PVTZ AUX)
    Blend: AUG-CC-PVTZ-JKFIT

    Orbital Energies [Eh]
    ---------------------

    Doubly Occupied:

       1A    -15.632330     2A    -15.631137     3A    -11.270745
       4A    -11.270083     5A    -11.245734     6A    -11.245574
       7A    -11.244269     8A    -11.244133     9A    -11.243908
      10A    -11.243587    11A    -11.242847    12A    -11.242640
      13A    -11.242467    14A    -11.242186    15A     -1.357580
      16A     -1.172380    17A     -1.149313    18A     -1.075367
      19A     -1.023249    20A     -1.022550    21A     -1.006608
      22A     -0.925721    23A     -0.843638    24A     -0.839578
      25A     -0.817368    26A     -0.775644    27A     -0.716831
      28A     -0.699253    29A     -0.667869    30A     -0.660199
      31A     -0.630958    32A     -0.617783    33A     -0.599258
      34A     -0.597099    35A     -0.593419    36A     -0.578831
      37A     -0.574167    38A     -0.521085    39A     -0.518886
      40A     -0.514896    41A     -0.499481    42A     -0.498220
      43A     -0.476350    44A     -0.403091    45A     -0.362632
      46A     -0.343976    47A     -0.343405    48A     -0.302707

  @DF-RHF Final Energy:  -569.27541286298333

   => Energetics <=

    Nuclear Repulsion Energy =            749.1756986925471438
    One-Electron Energy =               -2256.9601586724597837
    Two-Electron Energy =                 938.5090471169294233
    Total Energy =                       -569.2754128629833303
  Basis Set: (AUG-CC-PVTZ AUX)
    Blend: AUG-CC-PVTZ-RI
    Molecular point group: c1

    Geometry (in Angstrom), charge = 0, multiplicity = 1:

       Center              X                  Y                   Z               Mass
    ------------   -----------------  -----------------  -----------------  -----------------
         N            0.383361792332    -0.512537357368     0.006470635318    14.003074004430
         N           -0.383278207668     0.512035642632     0.006229635318    14.003074004430
         C            1.767231792332    -0.186195357368     0.006571635318    12.000000000000
         C           -1.767156207668     0.185804642632     0.006469635318    12.000000000000
         C            2.629656792332    -1.288966357368     0.006184635318    12.000000000000
         C           -2.282054207668    -1.120390357368     0.007019635318    12.000000000000
         C            2.281703992332     1.120241442632    -0.092962364682    12.000000000000
         C           -2.629307207668     1.288835642632     0.006189635318    12.000000000000
         C            4.010238792332    -1.092724357368     0.006216635318    12.000000000000
         C           -3.661268207668    -1.304780357368     0.007041635318    12.000000000000
         C            3.660894792332     1.305050642632     0.007112635318    12.000000000000
         C           -4.009956207668     1.093099642632     0.006251635318    12.000000000000
         C            4.527632792332     0.204474642632     0.006739635318    12.000000000000
         C           -4.527705207668    -0.203939357368     0.006738635318    12.000000000000
         H            2.194175792332    -2.285002357368     0.005766635318     1.007825032230
         H           -1.594944207668    -1.960763357368     0.007325635318     1.007825032230
         H            1.594280792332     1.960248642632     0.007312635318     1.007825032230
         H           -2.193343207668     2.284661642632     0.005844635318     1.007825032230
         H            4.680829792332    -1.948446357368     0.005962635318     1.007825032230
         H           -4.069266207668    -2.312904357368     0.007566635318     1.007825032230
         H            4.068496792332     2.313332642632     0.007418635318     1.007825032230
         H           -4.680242207668     1.949057642632     0.006118635318     1.007825032230
         H            5.603654792332     0.361404642632     0.006618635318     1.007825032230
         H           -5.603752207668    -0.360696357368     0.006816635318     1.007825032230

  Basis Set: AUG-CC-PVTZ
    Blend: AUG-CC-PVTZ
  Basis Set: (AUG-CC-PVTZ AUX)
    Blend: AUG-CC-PVTZ-JKFIT
	 Reference Energy          =    -569.2754128629833303 [Eh]
	 Singles Energy            =      -0.0000000000000000 [Eh]
	 Same-Spin Energy          =      -0.6330422364089980 [Eh]
	 Opposite-Spin Energy      =      -1.9421930582322371 [Eh]
	 Correlation Energy        =      -2.5752352946412351 [Eh]
	 Total Energy              =    -571.8506481576246188 [Eh]

	 ================> DF-SCS-MP2 Energies <==================
	-----------------------------------------------------------
	 SCS Same-Spin Scale       =       0.3333333333333333 [-]
	 SCS Opposite-Spin Scale   =       1.2000000000000000 [-]
	 SCS Same-Spin Energy      =      -0.2110140788029993 [Eh]
	 SCS Opposite-Spin Energy  =      -2.3306316698786844 [Eh]
	 SCS Correlation Energy    =      -2.5416457486816837 [Eh]
	 SCS Total Energy          =    -571.8170586116650611 [Eh]
	-----------------------------------------------------------

  Dipole Moment: [D]
     X:     0.0071      Y:    -0.0152      Z:     0.0371     Total:     0.0408

*** Psi4 exiting successfully. Buy a developer a beer!
