                               Psi4 1.3.2 release

  ==> Input File <==

--------------------------------------------------------------------------
#psi4
#
memory 32 gb

molecule  {
0 1
  N        0.3833600    -0.5125370    -0.0001240
  N       -0.3832800     0.5120360    -0.0003650
  C        1.7672300    -0.1861950    -0.0000230
  C       -1.7671580     0.1858050    -0.0001250
  C        2.6296550    -1.2889660    -0.0004100
  C       -2.2820560    -1.1203900     0.0004250
  C        2.2817216     1.1202019    -0.0495570
  C       -2.6293090     1.2888360    -0.0004050
  C        4.0102370    -1.0927240    -0.0003780
  C       -3.6612700    -1.3047800     0.0004470
  C        3.6608930     1.3050510     0.0005180
  C       -4.0099580     1.0931000    -0.0003430
  C        4.5276310     0.2044750     0.0001450
  C       -4.5277070    -0.2039390     0.0001440
  H        2.1941740    -2.2850020    -0.0008280
  H       -1.5949460    -1.9607630     0.0007310
  H        1.5942790     1.9602490     0.0007180
  H       -2.1933450     2.2846620    -0.0007500
  H        4.6808280    -1.9484460    -0.0006320
  H       -4.0692680    -2.3129040     0.0009720
  H        4.0684950     2.3133330     0.0008240
  H       -4.6802440     1.9490580    -0.0004760
  H        5.6036530     0.3614050     0.0000240
  H       -5.6037540    -0.3606960     0.0002220
units angstrom
no_reorient  #important for SAPT in psi4, default
symmetry c1  #important for SAPT in psi4, default
}

set PROPERTIES_ORIGIN ["COM"]
properties('MP2/aug-cc-pvtz', properties = ['dipole'])
--------------------------------------------------------------------------

    Molecular point group: c1
  Charge       = 0
  Multiplicity = 1
  Basis Set: AUG-CC-PVTZ
    Blend: AUG-CC-PVTZ
  Basis Set: (AUG-CC-PVTZ AUX)
    Blend: AUG-CC-PVTZ-JKFIT

    Orbital Energies [Eh]
    ---------------------

    Doubly Occupied:

       1A    -15.632283     2A    -15.631118     3A    -11.270210
       4A    -11.270051     5A    -11.245671     6A    -11.245614
       7A    -11.244077     8A    -11.244044     9A    -11.243678
      10A    -11.243544    11A    -11.242481    12A    -11.242427
      13A    -11.242275    14A    -11.242132    15A     -1.357558
      16A     -1.172507    17A     -1.149433    18A     -1.075364
      19A     -1.023272    20A     -1.022833    21A     -1.006721
      22A     -0.925768    23A     -0.843692    24A     -0.839736
      25A     -0.817587    26A     -0.775862    27A     -0.717039
      28A     -0.699506    29A     -0.668078    30A     -0.660299
      31A     -0.631240    32A     -0.617853    33A     -0.599401
      34A     -0.597202    35A     -0.593674    36A     -0.578959
      37A     -0.574399    38A     -0.521106    39A     -0.518946
      40A     -0.515137    41A     -0.499652    42A     -0.498581
      43A     -0.476547    44A     -0.403099    45A     -0.362827
      46A     -0.343991    47A     -0.343468    48A     -0.302728

  @DF-RHF Final Energy:  -569.27777322214138

   => Energetics <=

    Nuclear Repulsion Energy =            749.2650970634908845
    One-Electron Energy =               -2257.1384011358400130
    Two-Electron Energy =                 938.5955308502077514
    Total Energy =                       -569.2777732221413771
  Basis Set: (AUG-CC-PVTZ AUX)
    Blend: AUG-CC-PVTZ-RI
    Molecular point group: c1

    Geometry (in Angstrom), charge = 0, multiplicity = 1:

       Center              X                  Y                   Z               Mass
    ------------   -----------------  -----------------  -----------------  -----------------
         N            0.383360513804    -0.512534727818     0.003175460083    14.003074004430
         N           -0.383279486196     0.512038272182     0.002934460083    14.003074004430
         C            1.767230513804    -0.186192727818     0.003276460083    12.000000000000
         C           -1.767157486196     0.185807272182     0.003174460083    12.000000000000
         C            2.629655513804    -1.288963727818     0.002889460083    12.000000000000
         C           -2.282055486196    -1.120387727818     0.003724460083    12.000000000000
         C            2.281722113804     1.120204172182    -0.046257539917    12.000000000000
         C           -2.629308486196     1.288838272182     0.002894460083    12.000000000000
         C            4.010237513804    -1.092721727818     0.002921460083    12.000000000000
         C           -3.661269486196    -1.304777727818     0.003746460083    12.000000000000
         C            3.660893513804     1.305053272182     0.003817460083    12.000000000000
         C           -4.009957486196     1.093102272182     0.002956460083    12.000000000000
         C            4.527631513804     0.204477272182     0.003444460083    12.000000000000
         C           -4.527706486196    -0.203936727818     0.003443460083    12.000000000000
         H            2.194174513804    -2.284999727818     0.002471460083     1.007825032230
         H           -1.594945486196    -1.960760727818     0.004030460083     1.007825032230
         H            1.594279513804     1.960251272182     0.004017460083     1.007825032230
         H           -2.193344486196     2.284664272182     0.002549460083     1.007825032230
         H            4.680828513804    -1.948443727818     0.002667460083     1.007825032230
         H           -4.069267486196    -2.312901727818     0.004271460083     1.007825032230
         H            4.068495513804     2.313335272182     0.004123460083     1.007825032230
         H           -4.680243486196     1.949060272182     0.002823460083     1.007825032230
         H            5.603653513804     0.361407272182     0.003323460083     1.007825032230
         H           -5.603753486196    -0.360693727818     0.003521460083     1.007825032230

  Basis Set: AUG-CC-PVTZ
    Blend: AUG-CC-PVTZ
  Basis Set: (AUG-CC-PVTZ AUX)
    Blend: AUG-CC-PVTZ-JKFIT
	 Reference Energy          =    -569.2777732221413771 [Eh]
	 Singles Energy            =      -0.0000000000000000 [Eh]
	 Same-Spin Energy          =      -0.6329104168539295 [Eh]
	 Opposite-Spin Energy      =      -1.9418822733516836 [Eh]
	 Correlation Energy        =      -2.5747926902056131 [Eh]
	 Total Energy              =    -571.8525659123470177 [Eh]

	 ================> DF-SCS-MP2 Energies <==================
	-----------------------------------------------------------
	 SCS Same-Spin Scale       =       0.3333333333333333 [-]
	 SCS Opposite-Spin Scale   =       1.2000000000000000 [-]
	 SCS Same-Spin Energy      =      -0.2109701389513098 [Eh]
	 SCS Opposite-Spin Energy  =      -2.3302587280220202 [Eh]
	 SCS Correlation Energy    =      -2.5412288669733298 [Eh]
	 SCS Total Energy          =    -571.8190020891147469 [Eh]
	-----------------------------------------------------------

  Dipole Moment: [D]
     X:     0.0016      Y:    -0.0037      Z:     0.0185     Total:     0.0189

*** Psi4 exiting successfully. Buy a developer a beer!
