                               Psi4 1.4a3.dev225

  ==> Input File <==

--------------------------------------------------------------------------
#psi4
#
memory 32 gb

molecule  {
-1 1
  S        2.0766110     0.0000000     0.0075520
  O        2.3891470     0.0000020     1.4601760
  O        2.4489030    -1.2526260    -0.7015720
  O        2.4489040     1.2526220    -0.7015770
  C        0.2698850     0.0000000    -0.0431290
  C       -1.7043986    -1.1419809    -0.0211465
  C       -1.8281600     1.2204390    -0.0177050
  C       -0.4294560     1.2077840    -0.0326800
  C       -0.4294570    -1.2077850    -0.0326810
  C       -2.5145250     0.0000000     0.0013750
  C       -2.5812260    -2.5268720     0.0200930
  C       -2.5812240     2.5268730     0.0200930
  H        0.1401440     2.1341360    -0.0762120
  H        0.1401420    -2.1341370    -0.0762130
  H       -3.6064350     0.0000010     0.0012720
  H       -2.0599700    -3.2944780    -0.5602250
  H       -2.6805960    -2.9020040     1.0455530
  H       -3.5901000    -2.4148770    -0.3912530
  H       -2.6805180     2.9020500     1.0455440
  H       -2.0600100     3.2944550    -0.5602960
  H       -3.5901270     2.4148600    -0.3911760
units angstrom
no_reorient  #important for SAPT in psi4, default
symmetry c1  #important for SAPT in psi4, default
}

set PROPERTIES_ORIGIN ["COM"]
properties('MP2/aug-cc-pvtz', properties = ['dipole'])
--------------------------------------------------------------------------

    Molecular point group: c1
  Charge       = -1
  Multiplicity = 1
  Basis Set: AUG-CC-PVTZ
    Blend: AUG-CC-PVTZ
  Basis Set: (AUG-CC-PVTZ AUX)
    Blend: AUG-CC-PVTZ-JKFIT

    Orbital Energies [Eh]
    ---------------------

    Doubly Occupied:

       1A    -92.014529     2A    -20.352380     3A    -20.351137
       4A    -20.351110     5A    -11.136099     6A    -11.132268
       7A    -11.131020     8A    -11.127298     9A    -11.125779
      10A    -11.121926    11A    -11.110318    12A    -11.098022
      13A     -8.975320    14A     -6.661022    15A     -6.660246
      16A     -6.660166    17A     -1.270805    18A     -1.127351
      19A     -1.125509    20A     -1.057106    21A     -0.954708
      22A     -0.914200    23A     -0.839106    24A     -0.822849
      25A     -0.740022    26A     -0.669169    27A     -0.626579
      28A     -0.574762    29A     -0.544577    30A     -0.513736
      31A     -0.483482    32A     -0.472575    33A     -0.467525
      34A     -0.463041    35A     -0.461565    36A     -0.453132
      37A     -0.443654    38A     -0.429723    39A     -0.412442
      40A     -0.383249    41A     -0.342690    42A     -0.331732
      43A     -0.331596    44A     -0.297998    45A     -0.291572
      46A     -0.269477    47A     -0.249751    48A     -0.225801
      49A     -0.207681

  @DF-RHF Final Energy:  -930.51124347566827

   => Energetics <=

    Nuclear Repulsion Energy =            816.2633912784908716
    One-Electron Energy =               -2913.9336581746979391
    Two-Electron Energy =                1167.1590234205386878
    Total Energy =                       -930.5112434756683797
  Basis Set: (AUG-CC-PVTZ AUX)
    Blend: AUG-CC-PVTZ-RI
    Molecular point group: c1

    Geometry (in Angstrom), charge = -1, multiplicity = 1:

       Center              X                  Y                   Z               Mass
    ------------   -----------------  -----------------  -----------------  -----------------
         S            1.961918969106    -0.005088284598     0.007976193989    31.972071174400
         O            2.274454969106    -0.005086284598     1.460600193989    15.994914619570
         O            2.334210969106    -1.257714284598    -0.701147806011    15.994914619570
         O            2.334211969106     1.247533715402    -0.701152806011    15.994914619570
         C            0.155192969106    -0.005088284598    -0.042704806011    12.000000000000
         C           -1.819090630894    -1.147069184598    -0.020722306011    12.000000000000
         C           -1.942852030894     1.215350715402    -0.017280806011    12.000000000000
         C           -0.544148030894     1.202695715402    -0.032255806011    12.000000000000
         C           -0.544149030894    -1.212873284598    -0.032256806011    12.000000000000
         C           -2.629217030894    -0.005088284598     0.001799193989    12.000000000000
         C           -2.695918030894    -2.531960284598     0.020517193989    12.000000000000
         C           -2.695916030894     2.521784715402     0.020517193989    12.000000000000
         H            0.025451969106     2.129047715402    -0.075787806011     1.007825032230
         H            0.025449969106    -2.139225284598    -0.075788806011     1.007825032230
         H           -3.721127030894    -0.005087284598     0.001696193989     1.007825032230
         H           -2.174662030894    -3.299566284598    -0.559800806011     1.007825032230
         H           -2.795288030894    -2.907092284598     1.045977193989     1.007825032230
         H           -3.704792030894    -2.419965284598    -0.390828806011     1.007825032230
         H           -2.795210030894     2.896961715402     1.045968193989     1.007825032230
         H           -2.174702030894     3.289366715402    -0.559871806011     1.007825032230
         H           -3.704819030894     2.409771715402    -0.390751806011     1.007825032230

  Basis Set: AUG-CC-PVTZ
    Blend: AUG-CC-PVTZ
  Basis Set: (AUG-CC-PVTZ AUX)
    Blend: AUG-CC-PVTZ-JKFIT
	 Reference Energy          =    -930.5112434756682660 [Eh]
	 Singles Energy            =      -0.0000000000000000 [Eh]
	 Same-Spin Energy          =      -0.6268418018700015 [Eh]
	 Opposite-Spin Energy      =      -1.8685628533854723 [Eh]
	 Correlation Energy        =      -2.4954046552554736 [Eh]
	 Total Energy              =    -933.0066481309237361 [Eh]

	 ================> DF-SCS-MP2 Energies <==================
	-----------------------------------------------------------
	 SCS Same-Spin Scale       =       0.3333333333333333 [-]
	 SCS Opposite-Spin Scale   =       1.2000000000000000 [-]
	 SCS Same-Spin Energy      =      -0.2089472672900005 [Eh]
	 SCS Opposite-Spin Energy  =      -2.2422754240625666 [Eh]
	 SCS Correlation Energy    =      -2.4512226913525672 [Eh]
	 SCS Total Energy          =    -932.9624661670208070 [Eh]
	-----------------------------------------------------------

  Dipole Moment: [D]
     X:   -10.1541      Y:     0.2374      Z:    -0.0762     Total:    10.1571

*** Psi4 exiting successfully. Buy a developer a beer!
