                               Psi4 1.4a3.dev225

  ==> Input File <==

--------------------------------------------------------------------------
#psi4
#
memory 32 gb

molecule  {
-1 1
  S        2.0766110     0.0000000     0.0075520
  O        2.3891470     0.0000020     1.4601760
  O        2.4489030    -1.2526260    -0.7015720
  O        2.4489040     1.2526220    -0.7015770
  C        0.2698850     0.0000000    -0.0431290
  C       -1.8281600    -1.2204390    -0.0177060
  C       -1.8281600     1.2204390    -0.0177050
  C       -0.4294560     1.2077840    -0.0326800
  C       -0.4294570    -1.2077850    -0.0326810
  C       -2.5145250     0.0000000     0.0013750
  C       -2.5812260    -2.5268720     0.0200930
  C       -2.5812240     2.5268730     0.0200930
  H        0.1139755     2.0915777    -0.0742121
  H        0.1401420    -2.1341370    -0.0762130
  H       -3.6064350     0.0000010     0.0012720
  H       -2.0599700    -3.2944780    -0.5602250
  H       -2.6805960    -2.9020040     1.0455530
  H       -3.5901000    -2.4148770    -0.3912530
  H       -2.6805180     2.9020500     1.0455440
  H       -2.0600100     3.2944550    -0.5602960
  H       -3.5901270     2.4148600    -0.3911760
units angstrom
no_reorient  #important for SAPT in psi4, default
symmetry c1  #important for SAPT in psi4, default
}

set PROPERTIES_ORIGIN ["COM"]
properties('MP2/aug-cc-pvtz', properties = ['dipole'])
--------------------------------------------------------------------------

    Molecular point group: c1
  Charge       = -1
  Multiplicity = 1
  Basis Set: AUG-CC-PVTZ
    Blend: AUG-CC-PVTZ
  Basis Set: (AUG-CC-PVTZ AUX)
    Blend: AUG-CC-PVTZ-JKFIT

    Orbital Energies [Eh]
    ---------------------

    Doubly Occupied:

       1A    -92.013842     2A    -20.350801     3A    -20.350720
       4A    -20.349900     5A    -11.134430     6A    -11.134224
       7A    -11.132038     8A    -11.131832     9A    -11.122874
      10A    -11.122187    11A    -11.111571    12A    -11.106309
      13A     -8.974561    14A     -6.660274    15A     -6.659490
      16A     -6.659407    17A     -1.269751    18A     -1.126303
      19A     -1.124470    20A     -1.045039    21A     -0.952516
      22A     -0.922467    23A     -0.840888    24A     -0.822013
      25A     -0.730493    26A     -0.677455    27A     -0.624787
      28A     -0.572496    29A     -0.541262    30A     -0.514167
      31A     -0.485155    32A     -0.476049    33A     -0.475292
      34A     -0.463179    35A     -0.461380    36A     -0.456474
      37A     -0.452105    38A     -0.426666    39A     -0.400065
      40A     -0.373841    41A     -0.371682    42A     -0.331354
      43A     -0.330511    44A     -0.296470    45A     -0.290566
      46A     -0.269331    47A     -0.248727    48A     -0.210252
      49A     -0.208605

  @DF-RHF Final Energy:  -930.53504449969114

   => Energetics <=

    Nuclear Repulsion Energy =            814.3315386978654260
    One-Electron Energy =               -2910.1206322754546818
    Two-Electron Energy =                1165.2540490778983440
    Total Energy =                       -930.5350444996911392
  Basis Set: (AUG-CC-PVTZ AUX)
    Blend: AUG-CC-PVTZ-RI
    Molecular point group: c1

    Geometry (in Angstrom), charge = -1, multiplicity = 1:

       Center              X                  Y                   Z               Mass
    ------------   -----------------  -----------------  -----------------  -----------------
         S            1.970088090943     0.000231951051     0.007742166020    31.972071174400
         O            2.282624090943     0.000233951051     1.460366166020    15.994914619570
         O            2.342380090943    -1.252394048949    -0.701381833980    15.994914619570
         O            2.342381090943     1.252853951051    -0.701386833980    15.994914619570
         C            0.163362090943     0.000231951051    -0.042938833980    12.000000000000
         C           -1.934682909057    -1.220207048949    -0.017515833980    12.000000000000
         C           -1.934682909057     1.220670951051    -0.017514833980    12.000000000000
         C           -0.535978909057     1.208015951051    -0.032489833980    12.000000000000
         C           -0.535979909057    -1.207553048949    -0.032490833980    12.000000000000
         C           -2.621047909057     0.000231951051     0.001565166020    12.000000000000
         C           -2.687748909057    -2.526640048949     0.020283166020    12.000000000000
         C           -2.687746909057     2.527104951051     0.020283166020    12.000000000000
         H            0.007452590943     2.091809651051    -0.074021933980     1.007825032230
         H            0.033619090943    -2.133905048949    -0.076022833980     1.007825032230
         H           -3.712957909057     0.000232951051     0.001462166020     1.007825032230
         H           -2.166492909057    -3.294246048949    -0.560034833980     1.007825032230
         H           -2.787118909057    -2.901772048949     1.045743166020     1.007825032230
         H           -3.696622909057    -2.414645048949    -0.391062833980     1.007825032230
         H           -2.787040909057     2.902281951051     1.045734166020     1.007825032230
         H           -2.166532909057     3.294686951051    -0.560105833980     1.007825032230
         H           -3.696649909057     2.415091951051    -0.390985833980     1.007825032230

  Basis Set: AUG-CC-PVTZ
    Blend: AUG-CC-PVTZ
  Basis Set: (AUG-CC-PVTZ AUX)
    Blend: AUG-CC-PVTZ-JKFIT
	 Reference Energy          =    -930.5350444996911392 [Eh]
	 Singles Energy            =      -0.0000000000000000 [Eh]
	 Same-Spin Energy          =      -0.6271009960631260 [Eh]
	 Opposite-Spin Energy      =      -1.8682765620399091 [Eh]
	 Correlation Energy        =      -2.4953775581030353 [Eh]
	 Total Energy              =    -933.0304220577942260 [Eh]

	 ================> DF-SCS-MP2 Energies <==================
	-----------------------------------------------------------
	 SCS Same-Spin Scale       =       0.3333333333333333 [-]
	 SCS Opposite-Spin Scale   =       1.2000000000000000 [-]
	 SCS Same-Spin Energy      =      -0.2090336653543753 [Eh]
	 SCS Opposite-Spin Energy  =      -2.2419318744478907 [Eh]
	 SCS Correlation Energy    =      -2.4509655398022661 [Eh]
	 SCS Total Energy          =    -932.9860100394934079 [Eh]
	-----------------------------------------------------------

  Dipole Moment: [D]
     X:   -10.3072      Y:     0.0075      Z:    -0.0664     Total:    10.3074

*** Psi4 exiting successfully. Buy a developer a beer!
