                               Psi4 1.4a3.dev225

  ==> Input File <==

--------------------------------------------------------------------------
#psi4
#
memory 32 gb

molecule  {
-1 1
  S        2.0766110     0.0000000     0.0075520
  O        2.3891470     0.0000020     1.4601760
  O        2.4489030    -1.2526260    -0.7015720
  O        2.4489040     1.2526220    -0.7015770
  C        0.2698850     0.0000000    -0.0431290
  C       -1.8281600    -1.2204390    -0.0177060
  C       -1.8281600     1.2204390    -0.0177050
  C       -0.4294560     1.2077840    -0.0326800
  C       -0.4294570    -1.2077850    -0.0326810
  C       -2.5145250     0.0000000     0.0013750
  C       -2.5812260    -2.5268720     0.0200930
  C       -2.5812240     2.5268730     0.0200930
  H        0.1401440     2.1341360    -0.0762120
  H        0.1401420    -2.1341370    -0.0762130
  H       -3.6064350     0.0000010     0.0012720
  H       -2.0599700    -3.2944780    -0.5602250
  H       -2.6824086    -2.9088468     1.0642584
  H       -3.5901000    -2.4148770    -0.3912530
  H       -2.6805180     2.9020500     1.0455440
  H       -2.0600100     3.2944550    -0.5602960
  H       -3.5901270     2.4148600    -0.3911760
units angstrom
no_reorient  #important for SAPT in psi4, default
symmetry c1  #important for SAPT in psi4, default
}

set PROPERTIES_ORIGIN ["COM"]
properties('MP2/aug-cc-pvtz', properties = ['dipole'])
--------------------------------------------------------------------------

    Molecular point group: c1
  Charge       = -1
  Multiplicity = 1
  Basis Set: AUG-CC-PVTZ
    Blend: AUG-CC-PVTZ
  Basis Set: (AUG-CC-PVTZ AUX)
    Blend: AUG-CC-PVTZ-JKFIT

    Orbital Energies [Eh]
    ---------------------

    Doubly Occupied:

       1A    -92.013923     2A    -20.350827     3A    -20.350804
       4A    -20.349959     5A    -11.134845     6A    -11.134568
       7A    -11.134152     8A    -11.131956     9A    -11.123293
      10A    -11.122557    11A    -11.112015    12A    -11.111940
      13A     -8.974644    14A     -6.660359    15A     -6.659571
      16A     -6.659487    17A     -1.269812    18A     -1.126368
      19A     -1.124526    20A     -1.044978    21A     -0.951827
      22A     -0.922087    23A     -0.840069    24A     -0.819830
      25A     -0.730167    26A     -0.675331    27A     -0.624693
      28A     -0.567810    29A     -0.541419    30A     -0.513553
      31A     -0.483865    32A     -0.475353    33A     -0.472859
      34A     -0.463149    35A     -0.461359    36A     -0.455026
      37A     -0.450386    38A     -0.426482    39A     -0.399415
      40A     -0.372341    41A     -0.371553    42A     -0.331401
      43A     -0.330510    44A     -0.296517    45A     -0.290525
      46A     -0.269482    47A     -0.248784    48A     -0.210478
      49A     -0.208692

  @DF-RHF Final Energy:  -930.53519851432839

   => Energetics <=

    Nuclear Repulsion Energy =            813.9720849329055454
    One-Electron Energy =               -2909.4234677639915390
    Two-Electron Energy =                1164.9161843167576080
    Total Energy =                       -930.5351985143283855
  Basis Set: (AUG-CC-PVTZ AUX)
    Blend: AUG-CC-PVTZ-RI
    Molecular point group: c1

    Geometry (in Angstrom), charge = -1, multiplicity = 1:

       Center              X                  Y                   Z               Mass
    ------------   -----------------  -----------------  -----------------  -----------------
         S            1.969955426771     0.000037412264     0.007651172818    31.972071174400
         O            2.282491426771     0.000039412264     1.460275172818    15.994914619570
         O            2.342247426771    -1.252588587736    -0.701472827182    15.994914619570
         O            2.342248426771     1.252659412264    -0.701477827182    15.994914619570
         C            0.163229426771     0.000037412264    -0.043029827182    12.000000000000
         C           -1.934815573229    -1.220401587736    -0.017606827182    12.000000000000
         C           -1.934815573229     1.220476412264    -0.017605827182    12.000000000000
         C           -0.536111573229     1.207821412264    -0.032580827182    12.000000000000
         C           -0.536112573229    -1.207747587736    -0.032581827182    12.000000000000
         C           -2.621180573229     0.000037412264     0.001474172818    12.000000000000
         C           -2.687881573229    -2.526834587736     0.020192172818    12.000000000000
         C           -2.687879573229     2.526910412264     0.020192172818    12.000000000000
         H            0.033488426771     2.134173412264    -0.076112827182     1.007825032230
         H            0.033486426771    -2.134099587736    -0.076113827182     1.007825032230
         H           -3.713090573229     0.000038412264     0.001371172818     1.007825032230
         H           -2.166625573229    -3.294440587736    -0.560125827182     1.007825032230
         H           -2.789064173229    -2.908809387736     1.064357572818     1.007825032230
         H           -3.696755573229    -2.414839587736    -0.391153827182     1.007825032230
         H           -2.787173573229     2.902087412264     1.045643172818     1.007825032230
         H           -2.166665573229     3.294492412264    -0.560196827182     1.007825032230
         H           -3.696782573229     2.414897412264    -0.391076827182     1.007825032230

  Basis Set: AUG-CC-PVTZ
    Blend: AUG-CC-PVTZ
  Basis Set: (AUG-CC-PVTZ AUX)
    Blend: AUG-CC-PVTZ-JKFIT
	 Reference Energy          =    -930.5351985143283855 [Eh]
	 Singles Energy            =      -0.0000000000000000 [Eh]
	 Same-Spin Energy          =      -0.6272743790009311 [Eh]
	 Opposite-Spin Energy      =      -1.8687798034633829 [Eh]
	 Correlation Energy        =      -2.4960541824643139 [Eh]
	 Total Energy              =    -933.0312526967926487 [Eh]

	 ================> DF-SCS-MP2 Energies <==================
	-----------------------------------------------------------
	 SCS Same-Spin Scale       =       0.3333333333333333 [-]
	 SCS Opposite-Spin Scale   =       1.2000000000000000 [-]
	 SCS Same-Spin Energy      =      -0.2090914596669770 [Eh]
	 SCS Opposite-Spin Energy  =      -2.2425357641560595 [Eh]
	 SCS Correlation Energy    =      -2.4516272238230363 [Eh]
	 SCS Total Energy          =    -932.9868257381514240 [Eh]
	-----------------------------------------------------------

  Dipole Moment: [D]
     X:   -10.2901      Y:     0.0123      Z:    -0.0777     Total:    10.2904

*** Psi4 exiting successfully. Buy a developer a beer!
