                               Psi4 1.4a3.dev225

  ==> Input File <==

--------------------------------------------------------------------------
#psi4
#
memory 32 gb

molecule  {
-1 1
  S        2.0766110     0.0000000     0.0075520
  O        2.3891470     0.0000020     1.4601760
  O        2.4489030    -1.2526260    -0.7015720
  O        2.4489040     1.2526220    -0.7015770
  C        0.2698850     0.0000000    -0.0431290
  C       -1.8711544    -1.2436586    -0.0165108
  C       -1.8281600     1.2204390    -0.0177050
  C       -0.4294560     1.2077840    -0.0326800
  C       -0.4294570    -1.2077850    -0.0326810
  C       -2.5145250     0.0000000     0.0013750
  C       -2.5812260    -2.5268720     0.0200930
  C       -2.5812240     2.5268730     0.0200930
  H        0.1401440     2.1341360    -0.0762120
  H        0.1401420    -2.1341370    -0.0762130
  H       -3.6064350     0.0000010     0.0012720
  H       -2.0599700    -3.2944780    -0.5602250
  H       -2.6805960    -2.9020040     1.0455530
  H       -3.5901000    -2.4148770    -0.3912530
  H       -2.6805180     2.9020500     1.0455440
  H       -2.0600100     3.2944550    -0.5602960
  H       -3.5901270     2.4148600    -0.3911760
units angstrom
no_reorient  #important for SAPT in psi4, default
symmetry c1  #important for SAPT in psi4, default
}

set PROPERTIES_ORIGIN ["COM"]
properties('MP2/aug-cc-pvtz', properties = ['dipole'])
--------------------------------------------------------------------------

    Molecular point group: c1
  Charge       = -1
  Multiplicity = 1
  Basis Set: AUG-CC-PVTZ
    Blend: AUG-CC-PVTZ
  Basis Set: (AUG-CC-PVTZ AUX)
    Blend: AUG-CC-PVTZ-JKFIT

    Orbital Energies [Eh]
    ---------------------

    Doubly Occupied:

       1A    -92.013718     2A    -20.350727     3A    -20.350329
       4A    -20.349605     5A    -11.137119     6A    -11.134122
       7A    -11.131805     8A    -11.131508     9A    -11.123099
      10A    -11.122575    11A    -11.116119    12A    -11.112450
      13A     -8.974419    14A     -6.660138    15A     -6.659346
      16A     -6.659261    17A     -1.269505    18A     -1.126085
      19A     -1.124201    20A     -1.042383    21A     -0.955109
      22A     -0.923294    23A     -0.842812    24A     -0.817960
      25A     -0.726539    26A     -0.677505    27A     -0.624028
      28A     -0.565828    29A     -0.541051    30A     -0.514100
      31A     -0.487541    32A     -0.482108    33A     -0.476828
      34A     -0.463106    35A     -0.461290    36A     -0.455788
      37A     -0.449119    38A     -0.425343    39A     -0.392579
      40A     -0.377803    41A     -0.368856    42A     -0.331136
      43A     -0.330106    44A     -0.296120    45A     -0.290152
      46A     -0.268938    47A     -0.248485    48A     -0.211564
      49A     -0.203367

  @DF-RHF Final Energy:  -930.53169720696565

   => Energetics <=

    Nuclear Repulsion Energy =            813.4129788583392155
    One-Electron Energy =               -2908.2954152131528645
    Two-Electron Energy =                1164.3507391478481168
    Total Energy =                       -930.5316972069656458
  Basis Set: (AUG-CC-PVTZ AUX)
    Blend: AUG-CC-PVTZ-RI
    Molecular point group: c1

    Geometry (in Angstrom), charge = -1, multiplicity = 1:

       Center              X                  Y                   Z               Mass
    ------------   -----------------  -----------------  -----------------  -----------------
         S            1.972733969084     0.001506054689     0.007675544205    31.972071174400
         O            2.285269969084     0.001508054689     1.460299544205    15.994914619570
         O            2.345025969084    -1.251119945311    -0.701448455795    15.994914619570
         O            2.345026969084     1.254128054689    -0.701453455795    15.994914619570
         C            0.166007969084     0.001506054689    -0.043005455795    12.000000000000
         C           -1.975031430916    -1.242152545311    -0.016387255795    12.000000000000
         C           -1.932037030916     1.221945054689    -0.017581455795    12.000000000000
         C           -0.533333030916     1.209290054689    -0.032556455795    12.000000000000
         C           -0.533334030916    -1.206278945311    -0.032557455795    12.000000000000
         C           -2.618402030916     0.001506054689     0.001498544205    12.000000000000
         C           -2.685103030916    -2.525365945311     0.020216544205    12.000000000000
         C           -2.685101030916     2.528379054689     0.020216544205    12.000000000000
         H            0.036266969084     2.135642054689    -0.076088455795     1.007825032230
         H            0.036264969084    -2.132630945311    -0.076089455795     1.007825032230
         H           -3.710312030916     0.001507054689     0.001395544205     1.007825032230
         H           -2.163847030916    -3.292971945311    -0.560101455795     1.007825032230
         H           -2.784473030916    -2.900497945311     1.045676544205     1.007825032230
         H           -3.693977030916    -2.413370945311    -0.391129455795     1.007825032230
         H           -2.784395030916     2.903556054689     1.045667544205     1.007825032230
         H           -2.163887030916     3.295961054689    -0.560172455795     1.007825032230
         H           -3.694004030916     2.416366054689    -0.391052455795     1.007825032230

  Basis Set: AUG-CC-PVTZ
    Blend: AUG-CC-PVTZ
  Basis Set: (AUG-CC-PVTZ AUX)
    Blend: AUG-CC-PVTZ-JKFIT
	 Reference Energy          =    -930.5316972069656458 [Eh]
	 Singles Energy            =      -0.0000000000000000 [Eh]
	 Same-Spin Energy          =      -0.6277116590747438 [Eh]
	 Opposite-Spin Energy      =      -1.8694354157633555 [Eh]
	 Correlation Energy        =      -2.4971470748380993 [Eh]
	 Total Energy              =    -933.0288442818037993 [Eh]

	 ================> DF-SCS-MP2 Energies <==================
	-----------------------------------------------------------
	 SCS Same-Spin Scale       =       0.3333333333333333 [-]
	 SCS Opposite-Spin Scale   =       1.2000000000000000 [-]
	 SCS Same-Spin Energy      =      -0.2092372196915813 [Eh]
	 SCS Opposite-Spin Energy  =      -2.2433224989160263 [Eh]
	 SCS Correlation Energy    =      -2.4525597186076076 [Eh]
	 SCS Total Energy          =    -932.9842569255732769 [Eh]
	-----------------------------------------------------------

  Dipole Moment: [D]
     X:   -10.3301      Y:    -0.0641      Z:    -0.0648     Total:    10.3305

*** Psi4 exiting successfully. Buy a developer a beer!
