                               Psi4 1.4a3.dev225

  ==> Input File <==

--------------------------------------------------------------------------
#psi4
#
memory 32 gb

molecule  {
-1 1
  S        2.0766110     0.0000000     0.0075520
  O        2.3891470     0.0000020     1.4601760
  O        2.4489030    -1.2526260    -0.7015720
  O        2.4489040     1.2526220    -0.7015770
  C        0.2698850     0.0000000    -0.0431290
  C       -1.8281600    -1.2204390    -0.0177060
  C       -1.8281600     1.2204390    -0.0177050
  C       -0.4294560     1.2077840    -0.0326800
  C       -0.4094590    -1.2076041    -0.0328951
  C       -2.5145250     0.0000000     0.0013750
  C       -2.5812260    -2.5268720     0.0200930
  C       -2.5812240     2.5268730     0.0200930
  H        0.1401440     2.1341360    -0.0762120
  H        0.1401420    -2.1341370    -0.0762130
  H       -3.6064350     0.0000010     0.0012720
  H       -2.0599700    -3.2944780    -0.5602250
  H       -2.6805960    -2.9020040     1.0455530
  H       -3.5901000    -2.4148770    -0.3912530
  H       -2.6805180     2.9020500     1.0455440
  H       -2.0600100     3.2944550    -0.5602960
  H       -3.5901270     2.4148600    -0.3911760
units angstrom
no_reorient  #important for SAPT in psi4, default
symmetry c1  #important for SAPT in psi4, default
}

set PROPERTIES_ORIGIN ["COM"]
properties('MP2/aug-cc-pvtz', properties = ['dipole'])
--------------------------------------------------------------------------

    Molecular point group: c1
  Charge       = -1
  Multiplicity = 1
  Basis Set: AUG-CC-PVTZ
    Blend: AUG-CC-PVTZ
  Basis Set: (AUG-CC-PVTZ AUX)
    Blend: AUG-CC-PVTZ-JKFIT

    Orbital Energies [Eh]
    ---------------------

    Doubly Occupied:

       1A    -92.013199     2A    -20.350458     3A    -20.350282
       4A    -20.349539     5A    -11.136829     6A    -11.134480
       7A    -11.132280     8A    -11.131904     9A    -11.122562
      10A    -11.122172    11A    -11.112231    12A    -11.111954
      13A     -8.973987    14A     -6.659689    15A     -6.658913
      16A     -6.658829    17A     -1.269440    18A     -1.125992
      19A     -1.124141    20A     -1.043928    21A     -0.950861
      22A     -0.923611    23A     -0.840858    24A     -0.820188
      25A     -0.728688    26A     -0.676483    27A     -0.624092
      28A     -0.568824    29A     -0.540953    30A     -0.513347
      31A     -0.485006    32A     -0.476217    33A     -0.475272
      34A     -0.462940    35A     -0.461046    36A     -0.455682
      37A     -0.449655    38A     -0.426797    39A     -0.397800
      40A     -0.374968    41A     -0.371521    42A     -0.331100
      43A     -0.330145    44A     -0.296185    45A     -0.290100
      46A     -0.268384    47A     -0.248413    48A     -0.211973
      49A     -0.206514

  @DF-RHF Final Energy:  -930.53523996995898

   => Energetics <=

    Nuclear Repulsion Energy =            814.0700925167637934
    One-Electron Energy =               -2909.6298017631024777
    Two-Electron Energy =                1165.0244692763794774
    Total Energy =                       -930.5352399699590933
  Basis Set: (AUG-CC-PVTZ AUX)
    Blend: AUG-CC-PVTZ-RI
    Molecular point group: c1

    Geometry (in Angstrom), charge = -1, multiplicity = 1:

       Center              X                  Y                   Z               Mass
    ------------   -----------------  -----------------  -----------------  -----------------
         S            1.968648577124    -0.000011592115     0.007766944800    31.972071174400
         O            2.281184577124    -0.000009592115     1.460390944800    15.994914619570
         O            2.340940577124    -1.252637592115    -0.701357055200    15.994914619570
         O            2.340941577124     1.252610407885    -0.701362055200    15.994914619570
         C            0.161922577124    -0.000011592115    -0.042914055200    12.000000000000
         C           -1.936122422876    -1.220450592115    -0.017491055200    12.000000000000
         C           -1.936122422876     1.220427407885    -0.017490055200    12.000000000000
         C           -0.537418422876     1.207772407885    -0.032465055200    12.000000000000
         C           -0.517421422876    -1.207615692115    -0.032680155200    12.000000000000
         C           -2.622487422876    -0.000011592115     0.001589944800    12.000000000000
         C           -2.689188422876    -2.526883592115     0.020307944800    12.000000000000
         C           -2.689186422876     2.526861407885     0.020307944800    12.000000000000
         H            0.032181577124     2.134124407885    -0.075997055200     1.007825032230
         H            0.032179577124    -2.134148592115    -0.075998055200     1.007825032230
         H           -3.714397422876    -0.000010592115     0.001486944800     1.007825032230
         H           -2.167932422876    -3.294489592115    -0.560010055200     1.007825032230
         H           -2.788558422876    -2.902015592115     1.045767944800     1.007825032230
         H           -3.698062422876    -2.414888592115    -0.391038055200     1.007825032230
         H           -2.788480422876     2.902038407885     1.045758944800     1.007825032230
         H           -2.167972422876     3.294443407885    -0.560081055200     1.007825032230
         H           -3.698089422876     2.414848407885    -0.390961055200     1.007825032230

  Basis Set: AUG-CC-PVTZ
    Blend: AUG-CC-PVTZ
  Basis Set: (AUG-CC-PVTZ AUX)
    Blend: AUG-CC-PVTZ-JKFIT
	 Reference Energy          =    -930.5352399699589796 [Eh]
	 Singles Energy            =      -0.0000000000000000 [Eh]
	 Same-Spin Energy          =      -0.6272430241408908 [Eh]
	 Opposite-Spin Energy      =      -1.8686477240475776 [Eh]
	 Correlation Energy        =      -2.4958907481884687 [Eh]
	 Total Energy              =    -933.0311307181474376 [Eh]

	 ================> DF-SCS-MP2 Energies <==================
	-----------------------------------------------------------
	 SCS Same-Spin Scale       =       0.3333333333333333 [-]
	 SCS Opposite-Spin Scale   =       1.2000000000000000 [-]
	 SCS Same-Spin Energy      =      -0.2090810080469636 [Eh]
	 SCS Opposite-Spin Energy  =      -2.2423772688570929 [Eh]
	 SCS Correlation Energy    =      -2.4514582769040563 [Eh]
	 SCS Total Energy          =    -932.9866982468630567 [Eh]
	-----------------------------------------------------------

  Dipole Moment: [D]
     X:   -10.3143      Y:    -0.0133      Z:    -0.0683     Total:    10.3145

*** Psi4 exiting successfully. Buy a developer a beer!
