                               Psi4 1.4a3.dev225

  ==> Input File <==

--------------------------------------------------------------------------
#psi4
#
memory 32 gb

molecule  {
-1 1
  S        2.0766110     0.0000000     0.0075520
  O        2.3891470     0.0000020     1.4601760
  O        2.4489030    -1.2526260    -0.7015720
  O        2.4489040     1.2526220    -0.7015770
  C        0.2698850     0.0000000    -0.0431290
  C       -1.8281600    -1.2204390    -0.0177060
  C       -1.8281600     1.2204390    -0.0177050
  C       -0.4294560     1.2077840    -0.0326800
  C       -0.4294570    -1.2077850    -0.0326810
  C       -2.5145250     0.0000000     0.0013750
  C       -2.5812260    -2.5268720     0.0200930
  C       -2.5812240     2.5268730     0.0200930
  H        0.1401440     2.1341360    -0.0762120
  H        0.1401420    -2.1341370    -0.0762130
  H       -3.6064350     0.0000010     0.0012720
  H       -2.0599700    -3.2944780    -0.5602250
  H       -2.6760645    -2.8848971     0.9987896
  H       -3.5901000    -2.4148770    -0.3912530
  H       -2.6805180     2.9020500     1.0455440
  H       -2.0600100     3.2944550    -0.5602960
  H       -3.5901270     2.4148600    -0.3911760
units angstrom
no_reorient  #important for SAPT in psi4, default
symmetry c1  #important for SAPT in psi4, default
}

set PROPERTIES_ORIGIN ["COM"]
properties('MP2/aug-cc-pvtz', properties = ['dipole'])
--------------------------------------------------------------------------

    Molecular point group: c1
  Charge       = -1
  Multiplicity = 1
  Basis Set: AUG-CC-PVTZ
    Blend: AUG-CC-PVTZ
  Basis Set: (AUG-CC-PVTZ AUX)
    Blend: AUG-CC-PVTZ-JKFIT

    Orbital Energies [Eh]
    ---------------------

    Doubly Occupied:

       1A    -92.013756     2A    -20.350671     3A    -20.350647
       4A    -20.349820     5A    -11.134314     6A    -11.134095
       7A    -11.131766     8A    -11.125685     9A    -11.123061
      10A    -11.122137    11A    -11.111628    12A    -11.111552
      13A     -8.974478    14A     -6.660192    15A     -6.659405
      16A     -6.659322    17A     -1.269659    18A     -1.126212
      19A     -1.124383    20A     -1.044815    21A     -0.952849
      22A     -0.922521    23A     -0.842791    24A     -0.821559
      25A     -0.730021    26A     -0.676212    27A     -0.624747
      28A     -0.567831    29A     -0.541006    30A     -0.513337
      31A     -0.491187    32A     -0.478476    33A     -0.474858
      34A     -0.463201    35A     -0.461190    36A     -0.454489
      37A     -0.450048    38A     -0.426020    39A     -0.399068
      40A     -0.372586    41A     -0.371855    42A     -0.331260
      43A     -0.330385    44A     -0.296438    45A     -0.290367
      46A     -0.269291    47A     -0.248639    48A     -0.210293
      49A     -0.208711

  @DF-RHF Final Energy:  -930.53473630064195

   => Energetics <=

    Nuclear Repulsion Energy =            814.2926520802782306
    One-Electron Energy =               -2910.0571108353578893
    Two-Electron Energy =                1165.2297224544374785
    Total Energy =                       -930.5347363006419528
  Basis Set: (AUG-CC-PVTZ AUX)
    Blend: AUG-CC-PVTZ-RI
    Molecular point group: c1

    Geometry (in Angstrom), charge = -1, multiplicity = 1:

       Center              X                  Y                   Z               Mass
    ------------   -----------------  -----------------  -----------------  -----------------
         S            1.969920871087    -0.000093039377     0.008007774881    31.972071174400
         O            2.282456871087    -0.000091039377     1.460631774881    15.994914619570
         O            2.342212871087    -1.252719039377    -0.701116225119    15.994914619570
         O            2.342213871087     1.252528960623    -0.701121225119    15.994914619570
         C            0.163194871087    -0.000093039377    -0.042673225119    12.000000000000
         C           -1.934850128913    -1.220532039377    -0.017250225119    12.000000000000
         C           -1.934850128913     1.220345960623    -0.017249225119    12.000000000000
         C           -0.536146128913     1.207690960623    -0.032224225119    12.000000000000
         C           -0.536147128913    -1.207878039377    -0.032225225119    12.000000000000
         C           -2.621215128913    -0.000093039377     0.001830774881    12.000000000000
         C           -2.687916128913    -2.526965039377     0.020548774881    12.000000000000
         C           -2.687914128913     2.526779960623     0.020548774881    12.000000000000
         H            0.033453871087     2.134042960623    -0.075756225119     1.007825032230
         H            0.033451871087    -2.134230039377    -0.075757225119     1.007825032230
         H           -3.713125128913    -0.000092039377     0.001727774881     1.007825032230
         H           -2.166660128913    -3.294571039377    -0.559769225119     1.007825032230
         H           -2.782754628913    -2.884990139377     0.999245374881     1.007825032230
         H           -3.696790128913    -2.414970039377    -0.390797225119     1.007825032230
         H           -2.787208128913     2.901956960623     1.045999774881     1.007825032230
         H           -2.166700128913     3.294361960623    -0.559840225119     1.007825032230
         H           -3.696817128913     2.414766960623    -0.390720225119     1.007825032230

  Basis Set: AUG-CC-PVTZ
    Blend: AUG-CC-PVTZ
  Basis Set: (AUG-CC-PVTZ AUX)
    Blend: AUG-CC-PVTZ-JKFIT
	 Reference Energy          =    -930.5347363006419528 [Eh]
	 Singles Energy            =      -0.0000000000000000 [Eh]
	 Same-Spin Energy          =      -0.6272957487236129 [Eh]
	 Opposite-Spin Energy      =      -1.8683967196713334 [Eh]
	 Correlation Energy        =      -2.4956924683949464 [Eh]
	 Total Energy              =    -933.0304287690369165 [Eh]

	 ================> DF-SCS-MP2 Energies <==================
	-----------------------------------------------------------
	 SCS Same-Spin Scale       =       0.3333333333333333 [-]
	 SCS Opposite-Spin Scale   =       1.2000000000000000 [-]
	 SCS Same-Spin Energy      =      -0.2090985829078710 [Eh]
	 SCS Opposite-Spin Energy  =      -2.2420760636055999 [Eh]
	 SCS Correlation Energy    =      -2.4511746465134707 [Eh]
	 SCS Total Energy          =    -932.9859109471553893 [Eh]
	-----------------------------------------------------------

  Dipole Moment: [D]
     X:   -10.3121      Y:    -0.0270      Z:    -0.0468     Total:    10.3123

*** Psi4 exiting successfully. Buy a developer a beer!
