                               Psi4 1.4a3.dev225

  ==> Input File <==

--------------------------------------------------------------------------
#psi4
#
memory 32 gb

molecule  {
-1 1
  S        2.0766110     0.0000000     0.0075520
  O        2.3499749    -0.0959114     1.4649018
  O        2.4489030    -1.2526260    -0.7015720
  O        2.4489040     1.2526220    -0.7015770
  C        0.2698850     0.0000000    -0.0431290
  C       -1.8281600    -1.2204390    -0.0177060
  C       -1.8281600     1.2204390    -0.0177050
  C       -0.4294560     1.2077840    -0.0326800
  C       -0.4294570    -1.2077850    -0.0326810
  C       -2.5145250     0.0000000     0.0013750
  C       -2.5812260    -2.5268720     0.0200930
  C       -2.5812240     2.5268730     0.0200930
  H        0.1401440     2.1341360    -0.0762120
  H        0.1401420    -2.1341370    -0.0762130
  H       -3.6064350     0.0000010     0.0012720
  H       -2.0599700    -3.2944780    -0.5602250
  H       -2.6805960    -2.9020040     1.0455530
  H       -3.5901000    -2.4148770    -0.3912530
  H       -2.6805180     2.9020500     1.0455440
  H       -2.0600100     3.2944550    -0.5602960
  H       -3.5901270     2.4148600    -0.3911760
units angstrom
no_reorient  #important for SAPT in psi4, default
symmetry c1  #important for SAPT in psi4, default
}

set PROPERTIES_ORIGIN ["COM"]
properties('MP2/aug-cc-pvtz', properties = ['dipole'])
--------------------------------------------------------------------------

    Molecular point group: c1
  Charge       = -1
  Multiplicity = 1
  Basis Set: AUG-CC-PVTZ
    Blend: AUG-CC-PVTZ
  Basis Set: (AUG-CC-PVTZ AUX)
    Blend: AUG-CC-PVTZ-JKFIT

    Orbital Energies [Eh]
    ---------------------

    Doubly Occupied:

       1A    -92.014556     2A    -20.357839     3A    -20.350605
       4A    -20.346410     5A    -11.133730     6A    -11.133540
       7A    -11.131460     8A    -11.131058     9A    -11.121812
      10A    -11.121285    11A    -11.110817    12A    -11.110446
      13A     -8.975259    14A     -6.660975    15A     -6.660236
      16A     -6.660041    17A     -1.270638    18A     -1.132359
      19A     -1.120893    20A     -1.043889    21A     -0.951226
      22A     -0.921093    23A     -0.839929    24A     -0.819455
      25A     -0.729065    26A     -0.674653    27A     -0.624555
      28A     -0.567087    29A     -0.540434    30A     -0.513732
      31A     -0.484438    32A     -0.474642    33A     -0.474521
      34A     -0.465191    35A     -0.460862    36A     -0.454201
      37A     -0.449407    38A     -0.425612    39A     -0.398569
      40A     -0.371442    41A     -0.371164    42A     -0.334278
      43A     -0.329891    44A     -0.299369    45A     -0.290029
      46A     -0.268226    47A     -0.249457    48A     -0.209160
      49A     -0.207683

  @DF-RHF Final Energy:  -930.53394096967099

   => Energetics <=

    Nuclear Repulsion Energy =            814.4372046425505687
    One-Electron Energy =               -2910.3678529545136371
    Two-Electron Energy =                1165.3967073422920748
    Total Energy =                       -930.5339409696709936
  Basis Set: (AUG-CC-PVTZ AUX)
    Blend: AUG-CC-PVTZ-RI
    Molecular point group: c1

    Geometry (in Angstrom), charge = -1, multiplicity = 1:

       Center              X                  Y                   Z               Mass
    ------------   -----------------  -----------------  -----------------  -----------------
         S            1.973331835619     0.008291495804     0.007344531499    31.972071174400
         O            2.246695735619    -0.087619904196     1.464694331499    15.994914619570
         O            2.345623835619    -1.244334504196    -0.701779468501    15.994914619570
         O            2.345624835619     1.260913495804    -0.701784468501    15.994914619570
         C            0.166605835619     0.008291495804    -0.043336468501    12.000000000000
         C           -1.931439164381    -1.212147504196    -0.017913468501    12.000000000000
         C           -1.931439164381     1.228730495804    -0.017912468501    12.000000000000
         C           -0.532735164381     1.216075495804    -0.032887468501    12.000000000000
         C           -0.532736164381    -1.199493504196    -0.032888468501    12.000000000000
         C           -2.617804164381     0.008291495804     0.001167531499    12.000000000000
         C           -2.684505164381    -2.518580504196     0.019885531499    12.000000000000
         C           -2.684503164381     2.535164495804     0.019885531499    12.000000000000
         H            0.036864835619     2.142427495804    -0.076419468501     1.007825032230
         H            0.036862835619    -2.125845504196    -0.076420468501     1.007825032230
         H           -3.709714164381     0.008292495804     0.001064531499     1.007825032230
         H           -2.163249164381    -3.286186504196    -0.560432468501     1.007825032230
         H           -2.783875164381    -2.893712504196     1.045345531499     1.007825032230
         H           -3.693379164381    -2.406585504196    -0.391460468501     1.007825032230
         H           -2.783797164381     2.910341495804     1.045336531499     1.007825032230
         H           -2.163289164381     3.302746495804    -0.560503468501     1.007825032230
         H           -3.693406164381     2.423151495804    -0.391383468501     1.007825032230

  Basis Set: AUG-CC-PVTZ
    Blend: AUG-CC-PVTZ
  Basis Set: (AUG-CC-PVTZ AUX)
    Blend: AUG-CC-PVTZ-JKFIT
	 Reference Energy          =    -930.5339409696709936 [Eh]
	 Singles Energy            =      -0.0000000000000000 [Eh]
	 Same-Spin Energy          =      -0.6274586329520033 [Eh]
	 Opposite-Spin Energy      =      -1.8690125343811201 [Eh]
	 Correlation Energy        =      -2.4964711673331235 [Eh]
	 Total Energy              =    -933.0304121370040775 [Eh]

	 ================> DF-SCS-MP2 Energies <==================
	-----------------------------------------------------------
	 SCS Same-Spin Scale       =       0.3333333333333333 [-]
	 SCS Opposite-Spin Scale   =       1.2000000000000000 [-]
	 SCS Same-Spin Energy      =      -0.2091528776506678 [Eh]
	 SCS Opposite-Spin Energy  =      -2.2428150412573440 [Eh]
	 SCS Correlation Energy    =      -2.4519679189080117 [Eh]
	 SCS Total Energy          =    -932.9859088885790470 [Eh]
	-----------------------------------------------------------

  Dipole Moment: [D]
     X:   -10.1471      Y:     0.2173      Z:    -0.0737     Total:    10.1497

*** Psi4 exiting successfully. Buy a developer a beer!
