                               Psi4 1.4a3.dev225

  ==> Input File <==

--------------------------------------------------------------------------
#psi4
#
memory 32 gb

molecule  {
-1 1
  S        2.0766110     0.0000000     0.0075520
  O        2.3891470     0.0000020     1.4601760
  O        2.4489030    -1.2526260    -0.7015720
  O        2.4238639     1.1683716    -0.6538815
  C        0.2698850     0.0000000    -0.0431290
  C       -1.8281600    -1.2204390    -0.0177060
  C       -1.8281600     1.2204390    -0.0177050
  C       -0.4294560     1.2077840    -0.0326800
  C       -0.4294570    -1.2077850    -0.0326810
  C       -2.5145250     0.0000000     0.0013750
  C       -2.5812260    -2.5268720     0.0200930
  C       -2.5812240     2.5268730     0.0200930
  H        0.1401440     2.1341360    -0.0762120
  H        0.1401420    -2.1341370    -0.0762130
  H       -3.6064350     0.0000010     0.0012720
  H       -2.0599700    -3.2944780    -0.5602250
  H       -2.6805960    -2.9020040     1.0455530
  H       -3.5901000    -2.4148770    -0.3912530
  H       -2.6805180     2.9020500     1.0455440
  H       -2.0600100     3.2944550    -0.5602960
  H       -3.5901270     2.4148600    -0.3911760
units angstrom
no_reorient  #important for SAPT in psi4, default
symmetry c1  #important for SAPT in psi4, default
}

set PROPERTIES_ORIGIN ["COM"]
properties('MP2/aug-cc-pvtz', properties = ['dipole'])
--------------------------------------------------------------------------

    Molecular point group: c1
  Charge       = -1
  Multiplicity = 1
  Basis Set: AUG-CC-PVTZ
    Blend: AUG-CC-PVTZ
  Basis Set: (AUG-CC-PVTZ AUX)
    Blend: AUG-CC-PVTZ-JKFIT

    Orbital Energies [Eh]
    ---------------------

    Doubly Occupied:

       1A    -92.001489     2A    -20.351958     3A    -20.341604
       4A    -20.340741     5A    -11.132797     6A    -11.132050
       7A    -11.130911     8A    -11.129966     9A    -11.119855
      10A    -11.117231    11A    -11.109650    12A    -11.107892
      13A     -8.964767    14A     -6.650756    15A     -6.650073
      16A     -6.649297    17A     -1.300844    18A     -1.150643
      19A     -1.118171    20A     -1.042400    21A     -0.950101
      22A     -0.919338    23A     -0.838881    24A     -0.818168
      25A     -0.725693    26A     -0.673342    27A     -0.618855
      28A     -0.566668    29A     -0.539035    30A     -0.518687
      31A     -0.483911    32A     -0.475269    33A     -0.473847
      34A     -0.471658    35A     -0.468607    36A     -0.453572
      37A     -0.448378    38A     -0.425094    39A     -0.399301
      40A     -0.370224    41A     -0.370113    42A     -0.338423
      43A     -0.338381    44A     -0.303518    45A     -0.289781
      46A     -0.266859    47A     -0.246347    48A     -0.207440
      49A     -0.206339

  @DF-RHF Final Energy:  -930.53515797443822

   => Energetics <=

    Nuclear Repulsion Energy =            819.0795059049083875
    One-Electron Energy =               -2919.7314806704853254
    Two-Electron Energy =                1170.1168167911387172
    Total Energy =                       -930.5351579744383343
  Basis Set: (AUG-CC-PVTZ AUX)
    Blend: AUG-CC-PVTZ-RI
    Molecular point group: c1

    Geometry (in Angstrom), charge = -1, multiplicity = 1:

       Center              X                  Y                   Z               Mass
    ------------   -----------------  -----------------  -----------------  -----------------
         S            1.972110176943     0.007283272967     0.003629961247    31.972071174400
         O            2.284646176943     0.007285272967     1.456253961247    15.994914619570
         O            2.344402176943    -1.245342727033    -0.705494038753    15.994914619570
         O            2.319363076943     1.175654872967    -0.657803538753    15.994914619570
         C            0.165384176943     0.007283272967    -0.047051038753    12.000000000000
         C           -1.932660823057    -1.213155727033    -0.021628038753    12.000000000000
         C           -1.932660823057     1.227722272967    -0.021627038753    12.000000000000
         C           -0.533956823057     1.215067272967    -0.036602038753    12.000000000000
         C           -0.533957823057    -1.200501727033    -0.036603038753    12.000000000000
         C           -2.619025823057     0.007283272967    -0.002547038753    12.000000000000
         C           -2.685726823057    -2.519588727033     0.016170961247    12.000000000000
         C           -2.685724823057     2.534156272967     0.016170961247    12.000000000000
         H            0.035643176943     2.141419272967    -0.080134038753     1.007825032230
         H            0.035641176943    -2.126853727033    -0.080135038753     1.007825032230
         H           -3.710935823057     0.007284272967    -0.002650038753     1.007825032230
         H           -2.164470823057    -3.287194727033    -0.564147038753     1.007825032230
         H           -2.785096823057    -2.894720727033     1.041630961247     1.007825032230
         H           -3.694600823057    -2.407593727033    -0.395175038753     1.007825032230
         H           -2.785018823057     2.909333272967     1.041621961247     1.007825032230
         H           -2.164510823057     3.301738272967    -0.564218038753     1.007825032230
         H           -3.694627823057     2.422143272967    -0.395098038753     1.007825032230

  Basis Set: AUG-CC-PVTZ
    Blend: AUG-CC-PVTZ
  Basis Set: (AUG-CC-PVTZ AUX)
    Blend: AUG-CC-PVTZ-JKFIT
	 Reference Energy          =    -930.5351579744382207 [Eh]
	 Singles Energy            =      -0.0000000000000000 [Eh]
	 Same-Spin Energy          =      -0.6251158333022375 [Eh]
	 Opposite-Spin Energy      =      -1.8631695169508187 [Eh]
	 Correlation Energy        =      -2.4882853502530562 [Eh]
	 Total Energy              =    -933.0234433246912431 [Eh]

	 ================> DF-SCS-MP2 Energies <==================
	-----------------------------------------------------------
	 SCS Same-Spin Scale       =       0.3333333333333333 [-]
	 SCS Opposite-Spin Scale   =       1.2000000000000000 [-]
	 SCS Same-Spin Energy      =      -0.2083719444340792 [Eh]
	 SCS Opposite-Spin Energy  =      -2.2358034203409822 [Eh]
	 SCS Correlation Energy    =      -2.4441753647750613 [Eh]
	 SCS Total Energy          =    -932.9793333392133263 [Eh]
	-----------------------------------------------------------

  Dipole Moment: [D]
     X:    -9.9910      Y:     0.4924      Z:    -0.3633     Total:    10.0097

*** Psi4 exiting successfully. Buy a developer a beer!
