                               Psi4 1.4a3.dev225

  ==> Input File <==

--------------------------------------------------------------------------
#psi4
#
memory 32 gb

molecule  {
-1 1
  S        2.0766110     0.0000000     0.0075520
  O        2.4449925     0.1437259     1.4398345
  O        2.4489030    -1.2526260    -0.7015720
  O        2.4489040     1.2526220    -0.7015770
  C        0.2698850     0.0000000    -0.0431290
  C       -1.8281600    -1.2204390    -0.0177060
  C       -1.8281600     1.2204390    -0.0177050
  C       -0.4294560     1.2077840    -0.0326800
  C       -0.4294570    -1.2077850    -0.0326810
  C       -2.5145250     0.0000000     0.0013750
  C       -2.5812260    -2.5268720     0.0200930
  C       -2.5812240     2.5268730     0.0200930
  H        0.1401440     2.1341360    -0.0762120
  H        0.1401420    -2.1341370    -0.0762130
  H       -3.6064350     0.0000010     0.0012720
  H       -2.0599700    -3.2944780    -0.5602250
  H       -2.6805960    -2.9020040     1.0455530
  H       -3.5901000    -2.4148770    -0.3912530
  H       -2.6805180     2.9020500     1.0455440
  H       -2.0600100     3.2944550    -0.5602960
  H       -3.5901270     2.4148600    -0.3911760
units angstrom
no_reorient  #important for SAPT in psi4, default
symmetry c1  #important for SAPT in psi4, default
}

set PROPERTIES_ORIGIN ["COM"]
properties('MP2/aug-cc-pvtz', properties = ['dipole'])
--------------------------------------------------------------------------

    Molecular point group: c1
  Charge       = -1
  Multiplicity = 1
  Basis Set: AUG-CC-PVTZ
    Blend: AUG-CC-PVTZ
  Basis Set: (AUG-CC-PVTZ AUX)
    Blend: AUG-CC-PVTZ-JKFIT

    Orbital Energies [Eh]
    ---------------------

    Doubly Occupied:

       1A    -92.012511     2A    -20.356959     3A    -20.348082
       4A    -20.339386     5A    -11.135820     6A    -11.135543
       7A    -11.133094     8A    -11.132489     9A    -11.125394
      10A    -11.124051    11A    -11.113880    12A    -11.113308
      13A     -8.973369    14A     -6.659070    15A     -6.658374
      16A     -6.658109    17A     -1.268702    18A     -1.131579
      19A     -1.113714    20A     -1.046377    21A     -0.953243
      22A     -0.923744    23A     -0.841842    24A     -0.821563
      25A     -0.731669    26A     -0.676817    27A     -0.625039
      28A     -0.568815    29A     -0.542510    30A     -0.512995
      31A     -0.486040    32A     -0.476202    33A     -0.476093
      34A     -0.463743    35A     -0.457954    36A     -0.455441
      37A     -0.451447    38A     -0.427332    39A     -0.400296
      40A     -0.373547    41A     -0.372637    42A     -0.332847
      43A     -0.325803    44A     -0.297182    45A     -0.284860
      46A     -0.270752    47A     -0.244391    48A     -0.212151
      49A     -0.209755

  @DF-RHF Final Energy:  -930.53298000633515

   => Energetics <=

    Nuclear Repulsion Energy =            813.6613549039336704
    One-Electron Energy =               -2908.7956365202512643
    Two-Electron Energy =                1164.6013016099827837
    Total Energy =                       -930.5329800063350376
  Basis Set: (AUG-CC-PVTZ AUX)
    Blend: AUG-CC-PVTZ-RI
    Molecular point group: c1

    Geometry (in Angstrom), charge = -1, multiplicity = 1:

       Center              X                  Y                   Z               Mass
    ------------   -----------------  -----------------  -----------------  -----------------
         S            1.965117918594    -0.012424254734     0.009511506062    31.972071174400
         O            2.333499418594     0.131301645266     1.441794006062    15.994914619570
         O            2.337409918594    -1.265050254734    -0.699612493938    15.994914619570
         O            2.337410918594     1.240197745266    -0.699617493938    15.994914619570
         C            0.158391918594    -0.012424254734    -0.041169493938    12.000000000000
         C           -1.939653081406    -1.232863254734    -0.015746493938    12.000000000000
         C           -1.939653081406     1.208014745266    -0.015745493938    12.000000000000
         C           -0.540949081406     1.195359745266    -0.030720493938    12.000000000000
         C           -0.540950081406    -1.220209254734    -0.030721493938    12.000000000000
         C           -2.626018081406    -0.012424254734     0.003334506062    12.000000000000
         C           -2.692719081406    -2.539296254734     0.022052506062    12.000000000000
         C           -2.692717081406     2.514448745266     0.022052506062    12.000000000000
         H            0.028650918594     2.121711745266    -0.074252493938     1.007825032230
         H            0.028648918594    -2.146561254734    -0.074253493938     1.007825032230
         H           -3.717928081406    -0.012423254734     0.003231506062     1.007825032230
         H           -2.171463081406    -3.306902254734    -0.558265493938     1.007825032230
         H           -2.792089081406    -2.914428254734     1.047512506062     1.007825032230
         H           -3.701593081406    -2.427301254734    -0.389293493938     1.007825032230
         H           -2.792011081406     2.889625745266     1.047503506062     1.007825032230
         H           -2.171503081406     3.282030745266    -0.558336493938     1.007825032230
         H           -3.701620081406     2.402435745266    -0.389216493938     1.007825032230

  Basis Set: AUG-CC-PVTZ
    Blend: AUG-CC-PVTZ
  Basis Set: (AUG-CC-PVTZ AUX)
    Blend: AUG-CC-PVTZ-JKFIT
	 Reference Energy          =    -930.5329800063351513 [Eh]
	 Singles Energy            =      -0.0000000000000000 [Eh]
	 Same-Spin Energy          =      -0.6272650129668559 [Eh]
	 Opposite-Spin Energy      =      -1.8686184527827039 [Eh]
	 Correlation Energy        =      -2.4958834657495599 [Eh]
	 Total Energy              =    -933.0288634720847085 [Eh]

	 ================> DF-SCS-MP2 Energies <==================
	-----------------------------------------------------------
	 SCS Same-Spin Scale       =       0.3333333333333333 [-]
	 SCS Opposite-Spin Scale   =       1.2000000000000000 [-]
	 SCS Same-Spin Energy      =      -0.2090883376556186 [Eh]
	 SCS Opposite-Spin Energy  =      -2.2423421433392448 [Eh]
	 SCS Correlation Energy    =      -2.4514304809948633 [Eh]
	 SCS Total Energy          =    -932.9844104873300239 [Eh]
	-----------------------------------------------------------

  Dipole Moment: [D]
     X:   -10.5105      Y:    -0.3295      Z:    -0.0304     Total:    10.5157

*** Psi4 exiting successfully. Buy a developer a beer!
