                               Psi4 1.4a3.dev225

  ==> Input File <==

--------------------------------------------------------------------------
#psi4
#
memory 32 gb

molecule  {
-1 1
  S        2.0766110     0.0000000     0.0075520
  O        2.3697395    -0.0479839     1.4634258
  O        2.4489030    -1.2526260    -0.7015720
  O        2.4489040     1.2526220    -0.7015770
  C        0.2698850     0.0000000    -0.0431290
  C       -1.8281600    -1.2204390    -0.0177060
  C       -1.8281600     1.2204390    -0.0177050
  C       -0.4294560     1.2077840    -0.0326800
  C       -0.4294570    -1.2077850    -0.0326810
  C       -2.5145250     0.0000000     0.0013750
  C       -2.5812260    -2.5268720     0.0200930
  C       -2.5812240     2.5268730     0.0200930
  H        0.1401440     2.1341360    -0.0762120
  H        0.1401420    -2.1341370    -0.0762130
  H       -3.6064350     0.0000010     0.0012720
  H       -2.0599700    -3.2944780    -0.5602250
  H       -2.6805960    -2.9020040     1.0455530
  H       -3.5901000    -2.4148770    -0.3912530
  H       -2.6805180     2.9020500     1.0455440
  H       -2.0600100     3.2944550    -0.5602960
  H       -3.5901270     2.4148600    -0.3911760
units angstrom
no_reorient  #important for SAPT in psi4, default
symmetry c1  #important for SAPT in psi4, default
}

set PROPERTIES_ORIGIN ["COM"]
properties('MP2/aug-cc-pvtz', properties = ['dipole'])
--------------------------------------------------------------------------

    Molecular point group: c1
  Charge       = -1
  Multiplicity = 1
  Basis Set: AUG-CC-PVTZ
    Blend: AUG-CC-PVTZ
  Basis Set: (AUG-CC-PVTZ AUX)
    Blend: AUG-CC-PVTZ-JKFIT

    Orbital Energies [Eh]
    ---------------------

    Doubly Occupied:

       1A    -92.014236     2A    -20.354355     3A    -20.350313
       4A    -20.348609     5A    -11.134118     6A    -11.134016
       7A    -11.131682     8A    -11.131480     9A    -11.122511
      10A    -11.121859    11A    -11.111347    12A    -11.111149
      13A     -8.974941    14A     -6.660657    15A     -6.659888
      16A     -6.659762    17A     -1.270186    18A     -1.129041
      19A     -1.123105    20A     -1.044408    21A     -0.951649
      22A     -0.921642    23A     -0.840330    24A     -0.819897
      25A     -0.729591    26A     -0.675106    27A     -0.624616
      28A     -0.567443    29A     -0.540865    30A     -0.513615
      31A     -0.484770    32A     -0.474951    33A     -0.474862
      34A     -0.464035    35A     -0.461299    36A     -0.454539
      37A     -0.449855    38A     -0.425981    39A     -0.398945
      40A     -0.371797    41A     -0.371540    42A     -0.332612
      43A     -0.330370    44A     -0.297665    45A     -0.290609
      46A     -0.268852    47A     -0.249308    48A     -0.209781
      49A     -0.208231

  @DF-RHF Final Energy:  -930.53516900196507

   => Energetics <=

    Nuclear Repulsion Energy =            814.2382142787455450
    One-Electron Energy =               -2909.9619273226339828
    Two-Electron Energy =                1165.1885440419232509
    Total Energy =                       -930.5351690019651869
  Basis Set: (AUG-CC-PVTZ AUX)
    Blend: AUG-CC-PVTZ-RI
    Molecular point group: c1

    Geometry (in Angstrom), charge = -1, multiplicity = 1:

       Center              X                  Y                   Z               Mass
    ------------   -----------------  -----------------  -----------------  -----------------
         S            1.971623259687     0.004148342239     0.007472126192    31.972071174400
         O            2.264751759687    -0.043835557761     1.463345926192    15.994914619570
         O            2.343915259687    -1.248477657761    -0.701651873808    15.994914619570
         O            2.343916259687     1.256770342239    -0.701656873808    15.994914619570
         C            0.164897259687     0.004148342239    -0.043208873808    12.000000000000
         C           -1.933147740313    -1.216290657761    -0.017785873808    12.000000000000
         C           -1.933147740313     1.224587342239    -0.017784873808    12.000000000000
         C           -0.534443740313     1.211932342239    -0.032759873808    12.000000000000
         C           -0.534444740313    -1.203636657761    -0.032760873808    12.000000000000
         C           -2.619512740313     0.004148342239     0.001295126192    12.000000000000
         C           -2.686213740313    -2.522723657761     0.020013126192    12.000000000000
         C           -2.686211740313     2.531021342239     0.020013126192    12.000000000000
         H            0.035156259687     2.138284342239    -0.076291873808     1.007825032230
         H            0.035154259687    -2.129988657761    -0.076292873808     1.007825032230
         H           -3.711422740313     0.004149342239     0.001192126192     1.007825032230
         H           -2.164957740313    -3.290329657761    -0.560304873808     1.007825032230
         H           -2.785583740313    -2.897855657761     1.045473126192     1.007825032230
         H           -3.695087740313    -2.410728657761    -0.391332873808     1.007825032230
         H           -2.785505740313     2.906198342239     1.045464126192     1.007825032230
         H           -2.164997740313     3.298603342239    -0.560375873808     1.007825032230
         H           -3.695114740313     2.419008342239    -0.391255873808     1.007825032230

  Basis Set: AUG-CC-PVTZ
    Blend: AUG-CC-PVTZ
  Basis Set: (AUG-CC-PVTZ AUX)
    Blend: AUG-CC-PVTZ-JKFIT
	 Reference Energy          =    -930.5351690019650732 [Eh]
	 Singles Energy            =      -0.0000000000000000 [Eh]
	 Same-Spin Energy          =      -0.6273524379039535 [Eh]
	 Opposite-Spin Energy      =      -1.8688035948775954 [Eh]
	 Correlation Energy        =      -2.4961560327815491 [Eh]
	 Total Energy              =    -933.0313250347466010 [Eh]

	 ================> DF-SCS-MP2 Energies <==================
	-----------------------------------------------------------
	 SCS Same-Spin Scale       =       0.3333333333333333 [-]
	 SCS Opposite-Spin Scale   =       1.2000000000000000 [-]
	 SCS Same-Spin Energy      =      -0.2091174793013178 [Eh]
	 SCS Opposite-Spin Energy  =      -2.2425643138531144 [Eh]
	 SCS Correlation Energy    =      -2.4516817931544321 [Eh]
	 SCS Total Energy          =    -932.9868507951194943 [Eh]
	-----------------------------------------------------------

  Dipole Moment: [D]
     X:   -10.2227      Y:     0.1091      Z:    -0.0728     Total:    10.2235

*** Psi4 exiting successfully. Buy a developer a beer!
