                               Psi4 1.4a3.dev225

  ==> Input File <==

--------------------------------------------------------------------------
#psi4
#
memory 32 gb

molecule  {
-1 1
  S        2.0766110     0.0000000     0.0075520
  O        2.3891470     0.0000020     1.4601760
  O        2.4489030    -1.2526260    -0.7015720
  O        2.4489040     1.2526220    -0.7015770
  C        0.3921238    -0.0796768    -0.0502870
  C       -1.8281600    -1.2204390    -0.0177060
  C       -1.8281600     1.2204390    -0.0177050
  C       -0.4294560     1.2077840    -0.0326800
  C       -0.4294570    -1.2077850    -0.0326810
  C       -2.5145250     0.0000000     0.0013750
  C       -2.5812260    -2.5268720     0.0200930
  C       -2.5812240     2.5268730     0.0200930
  H        0.1401440     2.1341360    -0.0762120
  H        0.1401420    -2.1341370    -0.0762130
  H       -3.6064350     0.0000010     0.0012720
  H       -2.0599700    -3.2944780    -0.5602250
  H       -2.6805960    -2.9020040     1.0455530
  H       -3.5901000    -2.4148770    -0.3912530
  H       -2.6805180     2.9020500     1.0455440
  H       -2.0600100     3.2944550    -0.5602960
  H       -3.5901270     2.4148600    -0.3911760
units angstrom
no_reorient  #important for SAPT in psi4, default
symmetry c1  #important for SAPT in psi4, default
}

set PROPERTIES_ORIGIN ["COM"]
properties('MP2/aug-cc-pvtz', properties = ['dipole'])
--------------------------------------------------------------------------

    Molecular point group: c1
  Charge       = -1
  Multiplicity = 1
  Basis Set: AUG-CC-PVTZ
    Blend: AUG-CC-PVTZ
  Basis Set: (AUG-CC-PVTZ AUX)
    Blend: AUG-CC-PVTZ-JKFIT

    Orbital Energies [Eh]
    ---------------------

    Doubly Occupied:

       1A    -92.013021     2A    -20.353179     3A    -20.350207
       4A    -20.346477     5A    -11.136691     6A    -11.133914
       7A    -11.133350     8A    -11.132443     9A    -11.132348
      10A    -11.126716    11A    -11.126202    12A    -11.115838
      13A     -8.975278    14A     -6.661338    15A     -6.660129
      16A     -6.660043    17A     -1.274704    18A     -1.127829
      19A     -1.125260    20A     -1.038591    21A     -0.951947
      22A     -0.919824    23A     -0.842766    24A     -0.813688
      25A     -0.753739    26A     -0.674156    27A     -0.626972
      28A     -0.563081    29A     -0.537485    30A     -0.523929
      31A     -0.485391    32A     -0.475721    33A     -0.474674
      34A     -0.466285    35A     -0.462861    36A     -0.454471
      37A     -0.447502    38A     -0.421255    39A     -0.402574
      40A     -0.366721    41A     -0.356342    42A     -0.332088
      43A     -0.330327    44A     -0.299083    45A     -0.292267
      46A     -0.281815    47A     -0.248558    48A     -0.213884
      49A     -0.197166

  @DF-RHF Final Energy:  -930.51005813019708

   => Energetics <=

    Nuclear Repulsion Energy =            814.7450988464121338
    One-Electron Energy =               -2910.8300544757148600
    Two-Electron Energy =                1165.5748974991056457
    Total Energy =                       -930.5100581301971943
  Basis Set: (AUG-CC-PVTZ AUX)
    Blend: AUG-CC-PVTZ-RI
    Molecular point group: c1

    Geometry (in Angstrom), charge = -1, multiplicity = 1:

       Center              X                  Y                   Z               Mass
    ------------   -----------------  -----------------  -----------------  -----------------
         S            1.962017717809     0.005167604193     0.008217293624    31.972071174400
         O            2.274553717809     0.005169604193     1.460841293624    15.994914619570
         O            2.334309717809    -1.247458395807    -0.700906706376    15.994914619570
         O            2.334310717809     1.257789604193    -0.700911706376    15.994914619570
         C            0.277530517809    -0.074509195807    -0.049621706376    12.000000000000
         C           -1.942753282191    -1.215271395807    -0.017040706376    12.000000000000
         C           -1.942753282191     1.225606604193    -0.017039706376    12.000000000000
         C           -0.544049282191     1.212951604193    -0.032014706376    12.000000000000
         C           -0.544050282191    -1.202617395807    -0.032015706376    12.000000000000
         C           -2.629118282191     0.005167604193     0.002040293624    12.000000000000
         C           -2.695819282191    -2.521704395807     0.020758293624    12.000000000000
         C           -2.695817282191     2.532040604193     0.020758293624    12.000000000000
         H            0.025550717809     2.139303604193    -0.075546706376     1.007825032230
         H            0.025548717809    -2.128969395807    -0.075547706376     1.007825032230
         H           -3.721028282191     0.005168604193     0.001937293624     1.007825032230
         H           -2.174563282191    -3.289310395807    -0.559559706376     1.007825032230
         H           -2.795189282191    -2.896836395807     1.046218293624     1.007825032230
         H           -3.704693282191    -2.409709395807    -0.390587706376     1.007825032230
         H           -2.795111282191     2.907217604193     1.046209293624     1.007825032230
         H           -2.174603282191     3.299622604193    -0.559630706376     1.007825032230
         H           -3.704720282191     2.420027604193    -0.390510706376     1.007825032230

  Basis Set: AUG-CC-PVTZ
    Blend: AUG-CC-PVTZ
  Basis Set: (AUG-CC-PVTZ AUX)
    Blend: AUG-CC-PVTZ-JKFIT
	 Reference Energy          =    -930.5100581301970806 [Eh]
	 Singles Energy            =      -0.0000000000000000 [Eh]
	 Same-Spin Energy          =      -0.6285123956615790 [Eh]
	 Opposite-Spin Energy      =      -1.8718193439371413 [Eh]
	 Correlation Energy        =      -2.5003317395987201 [Eh]
	 Total Energy              =    -933.0103898697957447 [Eh]

	 ================> DF-SCS-MP2 Energies <==================
	-----------------------------------------------------------
	 SCS Same-Spin Scale       =       0.3333333333333333 [-]
	 SCS Opposite-Spin Scale   =       1.2000000000000000 [-]
	 SCS Same-Spin Energy      =      -0.2095041318871930 [Eh]
	 SCS Opposite-Spin Energy  =      -2.2461832127245693 [Eh]
	 SCS Correlation Energy    =      -2.4556873446117624 [Eh]
	 SCS Total Energy          =    -932.9657454748088412 [Eh]
	-----------------------------------------------------------

  Dipole Moment: [D]
     X:   -10.3528      Y:     0.0292      Z:    -0.0467     Total:    10.3530

*** Psi4 exiting successfully. Buy a developer a beer!
