                               Psi4 1.4a3.dev225

  ==> Input File <==

--------------------------------------------------------------------------
#psi4
#
memory 32 gb

molecule  {
-1 1
  S        2.0766110     0.0000000     0.0075520
  O        2.3891470     0.0000020     1.4601760
  O        2.4489030    -1.2526260    -0.7015720
  O        2.4489040     1.2526220    -0.7015770
  C        0.2698850     0.0000000    -0.0431290
  C       -1.8281600    -1.2204390    -0.0177060
  C       -1.8281600     1.2204390    -0.0177050
  C       -0.4294560     1.2077840    -0.0326800
  C       -0.4294570    -1.2077850    -0.0326810
  C       -2.5145250     0.0000000     0.0013750
  C       -2.5812260    -2.5268720     0.0200930
  C       -2.5812240     2.5268730     0.0200930
  H        0.1506114     2.1511593    -0.0770120
  H        0.1401420    -2.1341370    -0.0762130
  H       -3.6064350     0.0000010     0.0012720
  H       -2.0599700    -3.2944780    -0.5602250
  H       -2.6805960    -2.9020040     1.0455530
  H       -3.5901000    -2.4148770    -0.3912530
  H       -2.6805180     2.9020500     1.0455440
  H       -2.0600100     3.2944550    -0.5602960
  H       -3.5901270     2.4148600    -0.3911760
units angstrom
no_reorient  #important for SAPT in psi4, default
symmetry c1  #important for SAPT in psi4, default
}

set PROPERTIES_ORIGIN ["COM"]
properties('MP2/aug-cc-pvtz', properties = ['dipole'])
--------------------------------------------------------------------------

    Molecular point group: c1
  Charge       = -1
  Multiplicity = 1
  Basis Set: AUG-CC-PVTZ
    Blend: AUG-CC-PVTZ
  Basis Set: (AUG-CC-PVTZ AUX)
    Blend: AUG-CC-PVTZ-JKFIT

    Orbital Energies [Eh]
    ---------------------

    Doubly Occupied:

       1A    -92.013885     2A    -20.350790     3A    -20.350748
       4A    -20.349922     5A    -11.134616     6A    -11.134517
       7A    -11.131927     8A    -11.131839     9A    -11.123378
      10A    -11.122527    11A    -11.114012    12A    -11.111974
      13A     -8.974606    14A     -6.660322    15A     -6.659533
      16A     -6.659449    17A     -1.269769    18A     -1.126325
      19A     -1.124485    20A     -1.044893    21A     -0.951915
      22A     -0.922099    23A     -0.840676    24A     -0.819742
      25A     -0.729999    26A     -0.674890    27A     -0.624673
      28A     -0.566083    29A     -0.541307    30A     -0.513228
      31A     -0.485081    32A     -0.475245    33A     -0.474914
      34A     -0.463205    35A     -0.461298    36A     -0.454551
      37A     -0.449141    38A     -0.426184    39A     -0.398981
      40A     -0.371921    41A     -0.371445    42A     -0.331357
      43A     -0.330449    44A     -0.296500    45A     -0.290430
      46A     -0.269462    47A     -0.248742    48A     -0.210491
      49A     -0.208740

  @DF-RHF Final Energy:  -930.53500570677227

   => Energetics <=

    Nuclear Repulsion Energy =            813.9566013478613513
    One-Electron Energy =               -2909.3986779816796115
    Two-Electron Energy =                1164.9070709270458792
    Total Energy =                       -930.5350057067721536
  Basis Set: (AUG-CC-PVTZ AUX)
    Blend: AUG-CC-PVTZ-RI
    Molecular point group: c1

    Geometry (in Angstrom), charge = -1, multiplicity = 1:

       Center              X                  Y                   Z               Mass
    ------------   -----------------  -----------------  -----------------  -----------------
         S            1.969888538828    -0.000092584016     0.007757416798    31.972071174400
         O            2.282424538828    -0.000090584016     1.460381416798    15.994914619570
         O            2.342180538828    -1.252718584016    -0.701366583202    15.994914619570
         O            2.342181538828     1.252529415984    -0.701371583202    15.994914619570
         C            0.163162538828    -0.000092584016    -0.042923583202    12.000000000000
         C           -1.934882461172    -1.220531584016    -0.017500583202    12.000000000000
         C           -1.934882461172     1.220346415984    -0.017499583202    12.000000000000
         C           -0.536178461172     1.207691415984    -0.032474583202    12.000000000000
         C           -0.536179461172    -1.207877584016    -0.032475583202    12.000000000000
         C           -2.621247461172    -0.000092584016     0.001580416798    12.000000000000
         C           -2.687948461172    -2.526964584016     0.020298416798    12.000000000000
         C           -2.687946461172     2.526780415984     0.020298416798    12.000000000000
         H            0.043888938828     2.151066715984    -0.076806583202     1.007825032230
         H            0.033419538828    -2.134229584016    -0.076007583202     1.007825032230
         H           -3.713157461172    -0.000091584016     0.001477416798     1.007825032230
         H           -2.166692461172    -3.294570584016    -0.560019583202     1.007825032230
         H           -2.787318461172    -2.902096584016     1.045758416798     1.007825032230
         H           -3.696822461172    -2.414969584016    -0.391047583202     1.007825032230
         H           -2.787240461172     2.901957415984     1.045749416798     1.007825032230
         H           -2.166732461172     3.294362415984    -0.560090583202     1.007825032230
         H           -3.696849461172     2.414767415984    -0.390970583202     1.007825032230

  Basis Set: AUG-CC-PVTZ
    Blend: AUG-CC-PVTZ
  Basis Set: (AUG-CC-PVTZ AUX)
    Blend: AUG-CC-PVTZ-JKFIT
	 Reference Energy          =    -930.5350057067722673 [Eh]
	 Singles Energy            =      -0.0000000000000000 [Eh]
	 Same-Spin Energy          =      -0.6273576399678079 [Eh]
	 Opposite-Spin Energy      =      -1.8688438756778598 [Eh]
	 Correlation Energy        =      -2.4962015156456676 [Eh]
	 Total Energy              =    -933.0312072224179474 [Eh]

	 ================> DF-SCS-MP2 Energies <==================
	-----------------------------------------------------------
	 SCS Same-Spin Scale       =       0.3333333333333333 [-]
	 SCS Opposite-Spin Scale   =       1.2000000000000000 [-]
	 SCS Same-Spin Energy      =      -0.2091192133226026 [Eh]
	 SCS Opposite-Spin Energy  =      -2.2426126508134319 [Eh]
	 SCS Correlation Energy    =      -2.4517318641360344 [Eh]
	 SCS Total Energy          =    -932.9867375709083035 [Eh]
	-----------------------------------------------------------

  Dipole Moment: [D]
     X:   -10.2931      Y:    -0.0038      Z:    -0.0686     Total:    10.2933

*** Psi4 exiting successfully. Buy a developer a beer!
