                               Psi4 1.4a3.dev225

  ==> Input File <==

--------------------------------------------------------------------------
#psi4
#
memory 32 gb

molecule  {
-1 1
  S        2.0766110     0.0000000     0.0075520
  O        2.3891470     0.0000020     1.4601760
  O        2.4489030    -1.2526260    -0.7015720
  O        2.4489040     1.2526220    -0.7015770
  C        0.2698850     0.0000000    -0.0431290
  C       -1.8281600    -1.2204390    -0.0177060
  C       -1.8281600     1.2204390    -0.0177050
  C       -0.4294560     1.2077840    -0.0326800
  C       -0.4294570    -1.2077850    -0.0326810
  C       -2.5145250     0.0000000     0.0013750
  C       -2.5812260    -2.5268720     0.0200930
  C       -2.5812240     2.5268730     0.0200930
  H        0.1401440     2.1341360    -0.0762120
  H        0.1401420    -2.1341370    -0.0762130
  H       -3.6064350     0.0000010     0.0012720
  H       -2.0599700    -3.2944780    -0.5602250
  H       -2.6624700    -2.8335763     0.8584993
  H       -3.5901000    -2.4148770    -0.3912530
  H       -2.6805180     2.9020500     1.0455440
  H       -2.0600100     3.2944550    -0.5602960
  H       -3.5901270     2.4148600    -0.3911760
units angstrom
no_reorient  #important for SAPT in psi4, default
symmetry c1  #important for SAPT in psi4, default
}

set PROPERTIES_ORIGIN ["COM"]
properties('MP2/aug-cc-pvtz', properties = ['dipole'])
--------------------------------------------------------------------------

    Molecular point group: c1
  Charge       = -1
  Multiplicity = 1
  Basis Set: AUG-CC-PVTZ
    Blend: AUG-CC-PVTZ
  Basis Set: (AUG-CC-PVTZ AUX)
    Blend: AUG-CC-PVTZ-JKFIT

    Orbital Energies [Eh]
    ---------------------

    Doubly Occupied:

       1A    -92.013546     2A    -20.350478     3A    -20.350451
       4A    -20.349647     5A    -11.133976     6A    -11.133286
       7A    -11.131529     8A    -11.122761     9A    -11.121636
      10A    -11.111206    11A    -11.111106    12A    -11.106815
      13A     -8.974270    14A     -6.659983    15A     -6.659198
      16A     -6.659115    17A     -1.269468    18A     -1.126020
      19A     -1.124206    20A     -1.045024    21A     -0.957659
      22A     -0.924428    23A     -0.853180    24A     -0.824506
      25A     -0.730028    26A     -0.679200    27A     -0.625319
      28A     -0.568732    29A     -0.540478    30A     -0.517716
      31A     -0.512550    32A     -0.479879    33A     -0.474211
      34A     -0.463096    35A     -0.460959    36A     -0.453796
      37A     -0.449568    38A     -0.425419    39A     -0.398621
      40A     -0.374118    41A     -0.371265    42A     -0.331086
      43A     -0.330239    44A     -0.296377    45A     -0.290173
      46A     -0.269049    47A     -0.248460    48A     -0.210204
      49A     -0.208868

  @DF-RHF Final Energy:  -930.50235953483104

   => Energetics <=

    Nuclear Repulsion Energy =            815.0853956771961748
    One-Electron Energy =               -2911.5297037971099599
    Two-Electron Energy =                1165.9419485850826277
    Total Energy =                       -930.5023595348311574
  Basis Set: (AUG-CC-PVTZ AUX)
    Blend: AUG-CC-PVTZ-RI
    Molecular point group: c1

    Geometry (in Angstrom), charge = -1, multiplicity = 1:

       Center              X                  Y                   Z               Mass
    ------------   -----------------  -----------------  -----------------  -----------------
         S            1.969846823194    -0.000372578686     0.008771922235    31.972071174400
         O            2.282382823194    -0.000370578686     1.461395922235    15.994914619570
         O            2.342138823194    -1.252998578686    -0.700352077765    15.994914619570
         O            2.342139823194     1.252249421314    -0.700357077765    15.994914619570
         C            0.163120823194    -0.000372578686    -0.041909077765    12.000000000000
         C           -1.934924176806    -1.220811578686    -0.016486077765    12.000000000000
         C           -1.934924176806     1.220066421314    -0.016485077765    12.000000000000
         C           -0.536220176806     1.207411421314    -0.031460077765    12.000000000000
         C           -0.536221176806    -1.208157578686    -0.031461077765    12.000000000000
         C           -2.621289176806    -0.000372578686     0.002594922235    12.000000000000
         C           -2.687990176806    -2.527244578686     0.021312922235    12.000000000000
         C           -2.687988176806     2.526500421314     0.021312922235    12.000000000000
         H            0.033379823194     2.133763421314    -0.074992077765     1.007825032230
         H            0.033377823194    -2.134509578686    -0.074993077765     1.007825032230
         H           -3.713199176806    -0.000371578686     0.002491922235     1.007825032230
         H           -2.166734176806    -3.294850578686    -0.559005077765     1.007825032230
         H           -2.769234176806    -2.833948878686     0.859719222235     1.007825032230
         H           -3.696864176806    -2.415249578686    -0.390033077765     1.007825032230
         H           -2.787282176806     2.901677421314     1.046763922235     1.007825032230
         H           -2.166774176806     3.294082421314    -0.559076077765     1.007825032230
         H           -3.696891176806     2.414487421314    -0.389956077765     1.007825032230

  Basis Set: AUG-CC-PVTZ
    Blend: AUG-CC-PVTZ
  Basis Set: (AUG-CC-PVTZ AUX)
    Blend: AUG-CC-PVTZ-JKFIT
	 Reference Energy          =    -930.5023595348310437 [Eh]
	 Singles Energy            =      -0.0000000000000000 [Eh]
	 Same-Spin Energy          =      -0.6274157661214697 [Eh]
	 Opposite-Spin Energy      =      -1.8680600345874891 [Eh]
	 Correlation Energy        =      -2.4954758007089586 [Eh]
	 Total Energy              =    -932.9978353355400031 [Eh]

	 ================> DF-SCS-MP2 Energies <==================
	-----------------------------------------------------------
	 SCS Same-Spin Scale       =       0.3333333333333333 [-]
	 SCS Opposite-Spin Scale   =       1.2000000000000000 [-]
	 SCS Same-Spin Energy      =      -0.2091385887071565 [Eh]
	 SCS Opposite-Spin Energy  =      -2.2416720415049869 [Eh]
	 SCS Correlation Energy    =      -2.4508106302121435 [Eh]
	 SCS Total Energy          =    -932.9531701650431614 [Eh]
	-----------------------------------------------------------

  Dipole Moment: [D]
     X:   -10.3422      Y:    -0.0793      Z:    -0.0091     Total:    10.3425

*** Psi4 exiting successfully. Buy a developer a beer!
