                               Psi4 1.4a3.dev225

  ==> Input File <==

--------------------------------------------------------------------------
#psi4
#
memory 32 gb

molecule  {
-1 1
  S        2.0766110     0.0000000     0.0075520
  O        2.3891470     0.0000020     1.4601760
  O        2.4489030    -1.2526260    -0.7015720
  O        2.4489040     1.2526220    -0.7015770
  C        0.2698850     0.0000000    -0.0431290
  C       -1.8281600    -1.2204390    -0.0177060
  C       -1.8478099     1.2231849    -0.1743417
  C       -0.4294560     1.2077840    -0.0326800
  C       -0.4294570    -1.2077850    -0.0326810
  C       -2.5145250     0.0000000     0.0013750
  C       -2.5812260    -2.5268720     0.0200930
  C       -2.5812240     2.5268730     0.0200930
  H        0.1401440     2.1341360    -0.0762120
  H        0.1401420    -2.1341370    -0.0762130
  H       -3.6064350     0.0000010     0.0012720
  H       -2.0599700    -3.2944780    -0.5602250
  H       -2.6805960    -2.9020040     1.0455530
  H       -3.5901000    -2.4148770    -0.3912530
  H       -2.6805180     2.9020500     1.0455440
  H       -2.0600100     3.2944550    -0.5602960
  H       -3.5901270     2.4148600    -0.3911760
units angstrom
no_reorient  #important for SAPT in psi4, default
symmetry c1  #important for SAPT in psi4, default
}

set PROPERTIES_ORIGIN ["COM"]
properties('MP2/aug-cc-pvtz', properties = ['dipole'])
--------------------------------------------------------------------------

    Molecular point group: c1
  Charge       = -1
  Multiplicity = 1
  Basis Set: AUG-CC-PVTZ
    Blend: AUG-CC-PVTZ
  Basis Set: (AUG-CC-PVTZ AUX)
    Blend: AUG-CC-PVTZ-JKFIT

    Orbital Energies [Eh]
    ---------------------

    Doubly Occupied:

       1A    -92.014020     2A    -20.351418     3A    -20.350951
       4A    -20.349605     5A    -11.136465     6A    -11.134412
       7A    -11.132101     8A    -11.131587     9A    -11.124664
      10A    -11.123055    11A    -11.116292    12A    -11.114369
      13A     -8.974757    14A     -6.660468    15A     -6.659686
      16A     -6.659601    17A     -1.269972    18A     -1.126689
      19A     -1.124519    20A     -1.043471    21A     -0.950884
      22A     -0.922724    23A     -0.840497    24A     -0.818820
      25A     -0.728304    26A     -0.676490    27A     -0.624398
      28A     -0.567816    29A     -0.539999    30A     -0.513816
      31A     -0.487046    32A     -0.479995    33A     -0.469570
      34A     -0.463523    35A     -0.461447    36A     -0.454832
      37A     -0.446375    38A     -0.425299    39A     -0.395059
      40A     -0.377068    41A     -0.367135    42A     -0.331477
      43A     -0.330778    44A     -0.296646    45A     -0.290870
      46A     -0.269399    47A     -0.248904    48A     -0.211496
      49A     -0.206825

  @DF-RHF Final Energy:  -930.52485564385688

   => Energetics <=

    Nuclear Repulsion Energy =            813.4791595646225915
    One-Electron Energy =               -2908.4168453812185362
    Two-Electron Energy =                1164.4128301727391772
    Total Energy =                       -930.5248556438568812
  Basis Set: (AUG-CC-PVTZ AUX)
    Blend: AUG-CC-PVTZ-RI
    Molecular point group: c1

    Geometry (in Angstrom), charge = -1, multiplicity = 1:

       Center              X                  Y                   Z               Mass
    ------------   -----------------  -----------------  -----------------  -----------------
         S            1.971219954177    -0.000177945999     0.017911781835    31.972071174400
         O            2.283755954177    -0.000175945999     1.470535781835    15.994914619570
         O            2.343511954177    -1.252803945999    -0.691212218165    15.994914619570
         O            2.343512954177     1.252444054001    -0.691217218165    15.994914619570
         C            0.164493954177    -0.000177945999    -0.032769218165    12.000000000000
         C           -1.933551045823    -1.220616945999    -0.007346218165    12.000000000000
         C           -1.953200945823     1.223006954001    -0.163981918165    12.000000000000
         C           -0.534847045823     1.207606054001    -0.022320218165    12.000000000000
         C           -0.534848045823    -1.207962945999    -0.022321218165    12.000000000000
         C           -2.619916045823    -0.000177945999     0.011734781835    12.000000000000
         C           -2.686617045823    -2.527049945999     0.030452781835    12.000000000000
         C           -2.686615045823     2.526695054001     0.030452781835    12.000000000000
         H            0.034752954177     2.133958054001    -0.065852218165     1.007825032230
         H            0.034750954177    -2.134314945999    -0.065853218165     1.007825032230
         H           -3.711826045823    -0.000176945999     0.011631781835     1.007825032230
         H           -2.165361045823    -3.294655945999    -0.549865218165     1.007825032230
         H           -2.785987045823    -2.902181945999     1.055912781835     1.007825032230
         H           -3.695491045823    -2.415054945999    -0.380893218165     1.007825032230
         H           -2.785909045823     2.901872054001     1.055903781835     1.007825032230
         H           -2.165401045823     3.294277054001    -0.549936218165     1.007825032230
         H           -3.695518045823     2.414682054001    -0.380816218165     1.007825032230

  Basis Set: AUG-CC-PVTZ
    Blend: AUG-CC-PVTZ
  Basis Set: (AUG-CC-PVTZ AUX)
    Blend: AUG-CC-PVTZ-JKFIT
	 Reference Energy          =    -930.5248556438568812 [Eh]
	 Singles Energy            =      -0.0000000000000000 [Eh]
	 Same-Spin Energy          =      -0.6278127976295621 [Eh]
	 Opposite-Spin Energy      =      -1.8701497052593585 [Eh]
	 Correlation Energy        =      -2.4979625028889205 [Eh]
	 Total Energy              =    -933.0228181467457489 [Eh]

	 ================> DF-SCS-MP2 Energies <==================
	-----------------------------------------------------------
	 SCS Same-Spin Scale       =       0.3333333333333333 [-]
	 SCS Opposite-Spin Scale   =       1.2000000000000000 [-]
	 SCS Same-Spin Energy      =      -0.2092709325431873 [Eh]
	 SCS Opposite-Spin Energy  =      -2.2441796463112302 [Eh]
	 SCS Correlation Energy    =      -2.4534505788544174 [Eh]
	 SCS Total Energy          =    -932.9783062227113533 [Eh]
	-----------------------------------------------------------

  Dipole Moment: [D]
     X:   -10.2365      Y:    -0.0949      Z:    -0.0334     Total:    10.2370

*** Psi4 exiting successfully. Buy a developer a beer!
