                               Psi4 1.4a3.dev225

  ==> Input File <==

--------------------------------------------------------------------------
#psi4
#
memory 32 gb

molecule  {
-1 1
  S        2.0766110     0.0000000     0.0075520
  O        2.3891470     0.0000020     1.4601760
  O        2.4489030    -1.2526260    -0.7015720
  O        2.3988237     1.0841212    -0.6061860
  C        0.2698850     0.0000000    -0.0431290
  C       -1.8281600    -1.2204390    -0.0177060
  C       -1.8281600     1.2204390    -0.0177050
  C       -0.4294560     1.2077840    -0.0326800
  C       -0.4294570    -1.2077850    -0.0326810
  C       -2.5145250     0.0000000     0.0013750
  C       -2.5812260    -2.5268720     0.0200930
  C       -2.5812240     2.5268730     0.0200930
  H        0.1401440     2.1341360    -0.0762120
  H        0.1401420    -2.1341370    -0.0762130
  H       -3.6064350     0.0000010     0.0012720
  H       -2.0599700    -3.2944780    -0.5602250
  H       -2.6805960    -2.9020040     1.0455530
  H       -3.5901000    -2.4148770    -0.3912530
  H       -2.6805180     2.9020500     1.0455440
  H       -2.0600100     3.2944550    -0.5602960
  H       -3.5901270     2.4148600    -0.3911760
units angstrom
no_reorient  #important for SAPT in psi4, default
symmetry c1  #important for SAPT in psi4, default
}

set PROPERTIES_ORIGIN ["COM"]
properties('MP2/aug-cc-pvtz', properties = ['dipole'])
--------------------------------------------------------------------------

    Molecular point group: c1
  Charge       = -1
  Multiplicity = 1
  Basis Set: AUG-CC-PVTZ
    Blend: AUG-CC-PVTZ
  Basis Set: (AUG-CC-PVTZ AUX)
    Blend: AUG-CC-PVTZ-JKFIT

    Orbital Energies [Eh]
    ---------------------

    Doubly Occupied:

       1A    -91.983479     2A    -20.352922     3A    -20.331835
       4A    -20.330976     5A    -11.131140     6A    -11.129906
       7A    -11.129547     8A    -11.127968     9A    -11.117252
      10A    -11.110705    11A    -11.107436    12A    -11.103782
      13A     -8.952637    14A     -6.640238    15A     -6.636979
      16A     -6.636093    17A     -1.354485    18A     -1.160497
      19A     -1.111311    20A     -1.039822    21A     -0.948106
      22A     -0.916526    23A     -0.837031    24A     -0.815974
      25A     -0.722108    26A     -0.671174    27A     -0.613636
      28A     -0.567121    29A     -0.537638    30A     -0.528546
      31A     -0.494392    32A     -0.481689    33A     -0.478108
      34A     -0.473297    35A     -0.472157    36A     -0.452223
      37A     -0.446265    38A     -0.423600    39A     -0.401612
      40A     -0.369015    41A     -0.367985    42A     -0.344862
      43A     -0.344319    44A     -0.310008    45A     -0.284463
      46A     -0.262343    47A     -0.241992    48A     -0.205212
      49A     -0.203002

  @DF-RHF Final Energy:  -930.49955276604055

   => Energetics <=

    Nuclear Repulsion Energy =            824.6606765682957985
    One-Electron Energy =               -2930.9136278359133030
    Two-Electron Energy =                1175.7533985015768394
    Total Energy =                       -930.4995527660405514
  Basis Set: (AUG-CC-PVTZ AUX)
    Blend: AUG-CC-PVTZ-RI
    Molecular point group: c1

    Geometry (in Angstrom), charge = -1, multiplicity = 1:

       Center              X                  Y                   Z               Mass
    ------------   -----------------  -----------------  -----------------  -----------------
         S            1.974274808812     0.014566405722    -0.000493136784    31.972071174400
         O            2.286810808812     0.014568405722     1.452130863216    15.994914619570
         O            2.346566808812    -1.238059594278    -0.709617136784    15.994914619570
         O            2.296487508812     1.098687605722    -0.614231136784    15.994914619570
         C            0.167548808812     0.014566405722    -0.051174136784    12.000000000000
         C           -1.930496191188    -1.205872594278    -0.025751136784    12.000000000000
         C           -1.930496191188     1.235005405722    -0.025750136784    12.000000000000
         C           -0.531792191188     1.222350405722    -0.040725136784    12.000000000000
         C           -0.531793191188    -1.193218594278    -0.040726136784    12.000000000000
         C           -2.616861191188     0.014566405722    -0.006670136784    12.000000000000
         C           -2.683562191188    -2.512305594278     0.012047863216    12.000000000000
         C           -2.683560191188     2.541439405722     0.012047863216    12.000000000000
         H            0.037807808812     2.148702405722    -0.084257136784     1.007825032230
         H            0.037805808812    -2.119570594278    -0.084258136784     1.007825032230
         H           -3.708771191188     0.014567405722    -0.006773136784     1.007825032230
         H           -2.162306191188    -3.279911594278    -0.568270136784     1.007825032230
         H           -2.782932191188    -2.887437594278     1.037507863216     1.007825032230
         H           -3.692436191188    -2.400310594278    -0.399298136784     1.007825032230
         H           -2.782854191188     2.916616405722     1.037498863216     1.007825032230
         H           -2.162346191188     3.309021405722    -0.568341136784     1.007825032230
         H           -3.692463191188     2.429426405722    -0.399221136784     1.007825032230

  Basis Set: AUG-CC-PVTZ
    Blend: AUG-CC-PVTZ
  Basis Set: (AUG-CC-PVTZ AUX)
    Blend: AUG-CC-PVTZ-JKFIT
	 Reference Energy          =    -930.4995527660405514 [Eh]
	 Singles Energy            =      -0.0000000000000000 [Eh]
	 Same-Spin Energy          =      -0.6227842319502768 [Eh]
	 Opposite-Spin Energy      =      -1.8576135440754904 [Eh]
	 Correlation Energy        =      -2.4803977760257672 [Eh]
	 Total Energy              =    -932.9799505420662626 [Eh]

	 ================> DF-SCS-MP2 Energies <==================
	-----------------------------------------------------------
	 SCS Same-Spin Scale       =       0.3333333333333333 [-]
	 SCS Opposite-Spin Scale   =       1.2000000000000000 [-]
	 SCS Same-Spin Energy      =      -0.2075947439834256 [Eh]
	 SCS Opposite-Spin Energy  =      -2.2291362528905885 [Eh]
	 SCS Correlation Energy    =      -2.4367309968740138 [Eh]
	 SCS Total Energy          =    -932.9362837629145133 [Eh]
	-----------------------------------------------------------

  Dipole Moment: [D]
     X:    -9.6887      Y:     0.9789      Z:    -0.6552     Total:     9.7601

*** Psi4 exiting successfully. Buy a developer a beer!
