                               Psi4 1.4a3.dev225

  ==> Input File <==

--------------------------------------------------------------------------
#psi4
#
memory 32 gb

molecule  {
-1 1
  S        2.0766110     0.0000000     0.0075520
  O        2.3891470     0.0000020     1.4601760
  O        2.4489030    -1.2526260    -0.7015720
  O        2.4489040     1.2526220    -0.7015770
  C        0.1399841     0.0664441    -0.0358565
  C       -1.8281600    -1.2204390    -0.0177060
  C       -1.8281600     1.2204390    -0.0177050
  C       -0.4294560     1.2077840    -0.0326800
  C       -0.4294570    -1.2077850    -0.0326810
  C       -2.5145250     0.0000000     0.0013750
  C       -2.5812260    -2.5268720     0.0200930
  C       -2.5812240     2.5268730     0.0200930
  H        0.1401440     2.1341360    -0.0762120
  H        0.1401420    -2.1341370    -0.0762130
  H       -3.6064350     0.0000010     0.0012720
  H       -2.0599700    -3.2944780    -0.5602250
  H       -2.6805960    -2.9020040     1.0455530
  H       -3.5901000    -2.4148770    -0.3912530
  H       -2.6805180     2.9020500     1.0455440
  H       -2.0600100     3.2944550    -0.5602960
  H       -3.5901270     2.4148600    -0.3911760
units angstrom
no_reorient  #important for SAPT in psi4, default
symmetry c1  #important for SAPT in psi4, default
}

set PROPERTIES_ORIGIN ["COM"]
properties('MP2/aug-cc-pvtz', properties = ['dipole'])
--------------------------------------------------------------------------

    Molecular point group: c1
  Charge       = -1
  Multiplicity = 1
  Basis Set: AUG-CC-PVTZ
    Blend: AUG-CC-PVTZ
  Basis Set: (AUG-CC-PVTZ AUX)
    Blend: AUG-CC-PVTZ-JKFIT

    Orbital Energies [Eh]
    ---------------------

    Doubly Occupied:

       1A    -92.010342     2A    -20.353292     3A    -20.348771
       4A    -20.348205     5A    -11.135975     6A    -11.133171
       7A    -11.131827     8A    -11.130708     9A    -11.119486
      10A    -11.112907    11A    -11.110406    12A    -11.095540
      13A     -8.970673    14A     -6.656122    15A     -6.655511
      16A     -6.655431    17A     -1.264984    18A     -1.124889
      19A     -1.121907    20A     -1.056154    21A     -0.955238
      22A     -0.927213    23A     -0.840200    24A     -0.827871
      25A     -0.710317    26A     -0.678205    27A     -0.621025
      28A     -0.573513    29A     -0.546399    30A     -0.501215
      31A     -0.485581    32A     -0.475975    33A     -0.474900
      34A     -0.460162    35A     -0.459995    36A     -0.457833
      37A     -0.454845    38A     -0.429924    39A     -0.397210
      40A     -0.381706    41A     -0.380545    42A     -0.330120
      43A     -0.328442    44A     -0.293696    45A     -0.289351
      46A     -0.248048    47A     -0.241982    48A     -0.224650
      49A     -0.205494

  @DF-RHF Final Energy:  -930.51330289761620

   => Energetics <=

    Nuclear Repulsion Energy =            813.7446194916640252
    One-Electron Energy =               -2909.0399381947954680
    Two-Electron Energy =                1164.7820158055155844
    Total Energy =                       -930.5133028976160858
  Basis Set: (AUG-CC-PVTZ AUX)
    Blend: AUG-CC-PVTZ-RI
    Molecular point group: c1

    Geometry (in Angstrom), charge = -1, multiplicity = 1:

       Center              X                  Y                   Z               Mass
    ------------   -----------------  -----------------  -----------------  -----------------
         S            1.978370317538    -0.004309112841     0.007281398997    31.972071174400
         O            2.290906317538    -0.004307112841     1.459905398997    15.994914619570
         O            2.350662317538    -1.256935112841    -0.701842601003    15.994914619570
         O            2.350663317538     1.248312887159    -0.701847601003    15.994914619570
         C            0.041743417538     0.062134987159    -0.036127101003    12.000000000000
         C           -1.926400682462    -1.224748112841    -0.017976601003    12.000000000000
         C           -1.926400682462     1.216129887159    -0.017975601003    12.000000000000
         C           -0.527696682462     1.203474887159    -0.032950601003    12.000000000000
         C           -0.527697682462    -1.212094112841    -0.032951601003    12.000000000000
         C           -2.612765682462    -0.004309112841     0.001104398997    12.000000000000
         C           -2.679466682462    -2.531181112841     0.019822398997    12.000000000000
         C           -2.679464682462     2.522563887159     0.019822398997    12.000000000000
         H            0.041903317538     2.129826887159    -0.076482601003     1.007825032230
         H            0.041901317538    -2.138446112841    -0.076483601003     1.007825032230
         H           -3.704675682462    -0.004308112841     0.001001398997     1.007825032230
         H           -2.158210682462    -3.298787112841    -0.560495601003     1.007825032230
         H           -2.778836682462    -2.906313112841     1.045282398997     1.007825032230
         H           -3.688340682462    -2.419186112841    -0.391523601003     1.007825032230
         H           -2.778758682462     2.897740887159     1.045273398997     1.007825032230
         H           -2.158250682462     3.290145887159    -0.560566601003     1.007825032230
         H           -3.688367682462     2.410550887159    -0.391446601003     1.007825032230

  Basis Set: AUG-CC-PVTZ
    Blend: AUG-CC-PVTZ
  Basis Set: (AUG-CC-PVTZ AUX)
    Blend: AUG-CC-PVTZ-JKFIT
	 Reference Energy          =    -930.5133028976161995 [Eh]
	 Singles Energy            =      -0.0000000000000000 [Eh]
	 Same-Spin Energy          =      -0.6276409511790461 [Eh]
	 Opposite-Spin Energy      =      -1.8693824208918237 [Eh]
	 Correlation Energy        =      -2.4970233720708697 [Eh]
	 Total Energy              =    -933.0103262696870843 [Eh]

	 ================> DF-SCS-MP2 Energies <==================
	-----------------------------------------------------------
	 SCS Same-Spin Scale       =       0.3333333333333333 [-]
	 SCS Opposite-Spin Scale   =       1.2000000000000000 [-]
	 SCS Same-Spin Energy      =      -0.2092136503930153 [Eh]
	 SCS Opposite-Spin Energy  =      -2.2432589050701885 [Eh]
	 SCS Correlation Energy    =      -2.4524725554632041 [Eh]
	 SCS Total Energy          =    -932.9657754530794591 [Eh]
	-----------------------------------------------------------

  Dipole Moment: [D]
     X:   -10.2331      Y:    -0.0346      Z:    -0.0868     Total:    10.2335

*** Psi4 exiting successfully. Buy a developer a beer!
