                               Psi4 1.4a3.dev225

  ==> Input File <==

--------------------------------------------------------------------------
#psi4
#
memory 32 gb

molecule  {
-1 1
  S        2.0766110     0.0000000     0.0075520
  O        2.3298773    -0.1437219     1.4646023
  O        2.4489030    -1.2526260    -0.7015720
  O        2.4489040     1.2526220    -0.7015770
  C        0.2698850     0.0000000    -0.0431290
  C       -1.8281600    -1.2204390    -0.0177060
  C       -1.8281600     1.2204390    -0.0177050
  C       -0.4294560     1.2077840    -0.0326800
  C       -0.4294570    -1.2077850    -0.0326810
  C       -2.5145250     0.0000000     0.0013750
  C       -2.5812260    -2.5268720     0.0200930
  C       -2.5812240     2.5268730     0.0200930
  H        0.1401440     2.1341360    -0.0762120
  H        0.1401420    -2.1341370    -0.0762130
  H       -3.6064350     0.0000010     0.0012720
  H       -2.0599700    -3.2944780    -0.5602250
  H       -2.6805960    -2.9020040     1.0455530
  H       -3.5901000    -2.4148770    -0.3912530
  H       -2.6805180     2.9020500     1.0455440
  H       -2.0600100     3.2944550    -0.5602960
  H       -3.5901270     2.4148600    -0.3911760
units angstrom
no_reorient  #important for SAPT in psi4, default
symmetry c1  #important for SAPT in psi4, default
}

set PROPERTIES_ORIGIN ["COM"]
properties('MP2/aug-cc-pvtz', properties = ['dipole'])
--------------------------------------------------------------------------

    Molecular point group: c1
  Charge       = -1
  Multiplicity = 1
  Basis Set: AUG-CC-PVTZ
    Blend: AUG-CC-PVTZ
  Basis Set: (AUG-CC-PVTZ AUX)
    Blend: AUG-CC-PVTZ-JKFIT

    Orbital Energies [Eh]
    ---------------------

    Doubly Occupied:

       1A    -92.014831     2A    -20.361218     3A    -20.350791
       4A    -20.344168     5A    -11.133334     6A    -11.133051
       7A    -11.131229     8A    -11.130628     9A    -11.121122
      10A    -11.120701    11A    -11.110277    12A    -11.109733
      13A     -8.975546    14A     -6.661262    15A     -6.660552
      16A     -6.660283    17A     -1.271119    18A     -1.135579
      19A     -1.118538    20A     -1.043362    21A     -0.950794
      22A     -0.920534    23A     -0.839519    24A     -0.819005
      25A     -0.728537    26A     -0.674191    27A     -0.624512
      28A     -0.566727    29A     -0.539995    30A     -0.513832
      31A     -0.484100    32A     -0.474335    33A     -0.474173
      34A     -0.466365    35A     -0.460289    36A     -0.453850
      37A     -0.448943    38A     -0.425233    39A     -0.398177
      40A     -0.371167    41A     -0.370709    42A     -0.335977
      43A     -0.329401    44A     -0.301227    45A     -0.289108
      46A     -0.267546    47A     -0.249202    48A     -0.208582
      49A     -0.207027

  @DF-RHF Final Energy:  -930.53202600595534

   => Energetics <=

    Nuclear Repulsion Energy =            814.6578982798303059
    One-Electron Energy =               -2910.8190828318502099
    Two-Electron Energy =                1165.6291585460649003
    Total Energy =                       -930.5320260059552311
  Basis Set: (AUG-CC-PVTZ AUX)
    Blend: AUG-CC-PVTZ-RI
    Molecular point group: c1

    Geometry (in Angstrom), charge = -1, multiplicity = 1:

       Center              X                  Y                   Z               Mass
    ------------   -----------------  -----------------  -----------------  -----------------
         S            1.975069198158     0.012424535156     0.007370422156    31.972071174400
         O            2.228335498158    -0.131297364844     1.464420722156    15.994914619570
         O            2.347361198158    -1.240201464844    -0.701753577844    15.994914619570
         O            2.347362198158     1.265046535156    -0.701758577844    15.994914619570
         C            0.168343198158     0.012424535156    -0.043310577844    12.000000000000
         C           -1.929701801842    -1.208014464844    -0.017887577844    12.000000000000
         C           -1.929701801842     1.232863535156    -0.017886577844    12.000000000000
         C           -0.530997801842     1.220208535156    -0.032861577844    12.000000000000
         C           -0.530998801842    -1.195360464844    -0.032862577844    12.000000000000
         C           -2.616066801842     0.012424535156     0.001193422156    12.000000000000
         C           -2.682767801842    -2.514447464844     0.019911422156    12.000000000000
         C           -2.682765801842     2.539297535156     0.019911422156    12.000000000000
         H            0.038602198158     2.146560535156    -0.076393577844     1.007825032230
         H            0.038600198158    -2.121712464844    -0.076394577844     1.007825032230
         H           -3.707976801842     0.012425535156     0.001090422156     1.007825032230
         H           -2.161511801842    -3.282053464844    -0.560406577844     1.007825032230
         H           -2.782137801842    -2.889579464844     1.045371422156     1.007825032230
         H           -3.691641801842    -2.402452464844    -0.391434577844     1.007825032230
         H           -2.782059801842     2.914474535156     1.045362422156     1.007825032230
         H           -2.161551801842     3.306879535156    -0.560477577844     1.007825032230
         H           -3.691668801842     2.427284535156    -0.391357577844     1.007825032230

  Basis Set: AUG-CC-PVTZ
    Blend: AUG-CC-PVTZ
  Basis Set: (AUG-CC-PVTZ AUX)
    Blend: AUG-CC-PVTZ-JKFIT
	 Reference Energy          =    -930.5320260059553448 [Eh]
	 Singles Energy            =      -0.0000000000000000 [Eh]
	 Same-Spin Energy          =      -0.6275976663396299 [Eh]
	 Opposite-Spin Energy      =      -1.8692863204070460 [Eh]
	 Correlation Energy        =      -2.4968839867466759 [Eh]
	 Total Energy              =    -933.0289099927019834 [Eh]

	 ================> DF-SCS-MP2 Energies <==================
	-----------------------------------------------------------
	 SCS Same-Spin Scale       =       0.3333333333333333 [-]
	 SCS Opposite-Spin Scale   =       1.2000000000000000 [-]
	 SCS Same-Spin Energy      =      -0.2091992221132100 [Eh]
	 SCS Opposite-Spin Energy  =      -2.2431435844884553 [Eh]
	 SCS Correlation Energy    =      -2.4523428066016653 [Eh]
	 SCS Total Energy          =    -932.9843688125570225 [Eh]
	-----------------------------------------------------------

  Dipole Moment: [D]
     X:   -10.0704      Y:     0.3243      Z:    -0.0708     Total:    10.0759

*** Psi4 exiting successfully. Buy a developer a beer!
