                               Psi4 1.4a3.dev225

  ==> Input File <==

--------------------------------------------------------------------------
#psi4
#
memory 32 gb

molecule  {
-1 1
  S        2.0766110     0.0000000     0.0075520
  O        2.3891470     0.0000020     1.4601760
  O        2.4489030    -1.2526260    -0.7015720
  O        2.4489040     1.2526220    -0.7015770
  C        0.2698850     0.0000000    -0.0431290
  C       -1.8281600    -1.2204390    -0.0177060
  C       -1.8281600     1.2204390    -0.0177050
  C       -0.4494540     1.2079649    -0.0324659
  C       -0.4294570    -1.2077850    -0.0326810
  C       -2.5145250     0.0000000     0.0013750
  C       -2.5812260    -2.5268720     0.0200930
  C       -2.5812240     2.5268730     0.0200930
  H        0.1401440     2.1341360    -0.0762120
  H        0.1401420    -2.1341370    -0.0762130
  H       -3.6064350     0.0000010     0.0012720
  H       -2.0599700    -3.2944780    -0.5602250
  H       -2.6805960    -2.9020040     1.0455530
  H       -3.5901000    -2.4148770    -0.3912530
  H       -2.6805180     2.9020500     1.0455440
  H       -2.0600100     3.2944550    -0.5602960
  H       -3.5901270     2.4148600    -0.3911760
units angstrom
no_reorient  #important for SAPT in psi4, default
symmetry c1  #important for SAPT in psi4, default
}

set PROPERTIES_ORIGIN ["COM"]
properties('MP2/aug-cc-pvtz', properties = ['dipole'])
--------------------------------------------------------------------------

    Molecular point group: c1
  Charge       = -1
  Multiplicity = 1
  Basis Set: AUG-CC-PVTZ
    Blend: AUG-CC-PVTZ
  Basis Set: (AUG-CC-PVTZ AUX)
    Blend: AUG-CC-PVTZ-JKFIT

    Orbital Energies [Eh]
    ---------------------

    Doubly Occupied:

       1A    -92.014535     2A    -20.351247     3A    -20.351077
       4A    -20.350289     5A    -11.134516     6A    -11.132142
       7A    -11.131895     8A    -11.131378     9A    -11.124272
      10A    -11.122280    11A    -11.111749    12A    -11.111428
      13A     -8.975191    14A     -6.660920    15A     -6.660119
      16A     -6.660037    17A     -1.270089    18A     -1.126649
      19A     -1.124818    20A     -1.046008    21A     -0.953352
      22A     -0.920757    23A     -0.840603    24A     -0.820549
      25A     -0.731536    26A     -0.674546    27A     -0.625334
      28A     -0.566806    29A     -0.541656    30A     -0.513609
      31A     -0.485208    32A     -0.475258    33A     -0.474330
      34A     -0.463456    35A     -0.461586    36A     -0.454357
      37A     -0.450604    38A     -0.425821    39A     -0.400620
      40A     -0.372207    41A     -0.369199    42A     -0.331609
      43A     -0.330788    44A     -0.296815    45A     -0.290850
      46A     -0.270399    47A     -0.249062    48A     -0.211096
      49A     -0.208788

  @DF-RHF Final Energy:  -930.53517018729383

   => Energetics <=

    Nuclear Repulsion Energy =            814.0598518091910591
    One-Electron Energy =               -2909.5871581836117912
    Two-Electron Energy =                1164.9921361871270165
    Total Energy =                       -930.5351701872937156
  Basis Set: (AUG-CC-PVTZ AUX)
    Blend: AUG-CC-PVTZ-RI
    Molecular point group: c1

    Geometry (in Angstrom), charge = -1, multiplicity = 1:

       Center              X                  Y                   Z               Mass
    ------------   -----------------  -----------------  -----------------  -----------------
         S            1.971242530313    -0.000011592115     0.007739173754    31.972071174400
         O            2.283778530313    -0.000009592115     1.460363173754    15.994914619570
         O            2.343534530313    -1.252637592115    -0.701384826246    15.994914619570
         O            2.343535530313     1.252610407885    -0.701389826246    15.994914619570
         C            0.164516530313    -0.000011592115    -0.042941826246    12.000000000000
         C           -1.933528469687    -1.220450592115    -0.017518826246    12.000000000000
         C           -1.933528469687     1.220427407885    -0.017517826246    12.000000000000
         C           -0.554822469687     1.207953307885    -0.032278726246    12.000000000000
         C           -0.534825469687    -1.207796592115    -0.032493826246    12.000000000000
         C           -2.619893469687    -0.000011592115     0.001562173754    12.000000000000
         C           -2.686594469687    -2.526883592115     0.020280173754    12.000000000000
         C           -2.686592469687     2.526861407885     0.020280173754    12.000000000000
         H            0.034775530313     2.134124407885    -0.076024826246     1.007825032230
         H            0.034773530313    -2.134148592115    -0.076025826246     1.007825032230
         H           -3.711803469687    -0.000010592115     0.001459173754     1.007825032230
         H           -2.165338469687    -3.294489592115    -0.560037826246     1.007825032230
         H           -2.785964469687    -2.902015592115     1.045740173754     1.007825032230
         H           -3.695468469687    -2.414888592115    -0.391065826246     1.007825032230
         H           -2.785886469687     2.902038407885     1.045731173754     1.007825032230
         H           -2.165378469687     3.294443407885    -0.560108826246     1.007825032230
         H           -3.695495469687     2.414848407885    -0.390988826246     1.007825032230

  Basis Set: AUG-CC-PVTZ
    Blend: AUG-CC-PVTZ
  Basis Set: (AUG-CC-PVTZ AUX)
    Blend: AUG-CC-PVTZ-JKFIT
	 Reference Energy          =    -930.5351701872938293 [Eh]
	 Singles Energy            =      -0.0000000000000000 [Eh]
	 Same-Spin Energy          =      -0.6273040516066793 [Eh]
	 Opposite-Spin Energy      =      -1.8687107468353332 [Eh]
	 Correlation Energy        =      -2.4960147984420127 [Eh]
	 Total Energy              =    -933.0311849857358766 [Eh]

	 ================> DF-SCS-MP2 Energies <==================
	-----------------------------------------------------------
	 SCS Same-Spin Scale       =       0.3333333333333333 [-]
	 SCS Opposite-Spin Scale   =       1.2000000000000000 [-]
	 SCS Same-Spin Energy      =      -0.2091013505355598 [Eh]
	 SCS Opposite-Spin Energy  =      -2.2424528962024000 [Eh]
	 SCS Correlation Energy    =      -2.4515542467379596 [Eh]
	 SCS Total Energy          =    -932.9867244340317711 [Eh]
	-----------------------------------------------------------

  Dipole Moment: [D]
     X:   -10.2792      Y:    -0.0141      Z:    -0.0677     Total:    10.2795

*** Psi4 exiting successfully. Buy a developer a beer!
