                               Psi4 1.4a3.dev225

  ==> Input File <==

--------------------------------------------------------------------------
#psi4
#
memory 32 gb

molecule  {
-1 1
  S        2.0721220     0.1260414     0.0105637
  O        2.3891470     0.0000020     1.4601760
  O        2.4489030    -1.2526260    -0.7015720
  O        2.4489040     1.2526220    -0.7015770
  C        0.2698850     0.0000000    -0.0431290
  C       -1.8281600    -1.2204390    -0.0177060
  C       -1.8281600     1.2204390    -0.0177050
  C       -0.4294560     1.2077840    -0.0326800
  C       -0.4294570    -1.2077850    -0.0326810
  C       -2.5145250     0.0000000     0.0013750
  C       -2.5812260    -2.5268720     0.0200930
  C       -2.5812240     2.5268730     0.0200930
  H        0.1401440     2.1341360    -0.0762120
  H        0.1401420    -2.1341370    -0.0762130
  H       -3.6064350     0.0000010     0.0012720
  H       -2.0599700    -3.2944780    -0.5602250
  H       -2.6805960    -2.9020040     1.0455530
  H       -3.5901000    -2.4148770    -0.3912530
  H       -2.6805180     2.9020500     1.0455440
  H       -2.0600100     3.2944550    -0.5602960
  H       -3.5901270     2.4148600    -0.3911760
units angstrom
no_reorient  #important for SAPT in psi4, default
symmetry c1  #important for SAPT in psi4, default
}

set PROPERTIES_ORIGIN ["COM"]
properties('MP2/aug-cc-pvtz', properties = ['dipole'])
--------------------------------------------------------------------------

    Molecular point group: c1
  Charge       = -1
  Multiplicity = 1
  Basis Set: AUG-CC-PVTZ
    Blend: AUG-CC-PVTZ
  Basis Set: (AUG-CC-PVTZ AUX)
    Blend: AUG-CC-PVTZ-JKFIT

    Orbital Energies [Eh]
    ---------------------

    Doubly Occupied:

       1A    -92.010199     2A    -20.377567     3A    -20.350425
       4A    -20.322976     5A    -11.135010     6A    -11.134404
       7A    -11.132831     8A    -11.131272     9A    -11.123950
      10A    -11.122638    11A    -11.112598    12A    -11.111670
      13A     -8.973050    14A     -6.658826    15A     -6.658212
      16A     -6.657212    17A     -1.300291    18A     -1.155707
      19A     -1.068809    20A     -1.044715    21A     -0.952292
      22A     -0.922520    23A     -0.840951    24A     -0.820624
      25A     -0.730927    26A     -0.675830    27A     -0.626121
      28A     -0.569056    29A     -0.541787    30A     -0.520504
      31A     -0.485685    32A     -0.476975    33A     -0.475325
      34A     -0.474050    35A     -0.466600    36A     -0.455241
      37A     -0.450063    38A     -0.426878    39A     -0.402265
      40A     -0.373694    41A     -0.372563    42A     -0.340101
      43A     -0.329862    44A     -0.309777    45A     -0.271057
      46A     -0.252736    47A     -0.235598    48A     -0.210736
      49A     -0.207313

  @DF-RHF Final Energy:  -930.51107296529744

   => Energetics <=

    Nuclear Repulsion Energy =            814.2550639808443975
    One-Electron Energy =               -2909.9332867111047563
    Two-Electron Energy =                1165.1671497649626872
    Total Energy =                       -930.5110729652974442
  Basis Set: (AUG-CC-PVTZ AUX)
    Blend: AUG-CC-PVTZ-RI
    Molecular point group: c1

    Geometry (in Angstrom), charge = -1, multiplicity = 1:

       Center              X                  Y                   Z               Mass
    ------------   -----------------  -----------------  -----------------  -----------------
         S            1.966232237489     0.104262019506     0.010244347869    31.972071174400
         O            2.283257237489    -0.021777380494     1.459856647869    15.994914619570
         O            2.343013237489    -1.274405380494    -0.701891352131    15.994914619570
         O            2.343014237489     1.230842619506    -0.701896352131    15.994914619570
         C            0.163995237489    -0.021779380494    -0.043448352131    12.000000000000
         C           -1.934049762511    -1.242218380494    -0.018025352131    12.000000000000
         C           -1.934049762511     1.198659619506    -0.018024352131    12.000000000000
         C           -0.535345762511     1.186004619506    -0.032999352131    12.000000000000
         C           -0.535346762511    -1.229564380494    -0.033000352131    12.000000000000
         C           -2.620414762511    -0.021779380494     0.001055647869    12.000000000000
         C           -2.687115762511    -2.548651380494     0.019773647869    12.000000000000
         C           -2.687113762511     2.505093619506     0.019773647869    12.000000000000
         H            0.034254237489     2.112356619506    -0.076531352131     1.007825032230
         H            0.034252237489    -2.155916380494    -0.076532352131     1.007825032230
         H           -3.712324762511    -0.021778380494     0.000952647869     1.007825032230
         H           -2.165859762511    -3.316257380494    -0.560544352131     1.007825032230
         H           -2.786485762511    -2.923783380494     1.045233647869     1.007825032230
         H           -3.695989762511    -2.436656380494    -0.391572352131     1.007825032230
         H           -2.786407762511     2.880270619506     1.045224647869     1.007825032230
         H           -2.165899762511     3.272675619506    -0.560615352131     1.007825032230
         H           -3.696016762511     2.393080619506    -0.391495352131     1.007825032230

  Basis Set: AUG-CC-PVTZ
    Blend: AUG-CC-PVTZ
  Basis Set: (AUG-CC-PVTZ AUX)
    Blend: AUG-CC-PVTZ-JKFIT
	 Reference Energy          =    -930.5110729652974442 [Eh]
	 Singles Energy            =      -0.0000000000000000 [Eh]
	 Same-Spin Energy          =      -0.6272073430573957 [Eh]
	 Opposite-Spin Energy      =      -1.8691476659198802 [Eh]
	 Correlation Energy        =      -2.4963550089772761 [Eh]
	 Total Energy              =    -933.0074279742747194 [Eh]

	 ================> DF-SCS-MP2 Energies <==================
	-----------------------------------------------------------
	 SCS Same-Spin Scale       =       0.3333333333333333 [-]
	 SCS Opposite-Spin Scale   =       1.2000000000000000 [-]
	 SCS Same-Spin Energy      =      -0.2090691143524652 [Eh]
	 SCS Opposite-Spin Energy  =      -2.2429771991038563 [Eh]
	 SCS Correlation Energy    =      -2.4520463134563215 [Eh]
	 SCS Total Energy          =    -932.9631192787537657 [Eh]
	-----------------------------------------------------------

  Dipole Moment: [D]
     X:   -10.3766      Y:     1.2874      Z:    -0.0031     Total:    10.4562

*** Psi4 exiting successfully. Buy a developer a beer!
