                               Psi4 1.4a3.dev225

  ==> Input File <==

--------------------------------------------------------------------------
#psi4
#
memory 32 gb

molecule  {
-1 1
  S        2.0766110     0.0000000     0.0075520
  O        2.4312149     0.0000023     1.6557017
  O        2.4489030    -1.2526260    -0.7015720
  O        2.4489040     1.2526220    -0.7015770
  C        0.2698850     0.0000000    -0.0431290
  C       -1.8281600    -1.2204390    -0.0177060
  C       -1.8281600     1.2204390    -0.0177050
  C       -0.4294560     1.2077840    -0.0326800
  C       -0.4294570    -1.2077850    -0.0326810
  C       -2.5145250     0.0000000     0.0013750
  C       -2.5812260    -2.5268720     0.0200930
  C       -2.5812240     2.5268730     0.0200930
  H        0.1401440     2.1341360    -0.0762120
  H        0.1401420    -2.1341370    -0.0762130
  H       -3.6064350     0.0000010     0.0012720
  H       -2.0599700    -3.2944780    -0.5602250
  H       -2.6805960    -2.9020040     1.0455530
  H       -3.5901000    -2.4148770    -0.3912530
  H       -2.6805180     2.9020500     1.0455440
  H       -2.0600100     3.2944550    -0.5602960
  H       -3.5901270     2.4148600    -0.3911760
units angstrom
no_reorient  #important for SAPT in psi4, default
symmetry c1  #important for SAPT in psi4, default
}

set PROPERTIES_ORIGIN ["COM"]
properties('MP2/aug-cc-pvtz', properties = ['dipole'])
--------------------------------------------------------------------------

    Molecular point group: c1
  Charge       = -1
  Multiplicity = 1
  Basis Set: AUG-CC-PVTZ
    Blend: AUG-CC-PVTZ
  Basis Set: (AUG-CC-PVTZ AUX)
    Blend: AUG-CC-PVTZ-JKFIT

    Orbital Energies [Eh]
    ---------------------

    Doubly Occupied:

       1A    -92.022807     2A    -20.364879     3A    -20.364856
       4A    -20.350504     5A    -11.138564     6A    -11.138514
       7A    -11.134715     8A    -11.134715     9A    -11.132265
      10A    -11.127388    11A    -11.117950    12A    -11.117889
      13A     -8.983862    14A     -6.669193    15A     -6.668496
      16A     -6.667695    17A     -1.253613    18A     -1.136842
      19A     -1.056459    20A     -1.048521    21A     -0.955909
      22A     -0.927421    23A     -0.844305    24A     -0.824582
      25A     -0.739223    26A     -0.679977    27A     -0.635633
      28A     -0.572430    29A     -0.545760    30A     -0.510998
      31A     -0.488039    32A     -0.478118    33A     -0.477984
      34A     -0.459433    35A     -0.457220    36A     -0.456068
      37A     -0.454328    38A     -0.429280    39A     -0.400144
      40A     -0.376485    41A     -0.373856    42A     -0.323590
      43A     -0.320619    44A     -0.296621    45A     -0.272973
      46A     -0.262564    47A     -0.246822    48A     -0.215020
      49A     -0.212691

  @DF-RHF Final Energy:  -930.49372034512567

   => Energetics <=

    Nuclear Repulsion Energy =            805.2525254109569914
    One-Electron Energy =               -2891.7568502442400131
    Two-Electron Energy =                1156.0106044881574689
    Total Energy =                       -930.4937203451256664
  Basis Set: (AUG-CC-PVTZ AUX)
    Blend: AUG-CC-PVTZ-RI
    Molecular point group: c1

    Geometry (in Angstrom), charge = -1, multiplicity = 1:

       Center              X                  Y                   Z               Mass
    ------------   -----------------  -----------------  -----------------  -----------------
         S            1.966308940712     0.000000114277    -0.009149408013    31.972071174400
         O            2.320912840712     0.000002414277     1.639000291987    15.994914619570
         O            2.338600940712    -1.252625885723    -0.718273408013    15.994914619570
         O            2.338601940712     1.252622114277    -0.718278408013    15.994914619570
         C            0.159582940712     0.000000114277    -0.059830408013    12.000000000000
         C           -1.938462059288    -1.220438885723    -0.034407408013    12.000000000000
         C           -1.938462059288     1.220439114277    -0.034406408013    12.000000000000
         C           -0.539758059288     1.207784114277    -0.049381408013    12.000000000000
         C           -0.539759059288    -1.207784885723    -0.049382408013    12.000000000000
         C           -2.624827059288     0.000000114277    -0.015326408013    12.000000000000
         C           -2.691528059288    -2.526871885723     0.003391591987    12.000000000000
         C           -2.691526059288     2.526873114277     0.003391591987    12.000000000000
         H            0.029841940712     2.134136114277    -0.092913408013     1.007825032230
         H            0.029839940712    -2.134136885723    -0.092914408013     1.007825032230
         H           -3.716737059288     0.000001114277    -0.015429408013     1.007825032230
         H           -2.170272059288    -3.294477885723    -0.576926408013     1.007825032230
         H           -2.790898059288    -2.902003885723     1.028851591987     1.007825032230
         H           -3.700402059288    -2.414876885723    -0.407954408013     1.007825032230
         H           -2.790820059288     2.902050114277     1.028842591987     1.007825032230
         H           -2.170312059288     3.294455114277    -0.576997408013     1.007825032230
         H           -3.700429059288     2.414860114277    -0.407877408013     1.007825032230

  Basis Set: AUG-CC-PVTZ
    Blend: AUG-CC-PVTZ
  Basis Set: (AUG-CC-PVTZ AUX)
    Blend: AUG-CC-PVTZ-JKFIT
	 Reference Energy          =    -930.4937203451256664 [Eh]
	 Singles Energy            =      -0.0000000000000000 [Eh]
	 Same-Spin Energy          =      -0.6298349718036238 [Eh]
	 Opposite-Spin Energy      =      -1.8774648436466310 [Eh]
	 Correlation Energy        =      -2.5072998154502546 [Eh]
	 Total Energy              =    -933.0010201605758766 [Eh]

	 ================> DF-SCS-MP2 Energies <==================
	-----------------------------------------------------------
	 SCS Same-Spin Scale       =       0.3333333333333333 [-]
	 SCS Opposite-Spin Scale   =       1.2000000000000000 [-]
	 SCS Same-Spin Energy      =      -0.2099449906012079 [Eh]
	 SCS Opposite-Spin Energy  =      -2.2529578123759570 [Eh]
	 SCS Correlation Energy    =      -2.4629028029771649 [Eh]
	 SCS Total Energy          =    -932.9566231481028353 [Eh]
	-----------------------------------------------------------

  Dipole Moment: [D]
     X:   -10.9216      Y:     0.0000      Z:    -1.3184     Total:    11.0009

*** Psi4 exiting successfully. Buy a developer a beer!
