                               Psi4 1.4a3.dev225

  ==> Input File <==

--------------------------------------------------------------------------
#psi4
#
memory 32 gb

molecule  {
-1 1
  S        2.0766110     0.0000000     0.0075520
  O        2.3470791     0.0000017     1.2646503
  O        2.4489030    -1.2526260    -0.7015720
  O        2.4489040     1.2526220    -0.7015770
  C        0.2698850     0.0000000    -0.0431290
  C       -1.8281600    -1.2204390    -0.0177060
  C       -1.8281600     1.2204390    -0.0177050
  C       -0.4294560     1.2077840    -0.0326800
  C       -0.4294570    -1.2077850    -0.0326810
  C       -2.5145250     0.0000000     0.0013750
  C       -2.5812260    -2.5268720     0.0200930
  C       -2.5812240     2.5268730     0.0200930
  H        0.1401440     2.1341360    -0.0762120
  H        0.1401420    -2.1341370    -0.0762130
  H       -3.6064350     0.0000010     0.0012720
  H       -2.0599700    -3.2944780    -0.5602250
  H       -2.6805960    -2.9020040     1.0455530
  H       -3.5901000    -2.4148770    -0.3912530
  H       -2.6805180     2.9020500     1.0455440
  H       -2.0600100     3.2944550    -0.5602960
  H       -3.5901270     2.4148600    -0.3911760
units angstrom
no_reorient  #important for SAPT in psi4, default
symmetry c1  #important for SAPT in psi4, default
}

set PROPERTIES_ORIGIN ["COM"]
properties('MP2/aug-cc-pvtz', properties = ['dipole'])
--------------------------------------------------------------------------

    Molecular point group: c1
  Charge       = -1
  Multiplicity = 1
  Basis Set: AUG-CC-PVTZ
    Blend: AUG-CC-PVTZ
  Basis Set: (AUG-CC-PVTZ AUX)
    Blend: AUG-CC-PVTZ-JKFIT

    Orbital Energies [Eh]
    ---------------------

    Doubly Occupied:

       1A    -91.983663     2A    -20.352526     3A    -20.331730
       4A    -20.331708     5A    -11.129766     6A    -11.129727
       7A    -11.128529     8A    -11.128526     9A    -11.116733
      10A    -11.110464    11A    -11.104728    12A    -11.104590
      13A     -8.952857    14A     -6.640372    15A     -6.637231
      16A     -6.636356    17A     -1.354616    18A     -1.160116
      19A     -1.112713    20A     -1.039267    21A     -0.947549
      22A     -0.916040    23A     -0.836572    24A     -0.815259
      25A     -0.721871    26A     -0.670323    27A     -0.613407
      28A     -0.564261    29A     -0.536855    30A     -0.530895
      31A     -0.491109    32A     -0.483309    33A     -0.479256
      34A     -0.472010    35A     -0.471303    36A     -0.451231
      37A     -0.445295    38A     -0.423148    39A     -0.406154
      40A     -0.368831    41A     -0.367848    42A     -0.345133
      43A     -0.339171    44A     -0.313075    45A     -0.279343
      46A     -0.264911    47A     -0.242590    48A     -0.204884
      49A     -0.203955

  @DF-RHF Final Energy:  -930.49895336882594

   => Energetics <=

    Nuclear Repulsion Energy =            824.7716436663044988
    One-Electron Energy =               -2931.1575818445085133
    Two-Electron Energy =                1175.8869848093779638
    Total Energy =                       -930.4989533688260508
  Basis Set: (AUG-CC-PVTZ AUX)
    Blend: AUG-CC-PVTZ-RI
    Molecular point group: c1

    Geometry (in Angstrom), charge = -1, multiplicity = 1:

       Center              X                  Y                   Z               Mass
    ------------   -----------------  -----------------  -----------------  -----------------
         S            1.973582166725     0.000000166145     0.024655526568    31.972071174400
         O            2.244050266725     0.000001866145     1.281753826568    15.994914619570
         O            2.345874166725    -1.252625833855    -0.684468473432    15.994914619570
         O            2.345875166725     1.252622166145    -0.684473473432    15.994914619570
         C            0.166856166725     0.000000166145    -0.026025473432    12.000000000000
         C           -1.931188833275    -1.220438833855    -0.000602473432    12.000000000000
         C           -1.931188833275     1.220439166145    -0.000601473432    12.000000000000
         C           -0.532484833275     1.207784166145    -0.015576473432    12.000000000000
         C           -0.532485833275    -1.207784833855    -0.015577473432    12.000000000000
         C           -2.617553833275     0.000000166145     0.018478526568    12.000000000000
         C           -2.684254833275    -2.526871833855     0.037196526568    12.000000000000
         C           -2.684252833275     2.526873166145     0.037196526568    12.000000000000
         H            0.037115166725     2.134136166145    -0.059108473432     1.007825032230
         H            0.037113166725    -2.134136833855    -0.059109473432     1.007825032230
         H           -3.709463833275     0.000001166145     0.018375526568     1.007825032230
         H           -2.162998833275    -3.294477833855    -0.543121473432     1.007825032230
         H           -2.783624833275    -2.902003833855     1.062656526568     1.007825032230
         H           -3.693128833275    -2.414876833855    -0.374149473432     1.007825032230
         H           -2.783546833275     2.902050166145     1.062647526568     1.007825032230
         H           -2.163038833275     3.294455166145    -0.543192473432     1.007825032230
         H           -3.693155833275     2.414860166145    -0.374072473432     1.007825032230

  Basis Set: AUG-CC-PVTZ
    Blend: AUG-CC-PVTZ
  Basis Set: (AUG-CC-PVTZ AUX)
    Blend: AUG-CC-PVTZ-JKFIT
	 Reference Energy          =    -930.4989533688259371 [Eh]
	 Singles Energy            =      -0.0000000000000000 [Eh]
	 Same-Spin Energy          =      -0.6227631625473680 [Eh]
	 Opposite-Spin Energy      =      -1.8575177348554233 [Eh]
	 Correlation Energy        =      -2.4802808974027912 [Eh]
	 Total Energy              =    -932.9792342662286728 [Eh]

	 ================> DF-SCS-MP2 Energies <==================
	-----------------------------------------------------------
	 SCS Same-Spin Scale       =       0.3333333333333333 [-]
	 SCS Opposite-Spin Scale   =       1.2000000000000000 [-]
	 SCS Same-Spin Energy      =      -0.2075877208491226 [Eh]
	 SCS Opposite-Spin Energy  =      -2.2290212818265078 [Eh]
	 SCS Correlation Energy    =      -2.4366090026756306 [Eh]
	 SCS Total Energy          =    -932.9355623715015327 [Eh]
	-----------------------------------------------------------

  Dipole Moment: [D]
     X:    -9.7158      Y:     0.0000      Z:     1.1367     Total:     9.7821

*** Psi4 exiting successfully. Buy a developer a beer!
