                               Psi4 1.4a3.dev225

  ==> Input File <==

--------------------------------------------------------------------------
#psi4
#
memory 32 gb

molecule  {
-1 1
  S        2.0665818     0.1888701     0.0119724
  O        2.3891470     0.0000020     1.4601760
  O        2.4489030    -1.2526260    -0.7015720
  O        2.4489040     1.2526220    -0.7015770
  C        0.2698850     0.0000000    -0.0431290
  C       -1.8281600    -1.2204390    -0.0177060
  C       -1.8281600     1.2204390    -0.0177050
  C       -0.4294560     1.2077840    -0.0326800
  C       -0.4294570    -1.2077850    -0.0326810
  C       -2.5145250     0.0000000     0.0013750
  C       -2.5812260    -2.5268720     0.0200930
  C       -2.5812240     2.5268730     0.0200930
  H        0.1401440     2.1341360    -0.0762120
  H        0.1401420    -2.1341370    -0.0762130
  H       -3.6064350     0.0000010     0.0012720
  H       -2.0599700    -3.2944780    -0.5602250
  H       -2.6805960    -2.9020040     1.0455530
  H       -3.5901000    -2.4148770    -0.3912530
  H       -2.6805180     2.9020500     1.0455440
  H       -2.0600100     3.2944550    -0.5602960
  H       -3.5901270     2.4148600    -0.3911760
units angstrom
no_reorient  #important for SAPT in psi4, default
symmetry c1  #important for SAPT in psi4, default
}

set PROPERTIES_ORIGIN ["COM"]
properties('MP2/aug-cc-pvtz', properties = ['dipole'])
--------------------------------------------------------------------------

    Molecular point group: c1
  Charge       = -1
  Multiplicity = 1
  Basis Set: AUG-CC-PVTZ
    Blend: AUG-CC-PVTZ
  Basis Set: (AUG-CC-PVTZ AUX)
    Blend: AUG-CC-PVTZ-JKFIT

    Orbital Energies [Eh]
    ---------------------

    Doubly Occupied:

       1A    -92.006042     2A    -20.390179     3A    -20.350610
       4A    -20.309647     5A    -11.135441     6A    -11.134558
       7A    -11.133414     8A    -11.131099     9A    -11.124925
      10A    -11.122915    11A    -11.113198    12A    -11.111821
      13A     -8.971509    14A     -6.657740    15A     -6.656259
      16A     -6.655130    17A     -1.331930    18A     -1.158781
      19A     -1.047707    20A     -1.035813    21A     -0.952596
      22A     -0.922930    23A     -0.841251    24A     -0.821014
      25A     -0.731964    26A     -0.676204    27A     -0.627920
      28A     -0.570959    29A     -0.542752    30A     -0.527877
      31A     -0.489455    32A     -0.483685    33A     -0.478959
      34A     -0.475489    35A     -0.473631    36A     -0.455756
      37A     -0.450059    38A     -0.427445    39A     -0.406037
      40A     -0.375445    41A     -0.372985    42A     -0.345910
      43A     -0.330453    44A     -0.309595    45A     -0.258410
      46A     -0.238836    47A     -0.223700    48A     -0.210773
      49A     -0.204812

  @DF-RHF Final Energy:  -930.47944554139917

   => Energetics <=

    Nuclear Repulsion Energy =            814.4873819695260408
    One-Electron Energy =               -2910.3224172327677479
    Two-Electron Energy =                1165.3555897218423070
    Total Energy =                       -930.4794455413991727
  Basis Set: (AUG-CC-PVTZ AUX)
    Blend: AUG-CC-PVTZ-RI
    Molecular point group: c1

    Geometry (in Angstrom), charge = -1, multiplicity = 1:

       Center              X                  Y                   Z               Mass
    ------------   -----------------  -----------------  -----------------  -----------------
         S            1.961649365007     0.156234136093     0.011409629351    31.972071174400
         O            2.284214565007    -0.032633963907     1.459613229351    15.994914619570
         O            2.343970565007    -1.285261963907    -0.702134770649    15.994914619570
         O            2.343971565007     1.219986036093    -0.702139770649    15.994914619570
         C            0.164952565007    -0.032635963907    -0.043691770649    12.000000000000
         C           -1.933092434993    -1.253074963907    -0.018268770649    12.000000000000
         C           -1.933092434993     1.187803036093    -0.018267770649    12.000000000000
         C           -0.534388434993     1.175148036093    -0.033242770649    12.000000000000
         C           -0.534389434993    -1.240420963907    -0.033243770649    12.000000000000
         C           -2.619457434993    -0.032635963907     0.000812229351    12.000000000000
         C           -2.686158434993    -2.559507963907     0.019530229351    12.000000000000
         C           -2.686156434993     2.494237036093     0.019530229351    12.000000000000
         H            0.035211565007     2.101500036093    -0.076774770649     1.007825032230
         H            0.035209565007    -2.166772963907    -0.076775770649     1.007825032230
         H           -3.711367434993    -0.032634963907     0.000709229351     1.007825032230
         H           -2.164902434993    -3.327113963907    -0.560787770649     1.007825032230
         H           -2.785528434993    -2.934639963907     1.044990229351     1.007825032230
         H           -3.695032434993    -2.447512963907    -0.391815770649     1.007825032230
         H           -2.785450434993     2.869414036093     1.044981229351     1.007825032230
         H           -2.164942434993     3.261819036093    -0.560858770649     1.007825032230
         H           -3.695059434993     2.382224036093    -0.391738770649     1.007825032230

  Basis Set: AUG-CC-PVTZ
    Blend: AUG-CC-PVTZ
  Basis Set: (AUG-CC-PVTZ AUX)
    Blend: AUG-CC-PVTZ-JKFIT
	 Reference Energy          =    -930.4794455413991727 [Eh]
	 Singles Energy            =      -0.0000000000000000 [Eh]
	 Same-Spin Energy          =      -0.6272106756012077 [Eh]
	 Opposite-Spin Energy      =      -1.8698881415096180 [Eh]
	 Correlation Energy        =      -2.4970988171108255 [Eh]
	 Total Energy              =    -932.9765443585099547 [Eh]

	 ================> DF-SCS-MP2 Energies <==================
	-----------------------------------------------------------
	 SCS Same-Spin Scale       =       0.3333333333333333 [-]
	 SCS Opposite-Spin Scale   =       1.2000000000000000 [-]
	 SCS Same-Spin Energy      =      -0.2090702252004026 [Eh]
	 SCS Opposite-Spin Energy  =      -2.2438657698115416 [Eh]
	 SCS Correlation Energy    =      -2.4529359950119440 [Eh]
	 SCS Total Energy          =    -932.9323815364110715 [Eh]
	-----------------------------------------------------------

  Dipole Moment: [D]
     X:   -10.4728      Y:     1.9225      Z:     0.0516     Total:    10.6479

*** Psi4 exiting successfully. Buy a developer a beer!
