                               Psi4 1.4a3.dev225

  ==> Input File <==

--------------------------------------------------------------------------
#psi4
#
memory 32 gb

molecule  {
-1 1
  S        2.0766110     0.0000000     0.0075520
  O        2.3891470     0.0000020     1.4601760
  O        2.4489030    -1.2526260    -0.7015720
  O        2.4489040     1.2526220    -0.7015770
  C        0.2698850     0.0000000    -0.0431290
  C       -1.8281600    -1.2204390    -0.0177060
  C       -1.8281600     1.2204390    -0.0177050
  C       -0.4294560     1.2077840    -0.0326800
  C       -0.4294570    -1.2077850    -0.0326810
  C       -2.5145250     0.0000000     0.0013750
  C       -2.5812260    -2.5268720     0.0200930
  C       -2.5812240     2.5268730     0.0200930
  H        0.1401440     2.1341360    -0.0762120
  H        0.1401420    -2.1341370    -0.0762130
  H       -3.6064350     0.0000010     0.0012720
  H       -2.0599700    -3.2944780    -0.5602250
  H       -2.5659832    -2.8997888     1.0510476
  H       -3.5901000    -2.4148770    -0.3912530
  H       -2.6805180     2.9020500     1.0455440
  H       -2.0600100     3.2944550    -0.5602960
  H       -3.5901270     2.4148600    -0.3911760
units angstrom
no_reorient  #important for SAPT in psi4, default
symmetry c1  #important for SAPT in psi4, default
}

set PROPERTIES_ORIGIN ["COM"]
properties('MP2/aug-cc-pvtz', properties = ['dipole'])
--------------------------------------------------------------------------

    Molecular point group: c1
  Charge       = -1
  Multiplicity = 1
  Basis Set: AUG-CC-PVTZ
    Blend: AUG-CC-PVTZ
  Basis Set: (AUG-CC-PVTZ AUX)
    Blend: AUG-CC-PVTZ-JKFIT

    Orbital Energies [Eh]
    ---------------------

    Doubly Occupied:

       1A    -92.013791     2A    -20.350703     3A    -20.350676
       4A    -20.349873     5A    -11.134328     6A    -11.134184
       7A    -11.132076     8A    -11.131738     9A    -11.123159
      10A    -11.121976    11A    -11.111388    12A    -11.111313
      13A     -8.974513    14A     -6.660228    15A     -6.659440
      16A     -6.659358    17A     -1.269695    18A     -1.126242
      19A     -1.124426    20A     -1.044790    21A     -0.952369
      22A     -0.922065    23A     -0.840830    24A     -0.819848
      25A     -0.729793    26A     -0.675103    27A     -0.624166
      28A     -0.567348    29A     -0.541598    30A     -0.513358
      31A     -0.487201    32A     -0.477145    33A     -0.475137
      34A     -0.463419    35A     -0.460938    36A     -0.453702
      37A     -0.449098    38A     -0.426525    39A     -0.398977
      40A     -0.372066    41A     -0.370872    42A     -0.331286
      43A     -0.330387    44A     -0.296374    45A     -0.290389
      46A     -0.269302    47A     -0.248677    48A     -0.210314
      49A     -0.208023

  @DF-RHF Final Energy:  -930.53450785172481

   => Energetics <=

    Nuclear Repulsion Energy =            814.2056479545960883
    One-Electron Energy =               -2909.8999065138432343
    Two-Electron Energy =                1165.1597507075221074
    Total Energy =                       -930.5345078517248112
  Basis Set: (AUG-CC-PVTZ AUX)
    Blend: AUG-CC-PVTZ-RI
    Molecular point group: c1

    Geometry (in Angstrom), charge = -1, multiplicity = 1:

       Center              X                  Y                   Z               Mass
    ------------   -----------------  -----------------  -----------------  -----------------
         S            1.969321269161    -0.000011925764     0.007723130736    31.972071174400
         O            2.281857269161    -0.000009925764     1.460347130736    15.994914619570
         O            2.341613269161    -1.252637925764    -0.701400869264    15.994914619570
         O            2.341614269161     1.252610074236    -0.701405869264    15.994914619570
         C            0.162595269161    -0.000011925764    -0.042957869264    12.000000000000
         C           -1.935449730839    -1.220450925764    -0.017534869264    12.000000000000
         C           -1.935449730839     1.220427074236    -0.017533869264    12.000000000000
         C           -0.536745730839     1.207772074236    -0.032508869264    12.000000000000
         C           -0.536746730839    -1.207796925764    -0.032509869264    12.000000000000
         C           -2.621814730839    -0.000011925764     0.001546130736    12.000000000000
         C           -2.688515730839    -2.526883925764     0.020264130736    12.000000000000
         C           -2.688513730839     2.526861074236     0.020264130736    12.000000000000
         H            0.032854269161     2.134124074236    -0.076040869264     1.007825032230
         H            0.032852269161    -2.134148925764    -0.076041869264     1.007825032230
         H           -3.713724730839    -0.000010925764     0.001443130736     1.007825032230
         H           -2.167259730839    -3.294489925764    -0.560053869264     1.007825032230
         H           -2.673272930839    -2.899800725764     1.051218730736     1.007825032230
         H           -3.697389730839    -2.414888925764    -0.391081869264     1.007825032230
         H           -2.787807730839     2.902038074236     1.045715130736     1.007825032230
         H           -2.167299730839     3.294443074236    -0.560124869264     1.007825032230
         H           -3.697416730839     2.414848074236    -0.391004869264     1.007825032230

  Basis Set: AUG-CC-PVTZ
    Blend: AUG-CC-PVTZ
  Basis Set: (AUG-CC-PVTZ AUX)
    Blend: AUG-CC-PVTZ-JKFIT
	 Reference Energy          =    -930.5345078517248112 [Eh]
	 Singles Energy            =      -0.0000000000000000 [Eh]
	 Same-Spin Energy          =      -0.6273685425282722 [Eh]
	 Opposite-Spin Energy      =      -1.8687928026366420 [Eh]
	 Correlation Energy        =      -2.4961613451649143 [Eh]
	 Total Energy              =    -933.0306691968896757 [Eh]

	 ================> DF-SCS-MP2 Energies <==================
	-----------------------------------------------------------
	 SCS Same-Spin Scale       =       0.3333333333333333 [-]
	 SCS Opposite-Spin Scale   =       1.2000000000000000 [-]
	 SCS Same-Spin Energy      =      -0.2091228475094241 [Eh]
	 SCS Opposite-Spin Energy  =      -2.2425513631639702 [Eh]
	 SCS Correlation Energy    =      -2.4516742106733944 [Eh]
	 SCS Total Energy          =    -932.9861820623982567 [Eh]
	-----------------------------------------------------------

  Dipole Moment: [D]
     X:   -10.2775      Y:    -0.0289      Z:    -0.0748     Total:    10.2778

*** Psi4 exiting successfully. Buy a developer a beer!
