                               Psi4 1.4a3.dev225

  ==> Input File <==

--------------------------------------------------------------------------
#psi4
#
memory 32 gb

molecule  {
-1 1
  S        2.0766110     0.0000000     0.0075520
  O        2.3891470     0.0000020     1.4601760
  O        2.4489030    -1.2526260    -0.7015720
  O        2.4489040     1.2526220    -0.7015770
  C        0.2698850     0.0000000    -0.0431290
  C       -1.8281600    -1.2204390    -0.0177060
  C       -1.8281600     1.2204390    -0.0177050
  C       -0.4294560     1.2077840    -0.0326800
  C       -0.4294570    -1.2077850    -0.0326810
  C       -2.5145250     0.0000000     0.0013750
  C       -2.5812260    -2.5268720     0.0200930
  C       -2.5812240     2.5268730     0.0200930
  H        0.1401440     2.1341360    -0.0762120
  H        0.0354682    -1.9639036    -0.0682132
  H       -3.6064350     0.0000010     0.0012720
  H       -2.0599700    -3.2944780    -0.5602250
  H       -2.6805960    -2.9020040     1.0455530
  H       -3.5901000    -2.4148770    -0.3912530
  H       -2.6805180     2.9020500     1.0455440
  H       -2.0600100     3.2944550    -0.5602960
  H       -3.5901270     2.4148600    -0.3911760
units angstrom
no_reorient  #important for SAPT in psi4, default
symmetry c1  #important for SAPT in psi4, default
}

set PROPERTIES_ORIGIN ["COM"]
properties('MP2/aug-cc-pvtz', properties = ['dipole'])
--------------------------------------------------------------------------

    Molecular point group: c1
  Charge       = -1
  Multiplicity = 1
  Basis Set: AUG-CC-PVTZ
    Blend: AUG-CC-PVTZ
  Basis Set: (AUG-CC-PVTZ AUX)
    Blend: AUG-CC-PVTZ-JKFIT

    Orbital Energies [Eh]
    ---------------------

    Doubly Occupied:

       1A    -92.013810     2A    -20.350856     3A    -20.350639
       4A    -20.349883     5A    -11.134454     6A    -11.133835
       7A    -11.132436     8A    -11.131767     9A    -11.122236
      10A    -11.121641    11A    -11.110895    12A    -11.089249
      13A     -8.974521    14A     -6.660229    15A     -6.659453
      16A     -6.659370    17A     -1.269726    18A     -1.126253
      19A     -1.124452    20A     -1.046089    21A     -0.954883
      22A     -0.924082    23A     -0.842257    24A     -0.828997
      25A     -0.732671    26A     -0.685675    27A     -0.625509
      28A     -0.589008    29A     -0.541337    30A     -0.516473
      31A     -0.485541    32A     -0.479723    33A     -0.475446
      34A     -0.463939    35A     -0.463098    36A     -0.460636
      37A     -0.452948    38A     -0.427346    39A     -0.401881
      40A     -0.376921    41A     -0.371394    42A     -0.331338
      43A     -0.330561    44A     -0.296420    45A     -0.290695
      46A     -0.269121    47A     -0.248686    48A     -0.210000
      49A     -0.208556

  @DF-RHF Final Energy:  -930.50160051631906

   => Energetics <=

    Nuclear Repulsion Energy =            815.2436697042917331
    One-Electron Energy =               -2911.7966710218574917
    Two-Electron Energy =                1166.0514008012467002
    Total Energy =                       -930.5016005163190584
  Basis Set: (AUG-CC-PVTZ AUX)
    Blend: AUG-CC-PVTZ-RI
    Molecular point group: c1

    Geometry (in Angstrom), charge = -1, multiplicity = 1:

       Center              X                  Y                   Z               Mass
    ------------   -----------------  -----------------  -----------------  -----------------
         S            1.970515701528    -0.000927104240     0.007709485160    31.972071174400
         O            2.283051701528    -0.000925104240     1.460333485160    15.994914619570
         O            2.342807701528    -1.253553104240    -0.701414514840    15.994914619570
         O            2.342808701528     1.251694895760    -0.701419514840    15.994914619570
         C            0.163789701528    -0.000927104240    -0.042971514840    12.000000000000
         C           -1.934255298472    -1.221366104240    -0.017548514840    12.000000000000
         C           -1.934255298472     1.219511895760    -0.017547514840    12.000000000000
         C           -0.535551298472     1.206856895760    -0.032522514840    12.000000000000
         C           -0.535552298472    -1.208712104240    -0.032523514840    12.000000000000
         C           -2.620620298472    -0.000927104240     0.001532485160    12.000000000000
         C           -2.687321298472    -2.527799104240     0.020250485160    12.000000000000
         C           -2.687319298472     2.525945895760     0.020250485160    12.000000000000
         H            0.034048701528     2.133208895760    -0.076054514840     1.007825032230
         H           -0.070627098472    -1.964830704240    -0.068055714840     1.007825032230
         H           -3.712530298472    -0.000926104240     0.001429485160     1.007825032230
         H           -2.166065298472    -3.295405104240    -0.560067514840     1.007825032230
         H           -2.786691298472    -2.902931104240     1.045710485160     1.007825032230
         H           -3.696195298472    -2.415804104240    -0.391095514840     1.007825032230
         H           -2.786613298472     2.901122895760     1.045701485160     1.007825032230
         H           -2.166105298472     3.293527895760    -0.560138514840     1.007825032230
         H           -3.696222298472     2.413932895760    -0.391018514840     1.007825032230

  Basis Set: AUG-CC-PVTZ
    Blend: AUG-CC-PVTZ
  Basis Set: (AUG-CC-PVTZ AUX)
    Blend: AUG-CC-PVTZ-JKFIT
	 Reference Energy          =    -930.5016005163190584 [Eh]
	 Singles Energy            =      -0.0000000000000000 [Eh]
	 Same-Spin Energy          =      -0.6267501288764957 [Eh]
	 Opposite-Spin Energy      =      -1.8678479115324067 [Eh]
	 Correlation Energy        =      -2.4945980404089023 [Eh]
	 Total Energy              =    -932.9961985567279044 [Eh]

	 ================> DF-SCS-MP2 Energies <==================
	-----------------------------------------------------------
	 SCS Same-Spin Scale       =       0.3333333333333333 [-]
	 SCS Opposite-Spin Scale   =       1.2000000000000000 [-]
	 SCS Same-Spin Energy      =      -0.2089167096254986 [Eh]
	 SCS Opposite-Spin Energy  =      -2.2414174938388878 [Eh]
	 SCS Correlation Energy    =      -2.4503342034643865 [Eh]
	 SCS Total Energy          =    -932.9519347197834804 [Eh]
	-----------------------------------------------------------

  Dipole Moment: [D]
     X:   -10.3414      Y:    -0.0131      Z:    -0.0618     Total:    10.3416

*** Psi4 exiting successfully. Buy a developer a beer!
