                               Psi4 1.4a3.dev225

  ==> Input File <==

--------------------------------------------------------------------------
#psi4
#
memory 32 gb

molecule  {
-1 1
  S        2.0766110     0.0000000     0.0075520
  O        2.3891470     0.0000020     1.4601760
  O        2.4489030    -1.2526260    -0.7015720
  O        2.4489040     1.2526220    -0.7015770
  C        0.1840494     0.0458144    -0.0382885
  C       -1.8281600    -1.2204390    -0.0177060
  C       -1.8281600     1.2204390    -0.0177050
  C       -0.4294560     1.2077840    -0.0326800
  C       -0.4294570    -1.2077850    -0.0326810
  C       -2.5145250     0.0000000     0.0013750
  C       -2.5812260    -2.5268720     0.0200930
  C       -2.5812240     2.5268730     0.0200930
  H        0.1401440     2.1341360    -0.0762120
  H        0.1401420    -2.1341370    -0.0762130
  H       -3.6064350     0.0000010     0.0012720
  H       -2.0599700    -3.2944780    -0.5602250
  H       -2.6805960    -2.9020040     1.0455530
  H       -3.5901000    -2.4148770    -0.3912530
  H       -2.6805180     2.9020500     1.0455440
  H       -2.0600100     3.2944550    -0.5602960
  H       -3.5901270     2.4148600    -0.3911760
units angstrom
no_reorient  #important for SAPT in psi4, default
symmetry c1  #important for SAPT in psi4, default
}

set PROPERTIES_ORIGIN ["COM"]
properties('MP2/aug-cc-pvtz', properties = ['dipole'])
--------------------------------------------------------------------------

    Molecular point group: c1
  Charge       = -1
  Multiplicity = 1
  Basis Set: AUG-CC-PVTZ
    Blend: AUG-CC-PVTZ
  Basis Set: (AUG-CC-PVTZ AUX)
    Blend: AUG-CC-PVTZ-JKFIT

    Orbital Energies [Eh]
    ---------------------

    Doubly Occupied:

       1A    -92.012100     2A    -20.352743     3A    -20.349295
       4A    -20.349087     5A    -11.135323     6A    -11.133465
       7A    -11.131782     8A    -11.131048     9A    -11.120334
      10A    -11.116231    11A    -11.110594    12A    -11.100903
      13A     -8.972427    14A     -6.657961    15A     -6.657310
      16A     -6.657229    17A     -1.266620    18A     -1.125474
      19A     -1.122942    20A     -1.051733    21A     -0.953680
      22A     -0.925444    23A     -0.840077    24A     -0.825431
      25A     -0.716202    26A     -0.677520    27A     -0.622310
      28A     -0.571475    29A     -0.544607    30A     -0.505216
      31A     -0.485299    32A     -0.475591    33A     -0.475004
      34A     -0.461152    35A     -0.459987    36A     -0.455627
      37A     -0.454612    38A     -0.429138    39A     -0.397698
      40A     -0.379062    41A     -0.377235    42A     -0.330675
      43A     -0.329292    44A     -0.294688    45A     -0.289955
      46A     -0.252444    47A     -0.248403    48A     -0.219618
      49A     -0.206522

  @DF-RHF Final Energy:  -930.52655418950314

   => Energetics <=

    Nuclear Repulsion Energy =            813.8063389008009381
    One-Electron Energy =               -2909.1486549986311729
    Two-Electron Energy =                1164.8157619083267491
    Total Energy =                       -930.5265541895032584
  Basis Set: (AUG-CC-PVTZ AUX)
    Blend: AUG-CC-PVTZ-RI
    Molecular point group: c1

    Geometry (in Angstrom), charge = -1, multiplicity = 1:

       Center              X                  Y                   Z               Mass
    ------------   -----------------  -----------------  -----------------  -----------------
         S            1.975512448616    -0.002971167144     0.007439127124    31.972071174400
         O            2.288048448616    -0.002969167144     1.460063127124    15.994914619570
         O            2.347804448616    -1.255597167144    -0.701684872876    15.994914619570
         O            2.347805448616     1.249650832856    -0.701689872876    15.994914619570
         C            0.082950848616     0.042843232856    -0.038401372876    12.000000000000
         C           -1.929258551384    -1.223410167144    -0.017818872876    12.000000000000
         C           -1.929258551384     1.217467832856    -0.017817872876    12.000000000000
         C           -0.530554551384     1.204812832856    -0.032792872876    12.000000000000
         C           -0.530555551384    -1.210756167144    -0.032793872876    12.000000000000
         C           -2.615623551384    -0.002971167144     0.001262127124    12.000000000000
         C           -2.682324551384    -2.529843167144     0.019980127124    12.000000000000
         C           -2.682322551384     2.523901832856     0.019980127124    12.000000000000
         H            0.039045448616     2.131164832856    -0.076324872876     1.007825032230
         H            0.039043448616    -2.137108167144    -0.076325872876     1.007825032230
         H           -3.707533551384    -0.002970167144     0.001159127124     1.007825032230
         H           -2.161068551384    -3.297449167144    -0.560337872876     1.007825032230
         H           -2.781694551384    -2.904975167144     1.045440127124     1.007825032230
         H           -3.691198551384    -2.417848167144    -0.391365872876     1.007825032230
         H           -2.781616551384     2.899078832856     1.045431127124     1.007825032230
         H           -2.161108551384     3.291483832856    -0.560408872876     1.007825032230
         H           -3.691225551384     2.411888832856    -0.391288872876     1.007825032230

  Basis Set: AUG-CC-PVTZ
    Blend: AUG-CC-PVTZ
  Basis Set: (AUG-CC-PVTZ AUX)
    Blend: AUG-CC-PVTZ-JKFIT
	 Reference Energy          =    -930.5265541895031447 [Eh]
	 Singles Energy            =      -0.0000000000000000 [Eh]
	 Same-Spin Energy          =      -0.6273378900281443 [Eh]
	 Opposite-Spin Energy      =      -1.8687278862560821 [Eh]
	 Correlation Energy        =      -2.4960657762842264 [Eh]
	 Total Energy              =    -933.0226199657873849 [Eh]

	 ================> DF-SCS-MP2 Energies <==================
	-----------------------------------------------------------
	 SCS Same-Spin Scale       =       0.3333333333333333 [-]
	 SCS Opposite-Spin Scale   =       1.2000000000000000 [-]
	 SCS Same-Spin Energy      =      -0.2091126300093814 [Eh]
	 SCS Opposite-Spin Energy  =      -2.2424734635072983 [Eh]
	 SCS Correlation Energy    =      -2.4515860935166796 [Eh]
	 SCS Total Energy          =    -932.9781402830197976 [Eh]
	-----------------------------------------------------------

  Dipole Moment: [D]
     X:   -10.2504      Y:    -0.0231      Z:    -0.0811     Total:    10.2508

*** Psi4 exiting successfully. Buy a developer a beer!
