                               Psi4 1.4a3.dev225

  ==> Input File <==

--------------------------------------------------------------------------
#psi4
#
memory 32 gb

molecule  {
-1 1
  S        2.0766110     0.0000000     0.0075520
  O        2.3891470     0.0000020     1.4601760
  O        2.4489030    -1.2526260    -0.7015720
  O        2.4489040     1.2526220    -0.7015770
  C        0.2698850     0.0000000    -0.0431290
  C       -1.8281600    -1.2204390    -0.0177060
  C       -1.8281600     1.2204390    -0.0177050
  C       -0.4294560     1.2077840    -0.0326800
  C       -0.4294570    -1.2077850    -0.0326810
  C       -2.5145250     0.0000000     0.0013750
  C       -2.5812260    -2.5268720     0.0200930
  C       -2.5812240     2.5268730     0.0200930
  H        0.1401440     2.1341360    -0.0762120
  H        0.1401420    -2.1341370    -0.0762130
  H       -3.6064350     0.0000010     0.0012720
  H       -2.0599700    -3.2944780    -0.5602250
  H       -2.6987220    -2.9704317     1.2326067
  H       -3.5901000    -2.4148770    -0.3912530
  H       -2.6805180     2.9020500     1.0455440
  H       -2.0600100     3.2944550    -0.5602960
  H       -3.5901270     2.4148600    -0.3911760
units angstrom
no_reorient  #important for SAPT in psi4, default
symmetry c1  #important for SAPT in psi4, default
}

set PROPERTIES_ORIGIN ["COM"]
properties('MP2/aug-cc-pvtz', properties = ['dipole'])
--------------------------------------------------------------------------

    Molecular point group: c1
  Charge       = -1
  Multiplicity = 1
  Basis Set: AUG-CC-PVTZ
    Blend: AUG-CC-PVTZ
  Basis Set: (AUG-CC-PVTZ AUX)
    Blend: AUG-CC-PVTZ-JKFIT

    Orbital Energies [Eh]
    ---------------------

    Doubly Occupied:

       1A    -92.014600     2A    -20.351472     3A    -20.351428
       4A    -20.350522     5A    -11.155111     6A    -11.136385
       7A    -11.135587     8A    -11.132717     9A    -11.124273
      10A    -11.124220    11A    -11.113662    12A    -11.113555
      13A     -8.975314    14A     -6.661034    15A     -6.660241
      16A     -6.660155    17A     -1.270434    18A     -1.126999
      19A     -1.125104    20A     -1.046076    21A     -0.951204
      22A     -0.922142    23A     -0.837322    24A     -0.816130
      25A     -0.731031    26A     -0.674507    27A     -0.625177
      28A     -0.568602    29A     -0.543022    30A     -0.514501
      31A     -0.482392    32A     -0.477221    33A     -0.464428
      34A     -0.462260    35A     -0.457086    36A     -0.452713
      37A     -0.441505    38A     -0.428020    39A     -0.400756
      40A     -0.373974    41A     -0.367262    42A     -0.331975
      43A     -0.331007    44A     -0.296875    45A     -0.291165
      46A     -0.270244    47A     -0.249370    48A     -0.211371
      49A     -0.208871

  @DF-RHF Final Energy:  -930.51627795059346

   => Energetics <=

    Nuclear Repulsion Energy =            813.2507864057981806
    One-Electron Energy =               -2907.9120815029205005
    Two-Electron Energy =                1164.1450171465285166
    Total Energy =                       -930.5162779505935760
  Basis Set: (AUG-CC-PVTZ AUX)
    Blend: AUG-CC-PVTZ-RI
    Molecular point group: c1

    Geometry (in Angstrom), charge = -1, multiplicity = 1:

       Center              X                  Y                   Z               Mass
    ------------   -----------------  -----------------  -----------------  -----------------
         S            1.970044284243     0.000372859108     0.006734196320    31.972071174400
         O            2.282580284243     0.000374859108     1.459358196320    15.994914619570
         O            2.342336284243    -1.252253140892    -0.702389803680    15.994914619570
         O            2.342337284243     1.252994859108    -0.702394803680    15.994914619570
         C            0.163318284243     0.000372859108    -0.043946803680    12.000000000000
         C           -1.934726715757    -1.220066140892    -0.018523803680    12.000000000000
         C           -1.934726715757     1.220811859108    -0.018522803680    12.000000000000
         C           -0.536022715757     1.208156859108    -0.033497803680    12.000000000000
         C           -0.536023715757    -1.207412140892    -0.033498803680    12.000000000000
         C           -2.621091715757     0.000372859108     0.000557196320    12.000000000000
         C           -2.687792715757    -2.526499140892     0.019275196320    12.000000000000
         C           -2.687790715757     2.527245859108     0.019275196320    12.000000000000
         H            0.033577284243     2.134508859108    -0.077029803680     1.007825032230
         H            0.033575284243    -2.133764140892    -0.077030803680     1.007825032230
         H           -3.713001715757     0.000373859108     0.000454196320     1.007825032230
         H           -2.166536715757    -3.294105140892    -0.561042803680     1.007825032230
         H           -2.805288715757    -2.970058840892     1.231788896320     1.007825032230
         H           -3.696666715757    -2.414504140892    -0.392070803680     1.007825032230
         H           -2.787084715757     2.902422859108     1.044726196320     1.007825032230
         H           -2.166576715757     3.294827859108    -0.561113803680     1.007825032230
         H           -3.696693715757     2.415232859108    -0.391993803680     1.007825032230

  Basis Set: AUG-CC-PVTZ
    Blend: AUG-CC-PVTZ
  Basis Set: (AUG-CC-PVTZ AUX)
    Blend: AUG-CC-PVTZ-JKFIT
	 Reference Energy          =    -930.5162779505934623 [Eh]
	 Singles Energy            =      -0.0000000000000000 [Eh]
	 Same-Spin Energy          =      -0.6272252094813504 [Eh]
	 Opposite-Spin Energy      =      -1.8701244308276970 [Eh]
	 Correlation Energy        =      -2.4973496403090474 [Eh]
	 Total Energy              =    -933.0136275909025017 [Eh]

	 ================> DF-SCS-MP2 Energies <==================
	-----------------------------------------------------------
	 SCS Same-Spin Scale       =       0.3333333333333333 [-]
	 SCS Opposite-Spin Scale   =       1.2000000000000000 [-]
	 SCS Same-Spin Energy      =      -0.2090750698271168 [Eh]
	 SCS Opposite-Spin Energy  =      -2.2441493169932363 [Eh]
	 SCS Correlation Energy    =      -2.4532243868203532 [Eh]
	 SCS Total Energy          =    -932.9695023374138145 [Eh]
	-----------------------------------------------------------

  Dipole Moment: [D]
     X:   -10.2071      Y:     0.1620      Z:    -0.1976     Total:    10.2103

*** Psi4 exiting successfully. Buy a developer a beer!
