                               Psi4 1.4a3.dev225

  ==> Input File <==

--------------------------------------------------------------------------
#psi4
#
memory 32 gb

molecule  {
-1 1
  S        2.0766110     0.0000000     0.0075520
  O        2.3891470     0.0000020     1.4601760
  O        2.4489030    -1.2526260    -0.7015720
  O        2.4489040     1.2526220    -0.7015770
  C        0.2698850     0.0000000    -0.0431290
  C       -1.8281600    -1.2204390    -0.0177060
  C       -1.8281600     1.2204390    -0.0177050
  C       -0.4294560     1.2077840    -0.0326800
  C       -0.4294570    -1.2077850    -0.0326810
  C       -2.5145250     0.0000000     0.0013750
  C       -2.5812260    -2.5268720     0.0200930
  C       -2.5812240     2.5268730     0.0200930
  H        0.1401440     2.1341360    -0.0762120
  H        0.1401420    -2.1341370    -0.0762130
  H       -3.6064350     0.0000010     0.0012720
  H       -2.0599700    -3.2944780    -0.5602250
  H       -2.7186201    -2.9018290     1.0412182
  H       -3.5901000    -2.4148770    -0.3912530
  H       -2.6805180     2.9020500     1.0455440
  H       -2.0600100     3.2944550    -0.5602960
  H       -3.5901270     2.4148600    -0.3911760
units angstrom
no_reorient  #important for SAPT in psi4, default
symmetry c1  #important for SAPT in psi4, default
}

set PROPERTIES_ORIGIN ["COM"]
properties('MP2/aug-cc-pvtz', properties = ['dipole'])
--------------------------------------------------------------------------

    Molecular point group: c1
  Charge       = -1
  Multiplicity = 1
  Basis Set: AUG-CC-PVTZ
    Blend: AUG-CC-PVTZ
  Basis Set: (AUG-CC-PVTZ AUX)
    Blend: AUG-CC-PVTZ-JKFIT

    Orbital Energies [Eh]
    ---------------------

    Doubly Occupied:

       1A    -92.013899     2A    -20.350804     3A    -20.350782
       4A    -20.349931     5A    -11.134638     6A    -11.134541
       7A    -11.131948     8A    -11.131861     9A    -11.123248
      10A    -11.122561    11A    -11.112048    12A    -11.111972
      13A     -8.974619    14A     -6.660335    15A     -6.659547
      16A     -6.659463    17A     -1.269788    18A     -1.126345
      19A     -1.124500    20A     -1.044967    21A     -0.951998
      22A     -0.922234    23A     -0.840730    24A     -0.820516
      25A     -0.730231    26A     -0.675715    27A     -0.624891
      28A     -0.567949    29A     -0.541332    30A     -0.513564
      31A     -0.484738    32A     -0.475249    33A     -0.474901
      34A     -0.463093    35A     -0.461366    36A     -0.454779
      37A     -0.450489    38A     -0.426162    39A     -0.399417
      40A     -0.372443    41A     -0.371855    42A     -0.331381
      43A     -0.330496    44A     -0.296522    45A     -0.290504
      46A     -0.269465    47A     -0.248760    48A     -0.210447
      49A     -0.208869

  @DF-RHF Final Energy:  -930.53554929313430

   => Energetics <=

    Nuclear Repulsion Energy =            814.0169924154689625
    One-Electron Energy =               -2909.5093027504362908
    Two-Electron Energy =                1164.9567610418330332
    Total Energy =                       -930.5355492931344088
  Basis Set: (AUG-CC-PVTZ AUX)
    Blend: AUG-CC-PVTZ-RI
    Molecular point group: c1

    Geometry (in Angstrom), charge = -1, multiplicity = 1:

       Center              X                  Y                   Z               Mass
    ------------   -----------------  -----------------  -----------------  -----------------
         S            1.970152667221    -0.000000812997     0.007776670503    31.972071174400
         O            2.282688667221     0.000001187003     1.460400670503    15.994914619570
         O            2.342444667221    -1.252626812997    -0.701347329497    15.994914619570
         O            2.342445667221     1.252621187003    -0.701352329497    15.994914619570
         C            0.163426667221    -0.000000812997    -0.042904329497    12.000000000000
         C           -1.934618332779    -1.220439812997    -0.017481329497    12.000000000000
         C           -1.934618332779     1.220438187003    -0.017480329497    12.000000000000
         C           -0.535914332779     1.207783187003    -0.032455329497    12.000000000000
         C           -0.535915332779    -1.207785812997    -0.032456329497    12.000000000000
         C           -2.620983332779    -0.000000812997     0.001599670503    12.000000000000
         C           -2.687684332779    -2.526872812997     0.020317670503    12.000000000000
         C           -2.687682332779     2.526872187003     0.020317670503    12.000000000000
         H            0.033685667221     2.134135187003    -0.075987329497     1.007825032230
         H            0.033683667221    -2.134137812997    -0.075988329497     1.007825032230
         H           -3.712893332779     0.000000187003     0.001496670503     1.007825032230
         H           -2.166428332779    -3.294478812997    -0.560000329497     1.007825032230
         H           -2.825078432779    -2.901829812997     1.041442870503     1.007825032230
         H           -3.696558332779    -2.414877812997    -0.391028329497     1.007825032230
         H           -2.786976332779     2.902049187003     1.045768670503     1.007825032230
         H           -2.166468332779     3.294454187003    -0.560071329497     1.007825032230
         H           -3.696585332779     2.414859187003    -0.390951329497     1.007825032230

  Basis Set: AUG-CC-PVTZ
    Blend: AUG-CC-PVTZ
  Basis Set: (AUG-CC-PVTZ AUX)
    Blend: AUG-CC-PVTZ-JKFIT
	 Reference Energy          =    -930.5355492931342951 [Eh]
	 Singles Energy            =      -0.0000000000000000 [Eh]
	 Same-Spin Energy          =      -0.6272774300834145 [Eh]
	 Opposite-Spin Energy      =      -1.8686503426969465 [Eh]
	 Correlation Energy        =      -2.4959277727803610 [Eh]
	 Total Energy              =    -933.0314770659146006 [Eh]

	 ================> DF-SCS-MP2 Energies <==================
	-----------------------------------------------------------
	 SCS Same-Spin Scale       =       0.3333333333333333 [-]
	 SCS Opposite-Spin Scale   =       1.2000000000000000 [-]
	 SCS Same-Spin Energy      =      -0.2090924766944715 [Eh]
	 SCS Opposite-Spin Energy  =      -2.2423804112363359 [Eh]
	 SCS Correlation Energy    =      -2.4514728879308074 [Eh]
	 SCS Total Energy          =    -932.9870221810650719 [Eh]
	-----------------------------------------------------------

  Dipole Moment: [D]
     X:   -10.3045      Y:     0.0094      Z:    -0.0670     Total:    10.3047

*** Psi4 exiting successfully. Buy a developer a beer!
