                               Psi4 1.4a3.dev225

  ==> Input File <==

--------------------------------------------------------------------------
#psi4
#
memory 32 gb

molecule  {
-1 1
  S        2.0766110     0.0000000     0.0075520
  O        2.3891470     0.0000020     1.4601760
  O        2.4489030    -1.2526260    -0.7015720
  O        2.4489040     1.2526220    -0.7015770
  C        0.2698850     0.0000000    -0.0431290
  C       -1.8281600    -1.2204390    -0.0177060
  C       -1.8281600     1.2204390    -0.0177050
  C       -0.4294560     1.2077840    -0.0326800
  C       -0.4294570    -1.2077850    -0.0326810
  C       -2.5145250     0.0000000     0.0013750
  C       -2.5812260    -2.5268720     0.0200930
  C       -2.5812240     2.5268730     0.0200930
  H        0.1401440     2.1341360    -0.0762120
  H        0.1401420    -2.1341370    -0.0762130
  H       -3.6064350     0.0000010     0.0012720
  H       -2.0599700    -3.2944780    -0.5602250
  H       -2.6042310    -2.9009833     1.0504707
  H       -3.5901000    -2.4148770    -0.3912530
  H       -2.6805180     2.9020500     1.0455440
  H       -2.0600100     3.2944550    -0.5602960
  H       -3.5901270     2.4148600    -0.3911760
units angstrom
no_reorient  #important for SAPT in psi4, default
symmetry c1  #important for SAPT in psi4, default
}

set PROPERTIES_ORIGIN ["COM"]
properties('MP2/aug-cc-pvtz', properties = ['dipole'])
--------------------------------------------------------------------------

    Molecular point group: c1
  Charge       = -1
  Multiplicity = 1
  Basis Set: AUG-CC-PVTZ
    Blend: AUG-CC-PVTZ
  Basis Set: (AUG-CC-PVTZ AUX)
    Blend: AUG-CC-PVTZ-JKFIT

    Orbital Energies [Eh]
    ---------------------

    Doubly Occupied:

       1A    -92.013816     2A    -20.350726     3A    -20.350702
       4A    -20.349886     5A    -11.134381     6A    -11.134260
       7A    -11.132004     8A    -11.131791     9A    -11.123175
      10A    -11.122131    11A    -11.111559    12A    -11.111486
      13A     -8.974538    14A     -6.660253    15A     -6.659465
      16A     -6.659382    17A     -1.269717    18A     -1.126266
      19A     -1.124443    20A     -1.044826    21A     -0.952247
      22A     -0.922098    23A     -0.840773    24A     -0.819995
      25A     -0.729895    26A     -0.675243    27A     -0.624332
      28A     -0.567494    29A     -0.541417    30A     -0.513377
      31A     -0.486313    32A     -0.476487    33A     -0.475144
      34A     -0.463375    35A     -0.461064    36A     -0.454219
      37A     -0.449628    38A     -0.426514    39A     -0.399085
      40A     -0.372076    41A     -0.371306    42A     -0.331308
      43A     -0.330415    44A     -0.296417    45A     -0.290417
      46A     -0.269341    47A     -0.248696    48A     -0.210348
      49A     -0.208270

  @DF-RHF Final Energy:  -930.53518006406887

   => Energetics <=

    Nuclear Repulsion Energy =            814.1553376405787503
    One-Electron Energy =               -2909.7968351757522214
    Two-Electron Energy =                1165.1063174711048305
    Total Energy =                       -930.5351800640687543
  Basis Set: (AUG-CC-PVTZ AUX)
    Blend: AUG-CC-PVTZ-RI
    Molecular point group: c1

    Geometry (in Angstrom), charge = -1, multiplicity = 1:

       Center              X                  Y                   Z               Mass
    ------------   -----------------  -----------------  -----------------  -----------------
         S            1.969529601135    -0.000005419441     0.007726273053    31.972071174400
         O            2.282065601135    -0.000003419441     1.460350273053    15.994914619570
         O            2.341821601135    -1.252631419441    -0.701397726947    15.994914619570
         O            2.341822601135     1.252616580559    -0.701402726947    15.994914619570
         C            0.162803601135    -0.000005419441    -0.042954726947    12.000000000000
         C           -1.935241398865    -1.220444419441    -0.017531726947    12.000000000000
         C           -1.935241398865     1.220433580559    -0.017530726947    12.000000000000
         C           -0.536537398865     1.207778580559    -0.032505726947    12.000000000000
         C           -0.536538398865    -1.207790419441    -0.032506726947    12.000000000000
         C           -2.621606398865    -0.000005419441     0.001549273053    12.000000000000
         C           -2.688307398865    -2.526877419441     0.020267273053    12.000000000000
         C           -2.688305398865     2.526867580559     0.020267273053    12.000000000000
         H            0.033062601135     2.134130580559    -0.076037726947     1.007825032230
         H            0.033060601135    -2.134142419441    -0.076038726947     1.007825032230
         H           -3.713516398865    -0.000004419441     0.001446273053     1.007825032230
         H           -2.167051398865    -3.294483419441    -0.560050726947     1.007825032230
         H           -2.711312398865    -2.900988719441     1.050644973053     1.007825032230
         H           -3.697181398865    -2.414882419441    -0.391078726947     1.007825032230
         H           -2.787599398865     2.902044580559     1.045718273053     1.007825032230
         H           -2.167091398865     3.294449580559    -0.560121726947     1.007825032230
         H           -3.697208398865     2.414854580559    -0.391001726947     1.007825032230

  Basis Set: AUG-CC-PVTZ
    Blend: AUG-CC-PVTZ
  Basis Set: (AUG-CC-PVTZ AUX)
    Blend: AUG-CC-PVTZ-JKFIT
	 Reference Energy          =    -930.5351800640688680 [Eh]
	 Singles Energy            =      -0.0000000000000000 [Eh]
	 Same-Spin Energy          =      -0.6273250287148485 [Eh]
	 Opposite-Spin Energy      =      -1.8687309107018129 [Eh]
	 Correlation Energy        =      -2.4960559394166615 [Eh]
	 Total Energy              =    -933.0312360034855601 [Eh]

	 ================> DF-SCS-MP2 Energies <==================
	-----------------------------------------------------------
	 SCS Same-Spin Scale       =       0.3333333333333333 [-]
	 SCS Opposite-Spin Scale   =       1.2000000000000000 [-]
	 SCS Same-Spin Energy      =      -0.2091083429049495 [Eh]
	 SCS Opposite-Spin Energy  =      -2.2424770928421753 [Eh]
	 SCS Correlation Energy    =      -2.4515854357471247 [Eh]
	 SCS Total Energy          =    -932.9867654998159878 [Eh]
	-----------------------------------------------------------

  Dipole Moment: [D]
     X:   -10.2836      Y:    -0.0192      Z:    -0.0719     Total:    10.2838

*** Psi4 exiting successfully. Buy a developer a beer!
