                               Psi4 1.4a3.dev225

  ==> Input File <==

--------------------------------------------------------------------------
#psi4
#
memory 32 gb

molecule  {
-1 1
  S        2.0722979    -0.1260414     0.0042934
  O        2.3891470     0.0000020     1.4601760
  O        2.4489030    -1.2526260    -0.7015720
  O        2.4489040     1.2526220    -0.7015770
  C        0.2698850     0.0000000    -0.0431290
  C       -1.8281600    -1.2204390    -0.0177060
  C       -1.8281600     1.2204390    -0.0177050
  C       -0.4294560     1.2077840    -0.0326800
  C       -0.4294570    -1.2077850    -0.0326810
  C       -2.5145250     0.0000000     0.0013750
  C       -2.5812260    -2.5268720     0.0200930
  C       -2.5812240     2.5268730     0.0200930
  H        0.1401440     2.1341360    -0.0762120
  H        0.1401420    -2.1341370    -0.0762130
  H       -3.6064350     0.0000010     0.0012720
  H       -2.0599700    -3.2944780    -0.5602250
  H       -2.6805960    -2.9020040     1.0455530
  H       -3.5901000    -2.4148770    -0.3912530
  H       -2.6805180     2.9020500     1.0455440
  H       -2.0600100     3.2944550    -0.5602960
  H       -3.5901270     2.4148600    -0.3911760
units angstrom
no_reorient  #important for SAPT in psi4, default
symmetry c1  #important for SAPT in psi4, default
}

set PROPERTIES_ORIGIN ["COM"]
properties('MP2/aug-cc-pvtz', properties = ['dipole'])
--------------------------------------------------------------------------

    Molecular point group: c1
  Charge       = -1
  Multiplicity = 1
  Basis Set: AUG-CC-PVTZ
    Blend: AUG-CC-PVTZ
  Basis Set: (AUG-CC-PVTZ AUX)
    Blend: AUG-CC-PVTZ-JKFIT

    Orbital Energies [Eh]
    ---------------------

    Doubly Occupied:

       1A    -92.010125     2A    -20.378326     3A    -20.348937
       4A    -20.323721     5A    -11.135026     6A    -11.134416
       7A    -11.132837     8A    -11.131276     9A    -11.123985
      10A    -11.122631    11A    -11.112623    12A    -11.111684
      13A     -8.973036    14A     -6.658842    15A     -6.658180
      16A     -6.657171    17A     -1.301745    18A     -1.153309
      19A     -1.069780    20A     -1.044771    21A     -0.952300
      22A     -0.922536    23A     -0.840956    24A     -0.820640
      25A     -0.730947    26A     -0.675847    27A     -0.626172
      28A     -0.569157    29A     -0.541811    30A     -0.520740
      31A     -0.485702    32A     -0.477036    33A     -0.475331
      34A     -0.474079    35A     -0.467043    36A     -0.455273
      37A     -0.450098    38A     -0.426905    39A     -0.402302
      40A     -0.373675    41A     -0.372530    42A     -0.339974
      43A     -0.329730    44A     -0.308753    45A     -0.271150
      46A     -0.253223    47A     -0.235729    48A     -0.210687
      49A     -0.207317

  @DF-RHF Final Energy:  -930.51063447746401

   => Energetics <=

    Nuclear Repulsion Energy =            814.2583470548340756
    One-Electron Energy =               -2909.9378355026892677
    Two-Electron Energy =                1165.1688539703909555
    Total Energy =                       -930.5106344774640093
  Basis Set: (AUG-CC-PVTZ AUX)
    Blend: AUG-CC-PVTZ-RI
    Molecular point group: c1

    Geometry (in Angstrom), charge = -1, multiplicity = 1:

       Center              X                  Y                   Z               Mass
    ------------   -----------------  -----------------  -----------------  -----------------
         S            1.966377742574    -0.104261739083     0.005057534157    31.972071174400
         O            2.283226842574     0.021781660917     1.460940134157    15.994914619570
         O            2.342982842574    -1.230846339083    -0.700807865843    15.994914619570
         O            2.342983842574     1.274401660917    -0.700812865843    15.994914619570
         C            0.163964842574     0.021779660917    -0.042364865843    12.000000000000
         C           -1.934080157426    -1.198659339083    -0.016941865843    12.000000000000
         C           -1.934080157426     1.242218660917    -0.016940865843    12.000000000000
         C           -0.535376157426     1.229563660917    -0.031915865843    12.000000000000
         C           -0.535377157426    -1.186005339083    -0.031916865843    12.000000000000
         C           -2.620445157426     0.021779660917     0.002139134157    12.000000000000
         C           -2.687146157426    -2.505092339083     0.020857134157    12.000000000000
         C           -2.687144157426     2.548652660917     0.020857134157    12.000000000000
         H            0.034223842574     2.155915660917    -0.075447865843     1.007825032230
         H            0.034221842574    -2.112357339083    -0.075448865843     1.007825032230
         H           -3.712355157426     0.021780660917     0.002036134157     1.007825032230
         H           -2.165890157426    -3.272698339083    -0.559460865843     1.007825032230
         H           -2.786516157426    -2.880224339083     1.046317134157     1.007825032230
         H           -3.696020157426    -2.393097339083    -0.390488865843     1.007825032230
         H           -2.786438157426     2.923829660917     1.046308134157     1.007825032230
         H           -2.165930157426     3.316234660917    -0.559531865843     1.007825032230
         H           -3.696047157426     2.436639660917    -0.390411865843     1.007825032230

  Basis Set: AUG-CC-PVTZ
    Blend: AUG-CC-PVTZ
  Basis Set: (AUG-CC-PVTZ AUX)
    Blend: AUG-CC-PVTZ-JKFIT
	 Reference Energy          =    -930.5106344774640093 [Eh]
	 Singles Energy            =      -0.0000000000000000 [Eh]
	 Same-Spin Energy          =      -0.6272010686816937 [Eh]
	 Opposite-Spin Energy      =      -1.8691335412222370 [Eh]
	 Correlation Energy        =      -2.4963346099039305 [Eh]
	 Total Energy              =    -933.0069690873679065 [Eh]

	 ================> DF-SCS-MP2 Energies <==================
	-----------------------------------------------------------
	 SCS Same-Spin Scale       =       0.3333333333333333 [-]
	 SCS Opposite-Spin Scale   =       1.2000000000000000 [-]
	 SCS Same-Spin Energy      =      -0.2090670228938979 [Eh]
	 SCS Opposite-Spin Energy  =      -2.2429602494666843 [Eh]
	 SCS Correlation Energy    =      -2.4520272723605823 [Eh]
	 SCS Total Energy          =    -932.9626617498246333 [Eh]
	-----------------------------------------------------------

  Dipole Moment: [D]
     X:   -10.3733      Y:    -1.2847      Z:    -0.0709     Total:    10.4528

*** Psi4 exiting successfully. Buy a developer a beer!
