                               Psi4 1.4a3.dev225

  ==> Input File <==

--------------------------------------------------------------------------
#psi4
#
memory 32 gb

molecule  {
-1 1
  S        2.0766110     0.0000000     0.0075520
  O        2.4267964     0.0959153     1.4483732
  O        2.4489030    -1.2526260    -0.7015720
  O        2.4489040     1.2526220    -0.7015770
  C        0.2698850     0.0000000    -0.0431290
  C       -1.8281600    -1.2204390    -0.0177060
  C       -1.8281600     1.2204390    -0.0177050
  C       -0.4294560     1.2077840    -0.0326800
  C       -0.4294570    -1.2077850    -0.0326810
  C       -2.5145250     0.0000000     0.0013750
  C       -2.5812260    -2.5268720     0.0200930
  C       -2.5812240     2.5268730     0.0200930
  H        0.1401440     2.1341360    -0.0762120
  H        0.1401420    -2.1341370    -0.0762130
  H       -3.6064350     0.0000010     0.0012720
  H       -2.0599700    -3.2944780    -0.5602250
  H       -2.6805960    -2.9020040     1.0455530
  H       -3.5901000    -2.4148770    -0.3912530
  H       -2.6805180     2.9020500     1.0455440
  H       -2.0600100     3.2944550    -0.5602960
  H       -3.5901270     2.4148600    -0.3911760
units angstrom
no_reorient  #important for SAPT in psi4, default
symmetry c1  #important for SAPT in psi4, default
}

set PROPERTIES_ORIGIN ["COM"]
properties('MP2/aug-cc-pvtz', properties = ['dipole'])
--------------------------------------------------------------------------

    Molecular point group: c1
  Charge       = -1
  Multiplicity = 1
  Basis Set: AUG-CC-PVTZ
    Blend: AUG-CC-PVTZ
  Basis Set: (AUG-CC-PVTZ AUX)
    Blend: AUG-CC-PVTZ-JKFIT

    Orbital Energies [Eh]
    ---------------------

    Doubly Occupied:

       1A    -92.013008     2A    -20.354942     3A    -20.348800
       4A    -20.343281     5A    -11.135389     6A    -11.135201
       7A    -11.132703     8A    -11.132299     9A    -11.124662
      10A    -11.123521    11A    -11.113219    12A    -11.112836
      13A     -8.973804    14A     -6.659513    15A     -6.658776
      16A     -6.658592    17A     -1.269019    18A     -1.129651
      19A     -1.117722    20A     -1.045901    21A     -0.952860
      22A     -0.923234    23A     -0.841479    24A     -0.821162
      25A     -0.731154    26A     -0.676405    27A     -0.624906
      28A     -0.568481    29A     -0.542113    30A     -0.513171
      31A     -0.485732    32A     -0.475888    33A     -0.475809
      34A     -0.463410    35A     -0.459198    36A     -0.455379
      37A     -0.451090    38A     -0.427016    39A     -0.399981
      40A     -0.373114    41A     -0.372377    42A     -0.332219
      43A     -0.327434    44A     -0.296562    45A     -0.287277
      46A     -0.270378    47A     -0.246288    48A     -0.211620
      49A     -0.209445

  @DF-RHF Final Energy:  -930.53462423708436

   => Energetics <=

    Nuclear Repulsion Energy =            813.7724246836675093
    One-Electron Energy =               -2909.0180514312169180
    Two-Electron Energy =                1164.7110025104650504
    Total Energy =                       -930.5346242370844720
  Basis Set: (AUG-CC-PVTZ AUX)
    Blend: AUG-CC-PVTZ-RI
    Molecular point group: c1

    Geometry (in Angstrom), charge = -1, multiplicity = 1:

       Center              X                  Y                   Z               Mass
    ------------   -----------------  -----------------  -----------------  -----------------
         S            1.966690903552    -0.008291206737     0.008773367303    31.972071174400
         O            2.316876303552     0.087624093263     1.449594567303    15.994914619570
         O            2.338982903552    -1.260917206737    -0.700350632697    15.994914619570
         O            2.338983903552     1.244330793263    -0.700355632697    15.994914619570
         C            0.159964903552    -0.008291206737    -0.041907632697    12.000000000000
         C           -1.938080096448    -1.228730206737    -0.016484632697    12.000000000000
         C           -1.938080096448     1.212147793263    -0.016483632697    12.000000000000
         C           -0.539376096448     1.199492793263    -0.031458632697    12.000000000000
         C           -0.539377096448    -1.216076206737    -0.031459632697    12.000000000000
         C           -2.624445096448    -0.008291206737     0.002596367303    12.000000000000
         C           -2.691146096448    -2.535163206737     0.021314367303    12.000000000000
         C           -2.691144096448     2.518581793263     0.021314367303    12.000000000000
         H            0.030223903552     2.125844793263    -0.074990632697     1.007825032230
         H            0.030221903552    -2.142428206737    -0.074991632697     1.007825032230
         H           -3.716355096448    -0.008290206737     0.002493367303     1.007825032230
         H           -2.169890096448    -3.302769206737    -0.559003632697     1.007825032230
         H           -2.790516096448    -2.910295206737     1.046774367303     1.007825032230
         H           -3.700020096448    -2.423168206737    -0.390031632697     1.007825032230
         H           -2.790438096448     2.893758793263     1.046765367303     1.007825032230
         H           -2.169930096448     3.286163793263    -0.559074632697     1.007825032230
         H           -3.700047096448     2.406568793263    -0.389954632697     1.007825032230

  Basis Set: AUG-CC-PVTZ
    Blend: AUG-CC-PVTZ
  Basis Set: (AUG-CC-PVTZ AUX)
    Blend: AUG-CC-PVTZ-JKFIT
	 Reference Energy          =    -930.5346242370843584 [Eh]
	 Singles Energy            =      -0.0000000000000000 [Eh]
	 Same-Spin Energy          =      -0.6272349170882865 [Eh]
	 Opposite-Spin Energy      =      -1.8685659931062690 [Eh]
	 Correlation Energy        =      -2.4958009101945553 [Eh]
	 Total Energy              =    -933.0304251472789474 [Eh]

	 ================> DF-SCS-MP2 Energies <==================
	-----------------------------------------------------------
	 SCS Same-Spin Scale       =       0.3333333333333333 [-]
	 SCS Opposite-Spin Scale   =       1.2000000000000000 [-]
	 SCS Same-Spin Energy      =      -0.2090783056960955 [Eh]
	 SCS Opposite-Spin Energy  =      -2.2422791917275227 [Eh]
	 SCS Correlation Energy    =      -2.4513574974236181 [Eh]
	 SCS Total Energy          =    -932.9859817345079591 [Eh]
	-----------------------------------------------------------

  Dipole Moment: [D]
     X:   -10.4410      Y:    -0.2196      Z:    -0.0468     Total:    10.4435

*** Psi4 exiting successfully. Buy a developer a beer!
