                               Psi4 1.4a3.dev225

  ==> Input File <==

--------------------------------------------------------------------------
#psi4
#
memory 32 gb

molecule  {
-1 1
  S        2.0766110     0.0000000     0.0075520
  O        2.3891470     0.0000020     1.4601760
  O        2.4489030    -1.2526260    -0.7015720
  O        2.4739441     1.3368724    -0.7492725
  C        0.2698850     0.0000000    -0.0431290
  C       -1.8281600    -1.2204390    -0.0177060
  C       -1.8281600     1.2204390    -0.0177050
  C       -0.4294560     1.2077840    -0.0326800
  C       -0.4294570    -1.2077850    -0.0326810
  C       -2.5145250     0.0000000     0.0013750
  C       -2.5812260    -2.5268720     0.0200930
  C       -2.5812240     2.5268730     0.0200930
  H        0.1401440     2.1341360    -0.0762120
  H        0.1401420    -2.1341370    -0.0762130
  H       -3.6064350     0.0000010     0.0012720
  H       -2.0599700    -3.2944780    -0.5602250
  H       -2.6805960    -2.9020040     1.0455530
  H       -3.5901000    -2.4148770    -0.3912530
  H       -2.6805180     2.9020500     1.0455440
  H       -2.0600100     3.2944550    -0.5602960
  H       -3.5901270     2.4148600    -0.3911760
units angstrom
no_reorient  #important for SAPT in psi4, default
symmetry c1  #important for SAPT in psi4, default
}

set PROPERTIES_ORIGIN ["COM"]
properties('MP2/aug-cc-pvtz', properties = ['dipole'])
--------------------------------------------------------------------------

    Molecular point group: c1
  Charge       = -1
  Multiplicity = 1
  Basis Set: AUG-CC-PVTZ
    Blend: AUG-CC-PVTZ
  Basis Set: (AUG-CC-PVTZ AUX)
    Blend: AUG-CC-PVTZ-JKFIT

    Orbital Energies [Eh]
    ---------------------

    Doubly Occupied:

       1A    -92.020953     2A    -20.358737     3A    -20.357907
       4A    -20.350375     5A    -11.136708     6A    -11.136099
       7A    -11.133640     8A    -11.132814     9A    -11.128312
      10A    -11.124793    11A    -11.115411    12A    -11.113948
      13A     -8.981206    14A     -6.666800    15A     -6.666011
      16A     -6.665543    17A     -1.257411    18A     -1.130945
      19A     -1.091595    20A     -1.047135    21A     -0.953869
      22A     -0.924824    23A     -0.842431    24A     -0.822323
      25A     -0.734728    26A     -0.677635    27A     -0.630414
      28A     -0.569343    29A     -0.543532    30A     -0.511772
      31A     -0.486470    32A     -0.476568    33A     -0.476015
      34A     -0.459873    35A     -0.457430    36A     -0.455874
      37A     -0.451523    38A     -0.427335    39A     -0.400566
      40A     -0.374227    41A     -0.373586    42A     -0.325516
      43A     -0.323541    44A     -0.298520    45A     -0.280177
      46A     -0.268395    47A     -0.248929    48A     -0.213385
      49A     -0.210522

  @DF-RHF Final Energy:  -930.51851912103245

   => Energetics <=

    Nuclear Repulsion Energy =            809.5079826075831306
    One-Electron Energy =               -2900.3816693905732791
    Two-Electron Energy =                1160.3551676619579212
    Total Energy =                       -930.5185191210323410
  Basis Set: (AUG-CC-PVTZ AUX)
    Blend: AUG-CC-PVTZ-RI
    Molecular point group: c1

    Geometry (in Angstrom), charge = -1, multiplicity = 1:

       Center              X                  Y                   Z               Mass
    ------------   -----------------  -----------------  -----------------  -----------------
         S            1.967780930494    -0.007282992544     0.011876157308    31.972071174400
         O            2.280316930494    -0.007280992544     1.464500157308    15.994914619570
         O            2.340072930494    -1.259908992544    -0.697247842692    15.994914619570
         O            2.365114030494     1.329589407456    -0.744948342692    15.994914619570
         C            0.161054930494    -0.007282992544    -0.038804842692    12.000000000000
         C           -1.936990069506    -1.227721992544    -0.013381842692    12.000000000000
         C           -1.936990069506     1.213156007456    -0.013380842692    12.000000000000
         C           -0.538286069506     1.200501007456    -0.028355842692    12.000000000000
         C           -0.538287069506    -1.215067992544    -0.028356842692    12.000000000000
         C           -2.623355069506    -0.007282992544     0.005699157308    12.000000000000
         C           -2.690056069506    -2.534154992544     0.024417157308    12.000000000000
         C           -2.690054069506     2.519590007456     0.024417157308    12.000000000000
         H            0.031313930494     2.126853007456    -0.071887842692     1.007825032230
         H            0.031311930494    -2.141419992544    -0.071888842692     1.007825032230
         H           -3.715265069506    -0.007281992544     0.005596157308     1.007825032230
         H           -2.168800069506    -3.301760992544    -0.555900842692     1.007825032230
         H           -2.789426069506    -2.909286992544     1.049877157308     1.007825032230
         H           -3.698930069506    -2.422159992544    -0.386928842692     1.007825032230
         H           -2.789348069506     2.894767007456     1.049868157308     1.007825032230
         H           -2.168840069506     3.287172007456    -0.555971842692     1.007825032230
         H           -3.698957069506     2.407577007456    -0.386851842692     1.007825032230

  Basis Set: AUG-CC-PVTZ
    Blend: AUG-CC-PVTZ
  Basis Set: (AUG-CC-PVTZ AUX)
    Blend: AUG-CC-PVTZ-JKFIT
	 Reference Energy          =    -930.5185191210324547 [Eh]
	 Singles Energy            =      -0.0000000000000000 [Eh]
	 Same-Spin Energy          =      -0.6289838635950982 [Eh]
	 Opposite-Spin Energy      =      -1.8736336677211409 [Eh]
	 Correlation Energy        =      -2.5026175313162389 [Eh]
	 Total Energy              =    -933.0211366523486731 [Eh]

	 ================> DF-SCS-MP2 Energies <==================
	-----------------------------------------------------------
	 SCS Same-Spin Scale       =       0.3333333333333333 [-]
	 SCS Opposite-Spin Scale   =       1.2000000000000000 [-]
	 SCS Same-Spin Energy      =      -0.2096612878650327 [Eh]
	 SCS Opposite-Spin Energy  =      -2.2483604012653688 [Eh]
	 SCS Correlation Energy    =      -2.4580216891304016 [Eh]
	 SCS Total Energy          =    -932.9765408101628736 [Eh]
	-----------------------------------------------------------

  Dipole Moment: [D]
     X:   -10.6071      Y:    -0.4988      Z:     0.2308     Total:    10.6213

*** Psi4 exiting successfully. Buy a developer a beer!
