                               Psi4 1.4a3.dev225

  ==> Input File <==

--------------------------------------------------------------------------
#psi4
#
memory 32 gb

molecule  {
-1 1
  S        2.0766110     0.0000000     0.0075520
  O        2.3891470     0.0000020     1.4601760
  O        2.4489030    -1.2526260    -0.7015720
  O        2.4489040     1.2526220    -0.7015770
  C        0.2698850     0.0000000    -0.0431290
  C       -1.8281600    -1.2204390    -0.0177060
  C       -1.8281600     1.2204390    -0.0177050
  C       -0.4294560     1.2077840    -0.0326800
  C       -0.4294570    -1.2077850    -0.0326810
  C       -2.5145250     0.0000000     0.0013750
  C       -2.5812260    -2.5268720     0.0200930
  C       -2.5812240     2.5268730     0.0200930
  H        0.1401440     2.1341360    -0.0762120
  H        0.1401420    -2.1341370    -0.0762130
  H       -3.6064350     0.0000010     0.0012720
  H       -2.0599700    -3.2944780    -0.5602250
  H       -2.6851275    -2.9191109     1.0923164
  H       -3.5901000    -2.4148770    -0.3912530
  H       -2.6805180     2.9020500     1.0455440
  H       -2.0600100     3.2944550    -0.5602960
  H       -3.5901270     2.4148600    -0.3911760
units angstrom
no_reorient  #important for SAPT in psi4, default
symmetry c1  #important for SAPT in psi4, default
}

set PROPERTIES_ORIGIN ["COM"]
properties('MP2/aug-cc-pvtz', properties = ['dipole'])
--------------------------------------------------------------------------

    Molecular point group: c1
  Charge       = -1
  Multiplicity = 1
  Basis Set: AUG-CC-PVTZ
    Blend: AUG-CC-PVTZ
  Basis Set: (AUG-CC-PVTZ AUX)
    Blend: AUG-CC-PVTZ-JKFIT

    Orbital Energies [Eh]
    ---------------------

    Doubly Occupied:

       1A    -92.014011     2A    -20.350909     3A    -20.350886
       4A    -20.350031     5A    -11.138057     6A    -11.134825
       7A    -11.134697     8A    -11.132054     9A    -11.123414
      10A    -11.122778    11A    -11.112223    12A    -11.112145
      13A     -8.974730    14A     -6.660446    15A     -6.659658
      16A     -6.659574    17A     -1.269892    18A     -1.126449
      19A     -1.124600    20A     -1.045095    21A     -0.951549
      22A     -0.921985    23A     -0.839252    24A     -0.819092
      25A     -0.730261    26A     -0.675053    27A     -0.624712
      28A     -0.567862    29A     -0.541631    30A     -0.513673
      31A     -0.482918    32A     -0.475605    33A     -0.468686
      34A     -0.462883    35A     -0.461407    36A     -0.455295
      37A     -0.450525    38A     -0.426713    39A     -0.399592
      40A     -0.372555    41A     -0.371052    42A     -0.331475
      43A     -0.330575    44A     -0.296562    45A     -0.290607
      46A     -0.269582    47A     -0.248859    48A     -0.210585
      49A     -0.208699

  @DF-RHF Final Energy:  -930.53366041979098

   => Energetics <=

    Nuclear Repulsion Energy =            813.8423750117347026
    One-Electron Energy =               -2909.1606308828932015
    Two-Electron Energy =                1164.7845954513677498
    Total Energy =                       -930.5336604197909764
  Basis Set: (AUG-CC-PVTZ AUX)
    Blend: AUG-CC-PVTZ-RI
    Molecular point group: c1

    Geometry (in Angstrom), charge = -1, multiplicity = 1:

       Center              X                  Y                   Z               Mass
    ------------   -----------------  -----------------  -----------------  -----------------
         S            1.969970236350     0.000093319799     0.007498343674    31.972071174400
         O            2.282506236350     0.000095319799     1.460122343674    15.994914619570
         O            2.342262236350    -1.252532680201    -0.701625656326    15.994914619570
         O            2.342263236350     1.252715319799    -0.701630656326    15.994914619570
         C            0.163244236350     0.000093319799    -0.043182656326    12.000000000000
         C           -1.934800763650    -1.220345680201    -0.017759656326    12.000000000000
         C           -1.934800763650     1.220532319799    -0.017758656326    12.000000000000
         C           -0.536096763650     1.207877319799    -0.032733656326    12.000000000000
         C           -0.536097763650    -1.207691680201    -0.032734656326    12.000000000000
         C           -2.621165763650     0.000093319799     0.001321343674    12.000000000000
         C           -2.687866763650    -2.526778680201     0.020039343674    12.000000000000
         C           -2.687864763650     2.526966319799     0.020039343674    12.000000000000
         H            0.033503236350     2.134229319799    -0.076265656326     1.007825032230
         H            0.033501236350    -2.134043680201    -0.076266656326     1.007825032230
         H           -3.713075763650     0.000094319799     0.001218343674     1.007825032230
         H           -2.166610763650    -3.294384680201    -0.560278656326     1.007825032230
         H           -2.791768263650    -2.919017580201     1.092262743674     1.007825032230
         H           -3.696740763650    -2.414783680201    -0.391306656326     1.007825032230
         H           -2.787158763650     2.902143319799     1.045490343674     1.007825032230
         H           -2.166650763650     3.294548319799    -0.560349656326     1.007825032230
         H           -3.696767763650     2.414953319799    -0.391229656326     1.007825032230

  Basis Set: AUG-CC-PVTZ
    Blend: AUG-CC-PVTZ
  Basis Set: (AUG-CC-PVTZ AUX)
    Blend: AUG-CC-PVTZ-JKFIT
	 Reference Energy          =    -930.5336604197909764 [Eh]
	 Singles Energy            =      -0.0000000000000000 [Eh]
	 Same-Spin Energy          =      -0.6272675989743038 [Eh]
	 Opposite-Spin Energy      =      -1.8689741905881068 [Eh]
	 Correlation Energy        =      -2.4962417895624105 [Eh]
	 Total Energy              =    -933.0299022093533949 [Eh]

	 ================> DF-SCS-MP2 Energies <==================
	-----------------------------------------------------------
	 SCS Same-Spin Scale       =       0.3333333333333333 [-]
	 SCS Opposite-Spin Scale   =       1.2000000000000000 [-]
	 SCS Same-Spin Energy      =      -0.2090891996581013 [Eh]
	 SCS Opposite-Spin Energy  =      -2.2427690287057280 [Eh]
	 SCS Correlation Energy    =      -2.4518582283638293 [Eh]
	 SCS Total Energy          =    -932.9855186481547662 [Eh]
	-----------------------------------------------------------

  Dipole Moment: [D]
     X:   -10.2790      Y:     0.0323      Z:    -0.0936     Total:    10.2795

*** Psi4 exiting successfully. Buy a developer a beer!
