                               Psi4 1.4a3.dev225

  ==> Input File <==

--------------------------------------------------------------------------
#psi4
#
memory 32 gb

molecule  {
-1 1
  S        2.0763138     0.0315344     0.0083287
  O        2.3891470     0.0000020     1.4601760
  O        2.4489030    -1.2526260    -0.7015720
  O        2.4489040     1.2526220    -0.7015770
  C        0.2698850     0.0000000    -0.0431290
  C       -1.8281600    -1.2204390    -0.0177060
  C       -1.8281600     1.2204390    -0.0177050
  C       -0.4294560     1.2077840    -0.0326800
  C       -0.4294570    -1.2077850    -0.0326810
  C       -2.5145250     0.0000000     0.0013750
  C       -2.5812260    -2.5268720     0.0200930
  C       -2.5812240     2.5268730     0.0200930
  H        0.1401440     2.1341360    -0.0762120
  H        0.1401420    -2.1341370    -0.0762130
  H       -3.6064350     0.0000010     0.0012720
  H       -2.0599700    -3.2944780    -0.5602250
  H       -2.6805960    -2.9020040     1.0455530
  H       -3.5901000    -2.4148770    -0.3912530
  H       -2.6805180     2.9020500     1.0455440
  H       -2.0600100     3.2944550    -0.5602960
  H       -3.5901270     2.4148600    -0.3911760
units angstrom
no_reorient  #important for SAPT in psi4, default
symmetry c1  #important for SAPT in psi4, default
}

set PROPERTIES_ORIGIN ["COM"]
properties('MP2/aug-cc-pvtz', properties = ['dipole'])
--------------------------------------------------------------------------

    Molecular point group: c1
  Charge       = -1
  Multiplicity = 1
  Basis Set: AUG-CC-PVTZ
    Blend: AUG-CC-PVTZ
  Basis Set: (AUG-CC-PVTZ AUX)
    Blend: AUG-CC-PVTZ-JKFIT

    Orbital Energies [Eh]
    ---------------------

    Doubly Occupied:

       1A    -92.013630     2A    -20.357580     3A    -20.350086
       4A    -20.343745     5A    -11.134581     6A    -11.134420
       7A    -11.132102     8A    -11.131708     9A    -11.123261
      10A    -11.122438    11A    -11.111992    12A    -11.111746
      13A     -8.974485    14A     -6.660187    15A     -6.659519
      16A     -6.659213    17A     -1.271852    18A     -1.136304
      19A     -1.112665    20A     -1.044917    21A     -0.952076
      22A     -0.922203    23A     -0.840736    24A     -0.820345
      25A     -0.730164    26A     -0.675565    27A     -0.624782
      28A     -0.567862    29A     -0.541314    30A     -0.513952
      31A     -0.485124    32A     -0.475333    33A     -0.475211
      34A     -0.464283    35A     -0.461297    36A     -0.454868
      37A     -0.450256    38A     -0.426371    39A     -0.399497
      40A     -0.372259    41A     -0.371954    42A     -0.332122
      43A     -0.330263    44A     -0.299957    45A     -0.286753
      46A     -0.268279    47A     -0.247776    48A     -0.210460
      49A     -0.208608

  @DF-RHF Final Energy:  -930.53417252798204

   => Energetics <=

    Nuclear Repulsion Energy =            814.0737623188637144
    One-Electron Energy =               -2909.6236661938078214
    Two-Electron Energy =                1165.0157313469619567
    Total Energy =                       -930.5341725279820366
  Basis Set: (AUG-CC-PVTZ AUX)
    Blend: AUG-CC-PVTZ-RI
    Molecular point group: c1

    Geometry (in Angstrom), charge = -1, multiplicity = 1:

       Center              X                  Y                   Z               Mass
    ------------   -----------------  -----------------  -----------------  -----------------
         S            1.969699708857     0.026085504277     0.008395548187    31.972071174400
         O            2.282532908857    -0.005446895723     1.460242848187    15.994914619570
         O            2.342288908857    -1.258074895723    -0.701505151813    15.994914619570
         O            2.342289908857     1.247173104277    -0.701510151813    15.994914619570
         C            0.163270908857    -0.005448895723    -0.043062151813    12.000000000000
         C           -1.934774091143    -1.225887895723    -0.017639151813    12.000000000000
         C           -1.934774091143     1.214990104277    -0.017638151813    12.000000000000
         C           -0.536070091143     1.202335104277    -0.032613151813    12.000000000000
         C           -0.536071091143    -1.213233895723    -0.032614151813    12.000000000000
         C           -2.621139091143    -0.005448895723     0.001441848187    12.000000000000
         C           -2.687840091143    -2.532320895723     0.020159848187    12.000000000000
         C           -2.687838091143     2.521424104277     0.020159848187    12.000000000000
         H            0.033529908857     2.128687104277    -0.076145151813     1.007825032230
         H            0.033527908857    -2.139585895723    -0.076146151813     1.007825032230
         H           -3.713049091143    -0.005447895723     0.001338848187     1.007825032230
         H           -2.166584091143    -3.299926895723    -0.560158151813     1.007825032230
         H           -2.787210091143    -2.907452895723     1.045619848187     1.007825032230
         H           -3.696714091143    -2.420325895723    -0.391186151813     1.007825032230
         H           -2.787132091143     2.896601104277     1.045610848187     1.007825032230
         H           -2.166624091143     3.289006104277    -0.560229151813     1.007825032230
         H           -3.696741091143     2.409411104277    -0.391109151813     1.007825032230

  Basis Set: AUG-CC-PVTZ
    Blend: AUG-CC-PVTZ
  Basis Set: (AUG-CC-PVTZ AUX)
    Blend: AUG-CC-PVTZ-JKFIT
	 Reference Energy          =    -930.5341725279820366 [Eh]
	 Singles Energy            =      -0.0000000000000000 [Eh]
	 Same-Spin Energy          =      -0.6272724931447983 [Eh]
	 Opposite-Spin Energy      =      -1.8686864211714194 [Eh]
	 Correlation Energy        =      -2.4959589143162177 [Eh]
	 Total Energy              =    -933.0301314422982841 [Eh]

	 ================> DF-SCS-MP2 Energies <==================
	-----------------------------------------------------------
	 SCS Same-Spin Scale       =       0.3333333333333333 [-]
	 SCS Opposite-Spin Scale   =       1.2000000000000000 [-]
	 SCS Same-Spin Energy      =      -0.2090908310482661 [Eh]
	 SCS Opposite-Spin Energy  =      -2.2424237054057032 [Eh]
	 SCS Correlation Energy    =      -2.4515145364539692 [Eh]
	 SCS Total Energy          =    -932.9856870644359788 [Eh]
	-----------------------------------------------------------

  Dipole Moment: [D]
     X:   -10.3023      Y:     0.3227      Z:    -0.0575     Total:    10.3075

*** Psi4 exiting successfully. Buy a developer a beer!
