                               Psi4 1.4a3.dev225

  ==> Input File <==

--------------------------------------------------------------------------
#psi4
#
memory 32 gb

molecule  {
-1 1
  S        2.0766110     0.0000000     0.0075520
  O        2.3891470     0.0000020     1.4601760
  O        2.4489030    -1.2526260    -0.7015720
  O        2.4489040     1.2526220    -0.7015770
  C        0.2698850     0.0000000    -0.0431290
  C       -1.8281600    -1.2204390    -0.0177060
  C       -1.8281600     1.2204390    -0.0177050
  C       -0.2294756     1.2059746    -0.0348211
  C       -0.4294570    -1.2077850    -0.0326810
  C       -2.5145250     0.0000000     0.0013750
  C       -2.5812260    -2.5268720     0.0200930
  C       -2.5812240     2.5268730     0.0200930
  H        0.1401440     2.1341360    -0.0762120
  H        0.1401420    -2.1341370    -0.0762130
  H       -3.6064350     0.0000010     0.0012720
  H       -2.0599700    -3.2944780    -0.5602250
  H       -2.6805960    -2.9020040     1.0455530
  H       -3.5901000    -2.4148770    -0.3912530
  H       -2.6805180     2.9020500     1.0455440
  H       -2.0600100     3.2944550    -0.5602960
  H       -3.5901270     2.4148600    -0.3911760
units angstrom
no_reorient  #important for SAPT in psi4, default
symmetry c1  #important for SAPT in psi4, default
}

set PROPERTIES_ORIGIN ["COM"]
properties('MP2/aug-cc-pvtz', properties = ['dipole'])
--------------------------------------------------------------------------

    Molecular point group: c1
  Charge       = -1
  Multiplicity = 1
  Basis Set: AUG-CC-PVTZ
    Blend: AUG-CC-PVTZ
  Basis Set: (AUG-CC-PVTZ AUX)
    Blend: AUG-CC-PVTZ-JKFIT

    Orbital Energies [Eh]
    ---------------------

    Doubly Occupied:

       1A    -92.007409     2A    -20.348303     3A    -20.346480
       4A    -20.346153     5A    -11.151469     6A    -11.135334
       7A    -11.134716     8A    -11.132250     9A    -11.123030
      10A    -11.115676    11A    -11.113607    12A    -11.112428
      13A     -8.968880    14A     -6.654467    15A     -6.653761
      16A     -6.653667    17A     -1.267090    18A     -1.123740
      19A     -1.121301    20A     -1.038293    21A     -0.944845
      22A     -0.934830    23A     -0.842463    24A     -0.821444
      25A     -0.717801    26A     -0.681873    27A     -0.621989
      28A     -0.579541    29A     -0.541257    30A     -0.512090
      31A     -0.489531    32A     -0.484117    33A     -0.475513
      34A     -0.463098    35A     -0.460851    36A     -0.458449
      37A     -0.445284    38A     -0.427192    39A     -0.389586
      40A     -0.375712    41A     -0.369572    42A     -0.329123
      43A     -0.327413    44A     -0.294460    45A     -0.287189
      46A     -0.255765    47A     -0.245879    48A     -0.226802
      49A     -0.191648

  @DF-RHF Final Energy:  -930.49514850719765

   => Energetics <=

    Nuclear Repulsion Energy =            814.4511294357649831
    One-Electron Energy =               -2910.4058046992936397
    Two-Electron Energy =                1165.4595267563311154
    Total Energy =                       -930.4951485071976549
  Basis Set: (AUG-CC-PVTZ AUX)
    Blend: AUG-CC-PVTZ-RI
    Molecular point group: c1

    Geometry (in Angstrom), charge = -1, multiplicity = 1:

       Center              X                  Y                   Z               Mass
    ------------   -----------------  -----------------  -----------------  -----------------
         S            1.956975761834     0.000117489419     0.007891920993    31.972071174400
         O            2.269511761834     0.000119489419     1.460515920993    15.994914619570
         O            2.329267761834    -1.252508510581    -0.701232079007    15.994914619570
         O            2.329268761834     1.252739489419    -0.701237079007    15.994914619570
         C            0.150249761834     0.000117489419    -0.042789079007    12.000000000000
         C           -1.947795238166    -1.220321510581    -0.017366079007    12.000000000000
         C           -1.947795238166     1.220556489419    -0.017365079007    12.000000000000
         C           -0.349110838166     1.206092089419    -0.034481179007    12.000000000000
         C           -0.549092238166    -1.207667510581    -0.032341079007    12.000000000000
         C           -2.634160238166     0.000117489419     0.001714920993    12.000000000000
         C           -2.700861238166    -2.526754510581     0.020432920993    12.000000000000
         C           -2.700859238166     2.526990489419     0.020432920993    12.000000000000
         H            0.020508761834     2.134253489419    -0.075872079007     1.007825032230
         H            0.020506761834    -2.134019510581    -0.075873079007     1.007825032230
         H           -3.726070238166     0.000118489419     0.001611920993     1.007825032230
         H           -2.179605238166    -3.294360510581    -0.559885079007     1.007825032230
         H           -2.800231238166    -2.901886510581     1.045892920993     1.007825032230
         H           -3.709735238166    -2.414759510581    -0.390913079007     1.007825032230
         H           -2.800153238166     2.902167489419     1.045883920993     1.007825032230
         H           -2.179645238166     3.294572489419    -0.559956079007     1.007825032230
         H           -3.709762238166     2.414977489419    -0.390836079007     1.007825032230

  Basis Set: AUG-CC-PVTZ
    Blend: AUG-CC-PVTZ
  Basis Set: (AUG-CC-PVTZ AUX)
    Blend: AUG-CC-PVTZ-JKFIT
	 Reference Energy          =    -930.4951485071976549 [Eh]
	 Singles Energy            =      -0.0000000000000000 [Eh]
	 Same-Spin Energy          =      -0.6268000652344714 [Eh]
	 Opposite-Spin Energy      =      -1.8703385554423051 [Eh]
	 Correlation Energy        =      -2.4971386206767763 [Eh]
	 Total Energy              =    -932.9922871278744196 [Eh]

	 ================> DF-SCS-MP2 Energies <==================
	-----------------------------------------------------------
	 SCS Same-Spin Scale       =       0.3333333333333333 [-]
	 SCS Opposite-Spin Scale   =       1.2000000000000000 [-]
	 SCS Same-Spin Energy      =      -0.2089333550781571 [Eh]
	 SCS Opposite-Spin Energy  =      -2.2444062665307660 [Eh]
	 SCS Correlation Energy    =      -2.4533396216089232 [Eh]
	 SCS Total Energy          =    -932.9484881288066163 [Eh]
	-----------------------------------------------------------

  Dipole Moment: [D]
     X:   -10.4157      Y:     0.1013      Z:    -0.0735     Total:    10.4165

*** Psi4 exiting successfully. Buy a developer a beer!
