                               Psi4 1.4a3.dev225

  ==> Input File <==

--------------------------------------------------------------------------
#psi4
#
memory 32 gb

molecule  {
-1 1
  S        2.0766110     0.0000000     0.0075520
  O        2.3933538     0.0000020     1.4797286
  O        2.4489030    -1.2526260    -0.7015720
  O        2.4489040     1.2526220    -0.7015770
  C        0.2698850     0.0000000    -0.0431290
  C       -1.8281600    -1.2204390    -0.0177060
  C       -1.8281600     1.2204390    -0.0177050
  C       -0.4294560     1.2077840    -0.0326800
  C       -0.4294570    -1.2077850    -0.0326810
  C       -2.5145250     0.0000000     0.0013750
  C       -2.5812260    -2.5268720     0.0200930
  C       -2.5812240     2.5268730     0.0200930
  H        0.1401440     2.1341360    -0.0762120
  H        0.1401420    -2.1341370    -0.0762130
  H       -3.6064350     0.0000010     0.0012720
  H       -2.0599700    -3.2944780    -0.5602250
  H       -2.6805960    -2.9020040     1.0455530
  H       -3.5901000    -2.4148770    -0.3912530
  H       -2.6805180     2.9020500     1.0455440
  H       -2.0600100     3.2944550    -0.5602960
  H       -3.5901270     2.4148600    -0.3911760
units angstrom
no_reorient  #important for SAPT in psi4, default
symmetry c1  #important for SAPT in psi4, default
}

set PROPERTIES_ORIGIN ["COM"]
properties('MP2/aug-cc-pvtz', properties = ['dipole'])
--------------------------------------------------------------------------

    Molecular point group: c1
  Charge       = -1
  Multiplicity = 1
  Basis Set: AUG-CC-PVTZ
    Blend: AUG-CC-PVTZ
  Basis Set: (AUG-CC-PVTZ AUX)
    Blend: AUG-CC-PVTZ-JKFIT

    Orbital Energies [Eh]
    ---------------------

    Doubly Occupied:

       1A    -92.015667     2A    -20.352487     3A    -20.352464
       4A    -20.349679     5A    -11.134969     6A    -11.134923
       7A    -11.132216     8A    -11.132216     9A    -11.124333
      10A    -11.122981    11A    -11.112579    12A    -11.112507
      13A     -8.976159    14A     -6.661874    15A     -6.661099
      16A     -6.660865    17A     -1.266147    18A     -1.127588
      19A     -1.117874    20A     -1.045451    21A     -0.952497
      22A     -0.922779    23A     -0.841126    24A     -0.820813
      25A     -0.731062    26A     -0.676052    27A     -0.625889
      28A     -0.568294    29A     -0.541789    30A     -0.512842
      31A     -0.485420    32A     -0.475567    33A     -0.475482
      34A     -0.462224    35A     -0.460272    36A     -0.455169
      37A     -0.450761    38A     -0.426651    39A     -0.399179
      40A     -0.372696    41A     -0.372060    42A     -0.330015
      43A     -0.329339    44A     -0.294254    45A     -0.291341
      46A     -0.269224    47A     -0.248812    48A     -0.210916
      49A     -0.209146

  @DF-RHF Final Energy:  -930.53329839737648

   => Energetics <=

    Nuclear Repulsion Energy =            813.1056867341382031
    One-Electron Energy =               -2907.6664686306962722
    Two-Electron Energy =                1164.0274834991816988
    Total Energy =                       -930.5332983973764840
  Basis Set: (AUG-CC-PVTZ AUX)
    Blend: AUG-CC-PVTZ-RI
    Molecular point group: c1

    Geometry (in Angstrom), charge = -1, multiplicity = 1:

       Center              X                  Y                   Z               Mass
    ------------   -----------------  -----------------  -----------------  -----------------
         S            1.969581891553     0.000000140211     0.006062809955    31.972071174400
         O            2.286324691553     0.000002140211     1.478239409955    15.994914619570
         O            2.341873891553    -1.252625859789    -0.703061190045    15.994914619570
         O            2.341874891553     1.252622140211    -0.703066190045    15.994914619570
         C            0.162855891553     0.000000140211    -0.044618190045    12.000000000000
         C           -1.935189108447    -1.220438859789    -0.019195190045    12.000000000000
         C           -1.935189108447     1.220439140211    -0.019194190045    12.000000000000
         C           -0.536485108447     1.207784140211    -0.034169190045    12.000000000000
         C           -0.536486108447    -1.207784859789    -0.034170190045    12.000000000000
         C           -2.621554108447     0.000000140211    -0.000114190045    12.000000000000
         C           -2.688255108447    -2.526871859789     0.018603809955    12.000000000000
         C           -2.688253108447     2.526873140211     0.018603809955    12.000000000000
         H            0.033114891553     2.134136140211    -0.077701190045     1.007825032230
         H            0.033112891553    -2.134136859789    -0.077702190045     1.007825032230
         H           -3.713464108447     0.000001140211    -0.000217190045     1.007825032230
         H           -2.166999108447    -3.294477859789    -0.561714190045     1.007825032230
         H           -2.787625108447    -2.902003859789     1.044063809955     1.007825032230
         H           -3.697129108447    -2.414876859789    -0.392742190045     1.007825032230
         H           -2.787547108447     2.902050140211     1.044054809955     1.007825032230
         H           -2.167039108447     3.294455140211    -0.561785190045     1.007825032230
         H           -3.697156108447     2.414860140211    -0.392665190045     1.007825032230

  Basis Set: AUG-CC-PVTZ
    Blend: AUG-CC-PVTZ
  Basis Set: (AUG-CC-PVTZ AUX)
    Blend: AUG-CC-PVTZ-JKFIT
	 Reference Energy          =    -930.5332983973764840 [Eh]
	 Singles Energy            =      -0.0000000000000000 [Eh]
	 Same-Spin Energy          =      -0.6276672637657298 [Eh]
	 Opposite-Spin Energy      =      -1.8697141428731299 [Eh]
	 Correlation Energy        =      -2.4973814066388598 [Eh]
	 Total Energy              =    -933.0306798040153353 [Eh]

	 ================> DF-SCS-MP2 Energies <==================
	-----------------------------------------------------------
	 SCS Same-Spin Scale       =       0.3333333333333333 [-]
	 SCS Opposite-Spin Scale   =       1.2000000000000000 [-]
	 SCS Same-Spin Energy      =      -0.2092224212552433 [Eh]
	 SCS Opposite-Spin Energy  =      -2.2436569714477557 [Eh]
	 SCS Correlation Energy    =      -2.4528793927029988 [Eh]
	 SCS Total Energy          =    -932.9861777900795232 [Eh]
	-----------------------------------------------------------

  Dipole Moment: [D]
     X:   -10.3567      Y:     0.0000      Z:    -0.1897     Total:    10.3585

*** Psi4 exiting successfully. Buy a developer a beer!
