                               Psi4 1.4a3.dev225

  ==> Input File <==

--------------------------------------------------------------------------
#psi4
#
memory 32 gb

molecule  {
-1 1
  S        2.0766110     0.0000000     0.0075520
  O        2.3891470     0.0000020     1.4601760
  O        2.4489030    -1.2526260    -0.7015720
  O        2.4489040     1.2526220    -0.7015770
  C        0.2487295     0.0120145    -0.0419227
  C       -1.8281600    -1.2204390    -0.0177060
  C       -1.8281600     1.2204390    -0.0177050
  C       -0.4294560     1.2077840    -0.0326800
  C       -0.4294570    -1.2077850    -0.0326810
  C       -2.5145250     0.0000000     0.0013750
  C       -2.5812260    -2.5268720     0.0200930
  C       -2.5812240     2.5268730     0.0200930
  H        0.1401440     2.1341360    -0.0762120
  H        0.1401420    -2.1341370    -0.0762130
  H       -3.6064350     0.0000010     0.0012720
  H       -2.0599700    -3.2944780    -0.5602250
  H       -2.6805960    -2.9020040     1.0455530
  H       -3.5901000    -2.4148770    -0.3912530
  H       -2.6805180     2.9020500     1.0455440
  H       -2.0600100     3.2944550    -0.5602960
  H       -3.5901270     2.4148600    -0.3911760
units angstrom
no_reorient  #important for SAPT in psi4, default
symmetry c1  #important for SAPT in psi4, default
}

set PROPERTIES_ORIGIN ["COM"]
properties('MP2/aug-cc-pvtz', properties = ['dipole'])
--------------------------------------------------------------------------

    Molecular point group: c1
  Charge       = -1
  Multiplicity = 1
  Basis Set: AUG-CC-PVTZ
    Blend: AUG-CC-PVTZ
  Basis Set: (AUG-CC-PVTZ AUX)
    Blend: AUG-CC-PVTZ-JKFIT

    Orbital Energies [Eh]
    ---------------------

    Doubly Occupied:

       1A    -92.013629     2A    -20.351353     3A    -20.350354
       4A    -20.349802     5A    -11.134652     6A    -11.134186
       7A    -11.131847     8A    -11.131668     9A    -11.121861
      10A    -11.121492    11A    -11.111425    12A    -11.109136
      13A     -8.974201    14A     -6.659868    15A     -6.659124
      16A     -6.659041    17A     -1.268981    18A     -1.126120
      19A     -1.124172    20A     -1.046391    21A     -0.952311
      22A     -0.922917    23A     -0.840481    24A     -0.821594
      25A     -0.726424    26A     -0.676046    27A     -0.624138
      28A     -0.568668    29A     -0.542082    30A     -0.511438
      31A     -0.485109    32A     -0.475286    33A     -0.475180
      34A     -0.462691    35A     -0.460993    36A     -0.454898
      37A     -0.451284    38A     -0.427176    39A     -0.398836
      40A     -0.374205    41A     -0.373020    42A     -0.331217
      43A     -0.330253    44A     -0.296053    45A     -0.290419
      46A     -0.265697    47A     -0.248701    48A     -0.212403
      49A     -0.208335

  @DF-RHF Final Energy:  -930.53551105094664

   => Energetics <=

    Nuclear Repulsion Energy =            813.9811333390033496
    One-Electron Energy =               -2909.4589679632167645
    Two-Electron Energy =                1164.9423235732665489
    Total Energy =                       -930.5355110509467522
  Basis Set: (AUG-CC-PVTZ AUX)
    Blend: AUG-CC-PVTZ-RI
    Molecular point group: c1

    Geometry (in Angstrom), charge = -1, multiplicity = 1:

       Center              X                  Y                   Z               Mass
    ------------   -----------------  -----------------  -----------------  -----------------
         S            1.971317600340    -0.000779063974     0.007674824311    31.972071174400
         O            2.283853600340    -0.000777063974     1.460298824311    15.994914619570
         O            2.343609600340    -1.253405063974    -0.701449175689    15.994914619570
         O            2.343610600340     1.251842936026    -0.701454175689    15.994914619570
         C            0.143436100340     0.011235436026    -0.041799875689    12.000000000000
         C           -1.933453399660    -1.221218063974    -0.017583175689    12.000000000000
         C           -1.933453399660     1.219659936026    -0.017582175689    12.000000000000
         C           -0.534749399660     1.207004936026    -0.032557175689    12.000000000000
         C           -0.534750399660    -1.208564063974    -0.032558175689    12.000000000000
         C           -2.619818399660    -0.000779063974     0.001497824311    12.000000000000
         C           -2.686519399660    -2.527651063974     0.020215824311    12.000000000000
         C           -2.686517399660     2.526093936026     0.020215824311    12.000000000000
         H            0.034850600340     2.133356936026    -0.076089175689     1.007825032230
         H            0.034848600340    -2.134916063974    -0.076090175689     1.007825032230
         H           -3.711728399660    -0.000778063974     0.001394824311     1.007825032230
         H           -2.165263399660    -3.295257063974    -0.560102175689     1.007825032230
         H           -2.785889399660    -2.902783063974     1.045675824311     1.007825032230
         H           -3.695393399660    -2.415656063974    -0.391130175689     1.007825032230
         H           -2.785811399660     2.901270936026     1.045666824311     1.007825032230
         H           -2.165303399660     3.293675936026    -0.560173175689     1.007825032230
         H           -3.695420399660     2.414080936026    -0.391053175689     1.007825032230

  Basis Set: AUG-CC-PVTZ
    Blend: AUG-CC-PVTZ
  Basis Set: (AUG-CC-PVTZ AUX)
    Blend: AUG-CC-PVTZ-JKFIT
	 Reference Energy          =    -930.5355110509466385 [Eh]
	 Singles Energy            =      -0.0000000000000000 [Eh]
	 Same-Spin Energy          =      -0.6272272900997183 [Eh]
	 Opposite-Spin Energy      =      -1.8685161177799805 [Eh]
	 Correlation Energy        =      -2.4957434078796989 [Eh]
	 Total Energy              =    -933.0312544588263108 [Eh]

	 ================> DF-SCS-MP2 Energies <==================
	-----------------------------------------------------------
	 SCS Same-Spin Scale       =       0.3333333333333333 [-]
	 SCS Opposite-Spin Scale   =       1.2000000000000000 [-]
	 SCS Same-Spin Energy      =      -0.2090757633665728 [Eh]
	 SCS Opposite-Spin Energy  =      -2.2422193413359763 [Eh]
	 SCS Correlation Energy    =      -2.4512951047025493 [Eh]
	 SCS Total Energy          =    -932.9868061556492194 [Eh]
	-----------------------------------------------------------

  Dipole Moment: [D]
     X:   -10.2848      Y:    -0.0057      Z:    -0.0714     Total:    10.2850

*** Psi4 exiting successfully. Buy a developer a beer!
