                               Psi4 1.4a3.dev225

  ==> Input File <==

--------------------------------------------------------------------------
#psi4
#
memory 32 gb

molecule  {
-1 1
  S        2.0766110     0.0000000     0.0075520
  O        2.3891470     0.0000020     1.4601760
  O        2.4489030    -1.2526260    -0.7015720
  O        2.4489040     1.2526220    -0.7015770
  C        0.2698850     0.0000000    -0.0431290
  C       -1.8281600    -1.2204390    -0.0177060
  C       -1.8281600     1.2204390    -0.0177050
  C       -0.4294560     1.2077840    -0.0326800
  C       -0.3294668    -1.2068804    -0.0337515
  C       -2.5145250     0.0000000     0.0013750
  C       -2.5812260    -2.5268720     0.0200930
  C       -2.5812240     2.5268730     0.0200930
  H        0.1401440     2.1341360    -0.0762120
  H        0.1401420    -2.1341370    -0.0762130
  H       -3.6064350     0.0000010     0.0012720
  H       -2.0599700    -3.2944780    -0.5602250
  H       -2.6805960    -2.9020040     1.0455530
  H       -3.5901000    -2.4148770    -0.3912530
  H       -2.6805180     2.9020500     1.0455440
  H       -2.0600100     3.2944550    -0.5602960
  H       -3.5901270     2.4148600    -0.3911760
units angstrom
no_reorient  #important for SAPT in psi4, default
symmetry c1  #important for SAPT in psi4, default
}

set PROPERTIES_ORIGIN ["COM"]
properties('MP2/aug-cc-pvtz', properties = ['dipole'])
--------------------------------------------------------------------------

    Molecular point group: c1
  Charge       = -1
  Multiplicity = 1
  Basis Set: AUG-CC-PVTZ
    Blend: AUG-CC-PVTZ
  Basis Set: (AUG-CC-PVTZ AUX)
    Blend: AUG-CC-PVTZ-JKFIT

    Orbital Energies [Eh]
    ---------------------

    Doubly Occupied:

       1A    -92.010512     2A    -20.349305     3A    -20.348354
       4A    -20.348060     5A    -11.144839     6A    -11.134649
       7A    -11.133614     8A    -11.132002     9A    -11.122994
      10A    -11.118204    11A    -11.113355    12A    -11.112345
      13A     -8.971587    14A     -6.657234    15A     -6.656500
      16A     -6.656411    17A     -1.268217    18A     -1.124780
      19A     -1.122791    20A     -1.040820    21A     -0.946961
      22A     -0.929221    23A     -0.841520    24A     -0.820306
      25A     -0.723216    26A     -0.679532    27A     -0.622269
      28A     -0.573312    29A     -0.540187    30A     -0.512773
      31A     -0.484905    32A     -0.481528    33A     -0.475392
      34A     -0.462042    35A     -0.460567    36A     -0.458696
      37A     -0.446938    38A     -0.427764    39A     -0.389656
      40A     -0.383382    41A     -0.370669    42A     -0.330094
      43A     -0.328846    44A     -0.295165    45A     -0.288659
      46A     -0.263567    47A     -0.247157    48A     -0.218518
      49A     -0.198874

  @DF-RHF Final Energy:  -930.52460171202370

   => Energetics <=

    Nuclear Repulsion Energy =            814.1785616346379584
    One-Electron Energy =               -2909.8697504131469032
    Two-Electron Energy =                1165.1665870664853628
    Total Energy =                       -930.5246017120236957
  Basis Set: (AUG-CC-PVTZ AUX)
    Blend: AUG-CC-PVTZ-RI
    Molecular point group: c1

    Geometry (in Angstrom), charge = -1, multiplicity = 1:

       Center              X                  Y                   Z               Mass
    ------------   -----------------  -----------------  -----------------  -----------------
         S            1.963460657776    -0.000058527907     0.007822486892    31.972071174400
         O            2.275996657776    -0.000056527907     1.460446486892    15.994914619570
         O            2.335752657776    -1.252684527907    -0.701301513108    15.994914619570
         O            2.335753657776     1.252563472093    -0.701306513108    15.994914619570
         C            0.156734657776    -0.000058527907    -0.042858513108    12.000000000000
         C           -1.941310342224    -1.220497527907    -0.017435513108    12.000000000000
         C           -1.941310342224     1.220380472093    -0.017434513108    12.000000000000
         C           -0.542606342224     1.207725472093    -0.032409513108    12.000000000000
         C           -0.442617142224    -1.206938927907    -0.033481013108    12.000000000000
         C           -2.627675342224    -0.000058527907     0.001645486892    12.000000000000
         C           -2.694376342224    -2.526930527907     0.020363486892    12.000000000000
         C           -2.694374342224     2.526814472093     0.020363486892    12.000000000000
         H            0.026993657776     2.134077472093    -0.075941513108     1.007825032230
         H            0.026991657776    -2.134195527907    -0.075942513108     1.007825032230
         H           -3.719585342224    -0.000057527907     0.001542486892     1.007825032230
         H           -2.173120342224    -3.294536527907    -0.559954513108     1.007825032230
         H           -2.793746342224    -2.902062527907     1.045823486892     1.007825032230
         H           -3.703250342224    -2.414935527907    -0.390982513108     1.007825032230
         H           -2.793668342224     2.901991472093     1.045814486892     1.007825032230
         H           -2.173160342224     3.294396472093    -0.560025513108     1.007825032230
         H           -3.703277342224     2.414801472093    -0.390905513108     1.007825032230

  Basis Set: AUG-CC-PVTZ
    Blend: AUG-CC-PVTZ
  Basis Set: (AUG-CC-PVTZ AUX)
    Blend: AUG-CC-PVTZ-JKFIT
	 Reference Energy          =    -930.5246017120236957 [Eh]
	 Singles Energy            =      -0.0000000000000000 [Eh]
	 Same-Spin Energy          =      -0.6270217533476558 [Eh]
	 Opposite-Spin Energy      =      -1.8690065431450813 [Eh]
	 Correlation Energy        =      -2.4960282964927369 [Eh]
	 Total Energy              =    -933.0206300085163775 [Eh]

	 ================> DF-SCS-MP2 Energies <==================
	-----------------------------------------------------------
	 SCS Same-Spin Scale       =       0.3333333333333333 [-]
	 SCS Opposite-Spin Scale   =       1.2000000000000000 [-]
	 SCS Same-Spin Energy      =      -0.2090072511158853 [Eh]
	 SCS Opposite-Spin Energy  =      -2.2428078517740975 [Eh]
	 SCS Correlation Energy    =      -2.4518151028899826 [Eh]
	 SCS Total Energy          =    -932.9764168149137049 [Eh]
	-----------------------------------------------------------

  Dipole Moment: [D]
     X:   -10.3753      Y:    -0.0592      Z:    -0.0701     Total:    10.3757

*** Psi4 exiting successfully. Buy a developer a beer!
