                               Psi4 1.4a3.dev225

  ==> Input File <==

--------------------------------------------------------------------------
#psi4
#
memory 32 gb

molecule  {
-1 1
  S        2.0766110     0.0000000     0.0075520
  O        2.3891470     0.0000020     1.4601760
  O        2.4489030    -1.2526260    -0.7015720
  O        2.4489040     1.2526220    -0.7015770
  C        0.3523134    -0.0516986    -0.0479186
  C       -1.8281600    -1.2204390    -0.0177060
  C       -1.8281600     1.2204390    -0.0177050
  C       -0.4294560     1.2077840    -0.0326800
  C       -0.4294570    -1.2077850    -0.0326810
  C       -2.5145250     0.0000000     0.0013750
  C       -2.5812260    -2.5268720     0.0200930
  C       -2.5812240     2.5268730     0.0200930
  H        0.1401440     2.1341360    -0.0762120
  H        0.1401420    -2.1341370    -0.0762130
  H       -3.6064350     0.0000010     0.0012720
  H       -2.0599700    -3.2944780    -0.5602250
  H       -2.6805960    -2.9020040     1.0455530
  H       -3.5901000    -2.4148770    -0.3912530
  H       -2.6805180     2.9020500     1.0455440
  H       -2.0600100     3.2944550    -0.5602960
  H       -3.5901270     2.4148600    -0.3911760
units angstrom
no_reorient  #important for SAPT in psi4, default
symmetry c1  #important for SAPT in psi4, default
}

set PROPERTIES_ORIGIN ["COM"]
properties('MP2/aug-cc-pvtz', properties = ['dipole'])
--------------------------------------------------------------------------

    Molecular point group: c1
  Charge       = -1
  Multiplicity = 1
  Basis Set: AUG-CC-PVTZ
    Blend: AUG-CC-PVTZ
  Basis Set: (AUG-CC-PVTZ AUX)
    Blend: AUG-CC-PVTZ-JKFIT

    Orbital Energies [Eh]
    ---------------------

    Doubly Occupied:

       1A    -92.013692     2A    -20.352388     3A    -20.350168
       4A    -20.347998     5A    -11.135902     6A    -11.134047
       7A    -11.132859     8A    -11.132180     9A    -11.129632
      10A    -11.124886    11A    -11.122131    12A    -11.114258
      13A     -8.975320    14A     -6.661253    15A     -6.660217
      16A     -6.660131    17A     -1.272986    18A     -1.127272
      19A     -1.125151    20A     -1.040282    21A     -0.951787
      22A     -0.920167    23A     -0.842008    24A     -0.815656
      25A     -0.745733    26A     -0.674194    27A     -0.626453
      28A     -0.564562    29A     -0.538502    30A     -0.520936
      31A     -0.485237    32A     -0.475552    33A     -0.474875
      34A     -0.465236    35A     -0.462402    36A     -0.454654
      37A     -0.447931    38A     -0.422761    39A     -0.401461
      40A     -0.368091    41A     -0.362277    42A     -0.331917
      43A     -0.330635    44A     -0.298216    45A     -0.290906
      46A     -0.280084    47A     -0.248674    48A     -0.212326
      49A     -0.201105

  @DF-RHF Final Energy:  -930.52344625417049

   => Energetics <=

    Nuclear Repulsion Energy =            814.4811789303163323
    One-Electron Energy =               -2910.3550657940304518
    Two-Electron Energy =                1165.3504406095437389
    Total Energy =                       -930.5234462541704943
  Basis Set: (AUG-CC-PVTZ AUX)
    Blend: AUG-CC-PVTZ-RI
    Molecular point group: c1

    Geometry (in Angstrom), charge = -1, multiplicity = 1:

       Center              X                  Y                   Z               Mass
    ------------   -----------------  -----------------  -----------------  -----------------
         S            1.964599633851     0.003353069212     0.008063690295    31.972071174400
         O            2.277135633851     0.003355069212     1.460687690295    15.994914619570
         O            2.336891633851    -1.249272930788    -0.701060309705    15.994914619570
         O            2.336892633851     1.255975069212    -0.701065309705    15.994914619570
         C            0.240302033851    -0.048345530788    -0.047406909705    12.000000000000
         C           -1.940171366149    -1.217085930788    -0.017194309705    12.000000000000
         C           -1.940171366149     1.223792069212    -0.017193309705    12.000000000000
         C           -0.541467366149     1.211137069212    -0.032168309705    12.000000000000
         C           -0.541468366149    -1.204431930788    -0.032169309705    12.000000000000
         C           -2.626536366149     0.003353069212     0.001886690295    12.000000000000
         C           -2.693237366149    -2.523518930788     0.020604690295    12.000000000000
         C           -2.693235366149     2.530226069212     0.020604690295    12.000000000000
         H            0.028132633851     2.137489069212    -0.075700309705     1.007825032230
         H            0.028130633851    -2.130783930788    -0.075701309705     1.007825032230
         H           -3.718446366149     0.003354069212     0.001783690295     1.007825032230
         H           -2.171981366149    -3.291124930788    -0.559713309705     1.007825032230
         H           -2.792607366149    -2.898650930788     1.046064690295     1.007825032230
         H           -3.702111366149    -2.411523930788    -0.390741309705     1.007825032230
         H           -2.792529366149     2.905403069212     1.046055690295     1.007825032230
         H           -2.172021366149     3.297808069212    -0.559784309705     1.007825032230
         H           -3.702138366149     2.418213069212    -0.390664309705     1.007825032230

  Basis Set: AUG-CC-PVTZ
    Blend: AUG-CC-PVTZ
  Basis Set: (AUG-CC-PVTZ AUX)
    Blend: AUG-CC-PVTZ-JKFIT
	 Reference Energy          =    -930.5234462541704943 [Eh]
	 Singles Energy            =      -0.0000000000000000 [Eh]
	 Same-Spin Energy          =      -0.6279244807199512 [Eh]
	 Opposite-Spin Energy      =      -1.8703272910030142 [Eh]
	 Correlation Energy        =      -2.4982517717229653 [Eh]
	 Total Energy              =    -933.0216980258934427 [Eh]

	 ================> DF-SCS-MP2 Energies <==================
	-----------------------------------------------------------
	 SCS Same-Spin Scale       =       0.3333333333333333 [-]
	 SCS Opposite-Spin Scale   =       1.2000000000000000 [-]
	 SCS Same-Spin Energy      =      -0.2093081602399837 [Eh]
	 SCS Opposite-Spin Energy  =      -2.2443927492036169 [Eh]
	 SCS Correlation Energy    =      -2.4537009094436004 [Eh]
	 SCS Total Energy          =    -932.9771471636140632 [Eh]
	-----------------------------------------------------------

  Dipole Moment: [D]
     X:   -10.3401      Y:     0.0211      Z:    -0.0536     Total:    10.3403

*** Psi4 exiting successfully. Buy a developer a beer!
