                               Psi4 1.4a3.dev225

  ==> Input File <==

--------------------------------------------------------------------------
#psi4
#
memory 32 gb

molecule  {
-1 1
  S        2.0766110     0.0000000     0.0075520
  O        2.3891470     0.0000020     1.4601760
  O        2.4489030    -1.2526260    -0.7015720
  O        2.4489040     1.2526220    -0.7015770
  C        0.2698850     0.0000000    -0.0431290
  C       -1.8281600    -1.2204390    -0.0177060
  C       -1.8281600     1.2204390    -0.0177050
  C       -0.4294560     1.2077840    -0.0326800
  C       -0.4294570    -1.2077850    -0.0326810
  C       -2.5145250     0.0000000     0.0013750
  C       -2.5812260    -2.5268720     0.0200930
  C       -2.5812240     2.5268730     0.0200930
  H        0.1401440     2.1341360    -0.0762120
  H        0.1401420    -2.1341370    -0.0762130
  H       -3.6064350     0.0000010     0.0012720
  H       -2.0599700    -3.2944780    -0.5602250
  H       -2.6787834    -2.8951612     1.0268476
  H       -3.5901000    -2.4148770    -0.3912530
  H       -2.6805180     2.9020500     1.0455440
  H       -2.0600100     3.2944550    -0.5602960
  H       -3.5901270     2.4148600    -0.3911760
units angstrom
no_reorient  #important for SAPT in psi4, default
symmetry c1  #important for SAPT in psi4, default
}

set PROPERTIES_ORIGIN ["COM"]
properties('MP2/aug-cc-pvtz', properties = ['dipole'])
--------------------------------------------------------------------------

    Molecular point group: c1
  Charge       = -1
  Multiplicity = 1
  Basis Set: AUG-CC-PVTZ
    Blend: AUG-CC-PVTZ
  Basis Set: (AUG-CC-PVTZ AUX)
    Blend: AUG-CC-PVTZ-JKFIT

    Orbital Energies [Eh]
    ---------------------

    Doubly Occupied:

       1A    -92.013822     2A    -20.350732     3A    -20.350709
       4A    -20.349875     5A    -11.134418     6A    -11.134313
       7A    -11.131841     8A    -11.129436     9A    -11.123153
      10A    -11.122302    11A    -11.111778    12A    -11.111703
      13A     -8.974543    14A     -6.660258    15A     -6.659470
      16A     -6.659387    17A     -1.269719    18A     -1.126273
      19A     -1.124439    20A     -1.044866    21A     -0.952341
      22A     -0.922301    23A     -0.841472    24A     -0.820827
      25A     -0.730071    26A     -0.675794    27A     -0.624707
      28A     -0.567796    29A     -0.541169    30A     -0.513418
      31A     -0.487045    32A     -0.477008    33A     -0.475054
      34A     -0.463209    35A     -0.461260    36A     -0.454703
      37A     -0.450189    38A     -0.426205    39A     -0.399205
      40A     -0.372246    41A     -0.371976    42A     -0.331315
      43A     -0.330434    44A     -0.296468    45A     -0.290429
      46A     -0.269367    47A     -0.248696    48A     -0.210361
      49A     -0.208697

  @DF-RHF Final Energy:  -930.53572519868430

   => Energetics <=

    Nuclear Repulsion Energy =            814.1520148901449829
    One-Electron Energy =               -2909.7818827918167699
    Two-Electron Energy =                1165.0941427029874831
    Total Energy =                       -930.5357251986843039
  Basis Set: (AUG-CC-PVTZ AUX)
    Blend: AUG-CC-PVTZ-RI
    Molecular point group: c1

    Geometry (in Angstrom), charge = -1, multiplicity = 1:

       Center              X                  Y                   Z               Mass
    ------------   -----------------  -----------------  -----------------  -----------------
         S            1.969935680666    -0.000037131842     0.007854945737    31.972071174400
         O            2.282471680666    -0.000035131842     1.460478945737    15.994914619570
         O            2.342227680666    -1.252663131842    -0.701269054263    15.994914619570
         O            2.342228680666     1.252584868158    -0.701274054263    15.994914619570
         C            0.163209680666    -0.000037131842    -0.042826054263    12.000000000000
         C           -1.934835319334    -1.220476131842    -0.017403054263    12.000000000000
         C           -1.934835319334     1.220401868158    -0.017402054263    12.000000000000
         C           -0.536131319334     1.207746868158    -0.032377054263    12.000000000000
         C           -0.536132319334    -1.207822131842    -0.032378054263    12.000000000000
         C           -2.621200319334    -0.000037131842     0.001677945737    12.000000000000
         C           -2.687901319334    -2.526909131842     0.020395945737    12.000000000000
         C           -2.687899319334     2.526835868158     0.020395945737    12.000000000000
         H            0.033468680666     2.134098868158    -0.075909054263     1.007825032230
         H            0.033466680666    -2.134174131842    -0.075910054263     1.007825032230
         H           -3.713110319334    -0.000036131842     0.001574945737     1.007825032230
         H           -2.166645319334    -3.294515131842    -0.559922054263     1.007825032230
         H           -2.785458719334    -2.895198331842     1.027150545737     1.007825032230
         H           -3.696775319334    -2.414914131842    -0.390950054263     1.007825032230
         H           -2.787193319334     2.902012868158     1.045846945737     1.007825032230
         H           -2.166685319334     3.294417868158    -0.559993054263     1.007825032230
         H           -3.696802319334     2.414822868158    -0.390873054263     1.007825032230

  Basis Set: AUG-CC-PVTZ
    Blend: AUG-CC-PVTZ
  Basis Set: (AUG-CC-PVTZ AUX)
    Blend: AUG-CC-PVTZ-JKFIT
	 Reference Energy          =    -930.5357251986843039 [Eh]
	 Singles Energy            =      -0.0000000000000000 [Eh]
	 Same-Spin Energy          =      -0.6272851366165011 [Eh]
	 Opposite-Spin Energy      =      -1.8685472302090047 [Eh]
	 Correlation Energy        =      -2.4958323668255060 [Eh]
	 Total Energy              =    -933.0315575655098428 [Eh]

	 ================> DF-SCS-MP2 Energies <==================
	-----------------------------------------------------------
	 SCS Same-Spin Scale       =       0.3333333333333333 [-]
	 SCS Opposite-Spin Scale   =       1.2000000000000000 [-]
	 SCS Same-Spin Energy      =      -0.2090950455388337 [Eh]
	 SCS Opposite-Spin Energy  =      -2.2422566762508054 [Eh]
	 SCS Correlation Energy    =      -2.4513517217896390 [Eh]
	 SCS Total Energy          =    -932.9870769204738963 [Eh]
	-----------------------------------------------------------

  Dipole Moment: [D]
     X:   -10.3034      Y:    -0.0114      Z:    -0.0590     Total:    10.3036

*** Psi4 exiting successfully. Buy a developer a beer!
