                               Psi4 1.4a3.dev225

  ==> Input File <==

--------------------------------------------------------------------------
#psi4
#
memory 32 gb

molecule  {
-1 1
  S        2.0766110     0.0000000     0.0075520
  O        2.3891470     0.0000020     1.4601760
  O        2.4489030    -1.2526260    -0.7015720
  O        2.4489040     1.2526220    -0.7015770
  C        0.2698850     0.0000000    -0.0431290
  C       -1.8281600    -1.2204390    -0.0177060
  C       -1.8281600     1.2204390    -0.0177050
  C       -0.5294462     1.2086887    -0.0316095
  C       -0.4294570    -1.2077850    -0.0326810
  C       -2.5145250     0.0000000     0.0013750
  C       -2.5812260    -2.5268720     0.0200930
  C       -2.5812240     2.5268730     0.0200930
  H        0.1401440     2.1341360    -0.0762120
  H        0.1401420    -2.1341370    -0.0762130
  H       -3.6064350     0.0000010     0.0012720
  H       -2.0599700    -3.2944780    -0.5602250
  H       -2.6805960    -2.9020040     1.0455530
  H       -3.5901000    -2.4148770    -0.3912530
  H       -2.6805180     2.9020500     1.0455440
  H       -2.0600100     3.2944550    -0.5602960
  H       -3.5901270     2.4148600    -0.3911760
units angstrom
no_reorient  #important for SAPT in psi4, default
symmetry c1  #important for SAPT in psi4, default
}

set PROPERTIES_ORIGIN ["COM"]
properties('MP2/aug-cc-pvtz', properties = ['dipole'])
--------------------------------------------------------------------------

    Molecular point group: c1
  Charge       = -1
  Multiplicity = 1
  Basis Set: AUG-CC-PVTZ
    Blend: AUG-CC-PVTZ
  Basis Set: (AUG-CC-PVTZ AUX)
    Blend: AUG-CC-PVTZ-JKFIT

    Orbital Energies [Eh]
    ---------------------

    Doubly Occupied:

       1A    -92.017087     2A    -20.353099     3A    -20.352300
       4A    -20.351727     5A    -11.134809     6A    -11.131963
       7A    -11.130089     8A    -11.128392     9A    -11.122040
      10A    -11.120457    11A    -11.111322    12A    -11.109084
      13A     -8.977498    14A     -6.663280    15A     -6.662427
      16A     -6.662349    17A     -1.271365    18A     -1.127959
      19A     -1.126106    20A     -1.051638    21A     -0.959348
      22A     -0.915161    23A     -0.840367    24A     -0.822275
      25A     -0.736885    26A     -0.669855    27A     -0.628028
      28A     -0.563372    29A     -0.543090    30A     -0.514001
      31A     -0.485916    32A     -0.475436    33A     -0.472376
      34A     -0.464475    35A     -0.462723    36A     -0.456393
      37A     -0.447953    38A     -0.423586    39A     -0.404226
      40A     -0.374294    41A     -0.354306    42A     -0.332553
      43A     -0.331772    44A     -0.298273    45A     -0.292315
      46A     -0.273714    47A     -0.250315    48A     -0.221583
      49A     -0.202987

  @DF-RHF Final Energy:  -930.52174629831893

   => Energetics <=

    Nuclear Repulsion Energy =            814.1419088857990118
    One-Electron Energy =               -2909.6821706245227688
    Two-Electron Energy =                1165.0185154404045988
    Total Energy =                       -930.5217462983189307
  Basis Set: (AUG-CC-PVTZ AUX)
    Blend: AUG-CC-PVTZ-RI
    Molecular point group: c1

    Geometry (in Angstrom), charge = -1, multiplicity = 1:

       Center              X                  Y                   Z               Mass
    ------------   -----------------  -----------------  -----------------  -----------------
         S            1.976430449661    -0.000058534393     0.007683631662    31.972071174400
         O            2.288966449661    -0.000056534393     1.460307631662    15.994914619570
         O            2.348722449661    -1.252684534393    -0.701440368338    15.994914619570
         O            2.348723449661     1.252563465607    -0.701445368338    15.994914619570
         C            0.169704449661    -0.000058534393    -0.042997368338    12.000000000000
         C           -1.928340550339    -1.220497534393    -0.017574368338    12.000000000000
         C           -1.928340550339     1.220380465607    -0.017573368338    12.000000000000
         C           -0.629626750339     1.208630165607    -0.031477868338    12.000000000000
         C           -0.529637550339    -1.207843534393    -0.032549368338    12.000000000000
         C           -2.614705550339    -0.000058534393     0.001506631662    12.000000000000
         C           -2.681406550339    -2.526930534393     0.020224631662    12.000000000000
         C           -2.681404550339     2.526814465607     0.020224631662    12.000000000000
         H            0.039963449661     2.134077465607    -0.076080368338     1.007825032230
         H            0.039961449661    -2.134195534393    -0.076081368338     1.007825032230
         H           -3.706615550339    -0.000057534393     0.001403631662     1.007825032230
         H           -2.160150550339    -3.294536534393    -0.560093368338     1.007825032230
         H           -2.780776550339    -2.902062534393     1.045684631662     1.007825032230
         H           -3.690280550339    -2.414935534393    -0.391121368338     1.007825032230
         H           -2.780698550339     2.901991465607     1.045675631662     1.007825032230
         H           -2.160190550339     3.294396465607    -0.560164368338     1.007825032230
         H           -3.690307550339     2.414801465607    -0.391044368338     1.007825032230

  Basis Set: AUG-CC-PVTZ
    Blend: AUG-CC-PVTZ
  Basis Set: (AUG-CC-PVTZ AUX)
    Blend: AUG-CC-PVTZ-JKFIT
	 Reference Energy          =    -930.5217462983189307 [Eh]
	 Singles Energy            =      -0.0000000000000000 [Eh]
	 Same-Spin Energy          =      -0.6272776922231929 [Eh]
	 Opposite-Spin Energy      =      -1.8692913574342251 [Eh]
	 Correlation Energy        =      -2.4965690496574178 [Eh]
	 Total Energy              =    -933.0183153479763405 [Eh]

	 ================> DF-SCS-MP2 Energies <==================
	-----------------------------------------------------------
	 SCS Same-Spin Scale       =       0.3333333333333333 [-]
	 SCS Opposite-Spin Scale   =       1.2000000000000000 [-]
	 SCS Same-Spin Energy      =      -0.2090925640743976 [Eh]
	 SCS Opposite-Spin Energy  =      -2.2431496289210702 [Eh]
	 SCS Correlation Energy    =      -2.4522421929954676 [Eh]
	 SCS Total Energy          =    -932.9739884913143442 [Eh]
	-----------------------------------------------------------

  Dipole Moment: [D]
     X:   -10.2070      Y:    -0.0788      Z:    -0.0669     Total:    10.2076

*** Psi4 exiting successfully. Buy a developer a beer!
