                               Psi4 1.4a3.dev225

  ==> Input File <==

--------------------------------------------------------------------------
#psi4
#
memory 32 gb

molecule  {
-1 1
  S        2.0766110     0.0000000     0.0075520
  O        2.3891470     0.0000020     1.4601760
  O        2.4489030    -1.2526260    -0.7015720
  O        2.4539120     1.2694721    -0.7111161
  C        0.2698850     0.0000000    -0.0431290
  C       -1.8281600    -1.2204390    -0.0177060
  C       -1.8281600     1.2204390    -0.0177050
  C       -0.4294560     1.2077840    -0.0326800
  C       -0.4294570    -1.2077850    -0.0326810
  C       -2.5145250     0.0000000     0.0013750
  C       -2.5812260    -2.5268720     0.0200930
  C       -2.5812240     2.5268730     0.0200930
  H        0.1401440     2.1341360    -0.0762120
  H        0.1401420    -2.1341370    -0.0762130
  H       -3.6064350     0.0000010     0.0012720
  H       -2.0599700    -3.2944780    -0.5602250
  H       -2.6805960    -2.9020040     1.0455530
  H       -3.5901000    -2.4148770    -0.3912530
  H       -2.6805180     2.9020500     1.0455440
  H       -2.0600100     3.2944550    -0.5602960
  H       -3.5901270     2.4148600    -0.3911760
units angstrom
no_reorient  #important for SAPT in psi4, default
symmetry c1  #important for SAPT in psi4, default
}

set PROPERTIES_ORIGIN ["COM"]
properties('MP2/aug-cc-pvtz', properties = ['dipole'])
--------------------------------------------------------------------------

    Molecular point group: c1
  Charge       = -1
  Multiplicity = 1
  Basis Set: AUG-CC-PVTZ
    Blend: AUG-CC-PVTZ
  Basis Set: (AUG-CC-PVTZ AUX)
    Blend: AUG-CC-PVTZ-JKFIT

    Orbital Energies [Eh]
    ---------------------

    Doubly Occupied:

       1A    -92.015697     2A    -20.352474     3A    -20.351627
       4A    -20.350587     5A    -11.134958     6A    -11.134817
       7A    -11.132263     8A    -11.132087     9A    -11.124320
      10A    -11.122920    11A    -11.112610    12A    -11.112282
      13A     -8.976189    14A     -6.661898    15A     -6.661075
      16A     -6.660954    17A     -1.266137    18A     -1.126303
      19A     -1.119314    20A     -1.045393    21A     -0.952440
      22A     -0.922735    23A     -0.841079    24A     -0.820745
      25A     -0.731039    26A     -0.675982    27A     -0.625868
      28A     -0.568091    29A     -0.541750    30A     -0.512928
      31A     -0.485374    32A     -0.475535    33A     -0.475340
      34A     -0.462184    35A     -0.460233    36A     -0.455093
      37A     -0.450612    38A     -0.426557    39A     -0.399495
      40A     -0.372640    41A     -0.372188    42A     -0.329965
      43A     -0.329008    44A     -0.296696    45A     -0.288662
      46A     -0.269552    47A     -0.248936    48A     -0.211036
      49A     -0.209084

  @DF-RHF Final Energy:  -930.53327950186883

   => Energetics <=

    Nuclear Repulsion Energy =            813.1158342404235100
    One-Electron Energy =               -2907.6887229389435561
    Two-Electron Energy =                1164.0396091966510994
    Total Energy =                       -930.5332795018687193
  Basis Set: (AUG-CC-PVTZ AUX)
    Blend: AUG-CC-PVTZ-RI
    Molecular point group: c1

    Geometry (in Angstrom), charge = -1, multiplicity = 1:

       Center              X                  Y                   Z               Mass
    ------------   -----------------  -----------------  -----------------  -----------------
         S            1.969512630802    -0.001456488069     0.008577678884    31.972071174400
         O            2.282048630802    -0.001454488069     1.461201678884    15.994914619570
         O            2.341804630802    -1.254082488069    -0.700546321116    15.994914619570
         O            2.346813630802     1.268015611931    -0.710090421116    15.994914619570
         C            0.162786630802    -0.001456488069    -0.042103321116    12.000000000000
         C           -1.935258369198    -1.221895488069    -0.016680321116    12.000000000000
         C           -1.935258369198     1.218982511931    -0.016679321116    12.000000000000
         C           -0.536554369198     1.206327511931    -0.031654321116    12.000000000000
         C           -0.536555369198    -1.209241488069    -0.031655321116    12.000000000000
         C           -2.621623369198    -0.001456488069     0.002400678884    12.000000000000
         C           -2.688324369198    -2.528328488069     0.021118678884    12.000000000000
         C           -2.688322369198     2.525416511931     0.021118678884    12.000000000000
         H            0.033045630802     2.132679511931    -0.075186321116     1.007825032230
         H            0.033043630802    -2.135593488069    -0.075187321116     1.007825032230
         H           -3.713533369198    -0.001455488069     0.002297678884     1.007825032230
         H           -2.167068369198    -3.295934488069    -0.559199321116     1.007825032230
         H           -2.787694369198    -2.903460488069     1.046578678884     1.007825032230
         H           -3.697198369198    -2.416333488069    -0.390227321116     1.007825032230
         H           -2.787616369198     2.900593511931     1.046569678884     1.007825032230
         H           -2.167108369198     3.292998511931    -0.559270321116     1.007825032230
         H           -3.697225369198     2.413403511931    -0.390150321116     1.007825032230

  Basis Set: AUG-CC-PVTZ
    Blend: AUG-CC-PVTZ
  Basis Set: (AUG-CC-PVTZ AUX)
    Blend: AUG-CC-PVTZ-JKFIT
	 Reference Energy          =    -930.5332795018688330 [Eh]
	 Singles Energy            =      -0.0000000000000000 [Eh]
	 Same-Spin Energy          =      -0.6276675355018357 [Eh]
	 Opposite-Spin Energy      =      -1.8697116847930848 [Eh]
	 Correlation Energy        =      -2.4973792202949205 [Eh]
	 Total Energy              =    -933.0306587221637074 [Eh]

	 ================> DF-SCS-MP2 Energies <==================
	-----------------------------------------------------------
	 SCS Same-Spin Scale       =       0.3333333333333333 [-]
	 SCS Opposite-Spin Scale   =       1.2000000000000000 [-]
	 SCS Same-Spin Energy      =      -0.2092225118339452 [Eh]
	 SCS Opposite-Spin Energy  =      -2.2436540217517016 [Eh]
	 SCS Correlation Energy    =      -2.4528765335856466 [Eh]
	 SCS Total Energy          =    -932.9861560354544281 [Eh]
	-----------------------------------------------------------

  Dipole Moment: [D]
     X:   -10.3585      Y:    -0.0990      Z:    -0.0086     Total:    10.3590

*** Psi4 exiting successfully. Buy a developer a beer!
