                               Psi4 1.4a3.dev225

  ==> Input File <==

--------------------------------------------------------------------------
#psi4
#
memory 32 gb

molecule  {
-1 1
  S        2.0766110     0.0000000     0.0075520
  O        2.3891470     0.0000020     1.4601760
  O        2.4489030    -1.2526260    -0.7015720
  O        2.4489040     1.2526220    -0.7015770
  C        0.2698850     0.0000000    -0.0431290
  C       -1.8281600    -1.2204390    -0.0177060
  C       -1.8281600     1.2204390    -0.0177050
  C       -0.4294560     1.2077840    -0.0326800
  C       -0.4294570    -1.2077850    -0.0326810
  C       -2.5145250     0.0000000     0.0013750
  C       -2.5812260    -2.5268720     0.0200930
  C       -2.5812240     2.5268730     0.0200930
  H        0.1401440     2.1341360    -0.0762120
  H        0.1924789    -2.2192537    -0.0802129
  H       -3.6064350     0.0000010     0.0012720
  H       -2.0599700    -3.2944780    -0.5602250
  H       -2.6805960    -2.9020040     1.0455530
  H       -3.5901000    -2.4148770    -0.3912530
  H       -2.6805180     2.9020500     1.0455440
  H       -2.0600100     3.2944550    -0.5602960
  H       -3.5901270     2.4148600    -0.3911760
units angstrom
no_reorient  #important for SAPT in psi4, default
symmetry c1  #important for SAPT in psi4, default
}

set PROPERTIES_ORIGIN ["COM"]
properties('MP2/aug-cc-pvtz', properties = ['dipole'])
--------------------------------------------------------------------------

    Molecular point group: c1
  Charge       = -1
  Multiplicity = 1
  Basis Set: AUG-CC-PVTZ
    Blend: AUG-CC-PVTZ
  Basis Set: (AUG-CC-PVTZ AUX)
    Blend: AUG-CC-PVTZ-JKFIT

    Orbital Energies [Eh]
    ---------------------

    Doubly Occupied:

       1A    -92.013959     2A    -20.350885     3A    -20.350681
       4A    -20.349961     5A    -11.135194     6A    -11.134715
       7A    -11.132088     8A    -11.131607     9A    -11.124223
      10A    -11.122984    11A    -11.122129    12A    -11.112507
      13A     -8.974680    14A     -6.660402    15A     -6.659603
      16A     -6.659521    17A     -1.269798    18A     -1.126351
      19A     -1.124509    20A     -1.044930    21A     -0.951487
      22A     -0.921919    23A     -0.840574    24A     -0.817833
      25A     -0.729708    26A     -0.672766    27A     -0.624666
      28A     -0.560242    29A     -0.541417    30A     -0.512351
      31A     -0.485055    32A     -0.475209    33A     -0.474055
      34A     -0.463245    35A     -0.461295    36A     -0.454156
      37A     -0.443814    38A     -0.425368    39A     -0.397586
      40A     -0.372259    41A     -0.367472    42A     -0.331360
      43A     -0.330323    44A     -0.296545    45A     -0.290187
      46A     -0.269632    47A     -0.248757    48A     -0.210843
      49A     -0.208996

  @DF-RHF Final Energy:  -930.52807389242105

   => Energetics <=

    Nuclear Repulsion Energy =            813.5580755041270322
    One-Electron Energy =               -2908.6126051687328982
    Two-Electron Energy =                1164.5264557721850451
    Total Energy =                       -930.5280738924209345
  Basis Set: (AUG-CC-PVTZ AUX)
    Blend: AUG-CC-PVTZ-RI
    Molecular point group: c1

    Geometry (in Angstrom), charge = -1, multiplicity = 1:

       Center              X                  Y                   Z               Mass
    ------------   -----------------  -----------------  -----------------  -----------------
         S            1.969660479813     0.000463762437     0.007774846336    31.972071174400
         O            2.282196479813     0.000465762437     1.460398846336    15.994914619570
         O            2.341952479813    -1.252162237563    -0.701349153664    15.994914619570
         O            2.341953479813     1.253085762437    -0.701354153664    15.994914619570
         C            0.162934479813     0.000463762437    -0.042906153664    12.000000000000
         C           -1.935110520187    -1.219975237563    -0.017483153664    12.000000000000
         C           -1.935110520187     1.220902762437    -0.017482153664    12.000000000000
         C           -0.536406520187     1.208247762437    -0.032457153664    12.000000000000
         C           -0.536407520187    -1.207321237563    -0.032458153664    12.000000000000
         C           -2.621475520187     0.000463762437     0.001597846336    12.000000000000
         C           -2.688176520187    -2.526408237563     0.020315846336    12.000000000000
         C           -2.688174520187     2.527336762437     0.020315846336    12.000000000000
         H            0.033193479813     2.134599762437    -0.075989153664     1.007825032230
         H            0.085528379813    -2.218789937563    -0.079990053664     1.007825032230
         H           -3.713385520187     0.000464762437     0.001494846336     1.007825032230
         H           -2.166920520187    -3.294014237563    -0.560002153664     1.007825032230
         H           -2.787546520187    -2.901540237563     1.045775846336     1.007825032230
         H           -3.697050520187    -2.414413237563    -0.391030153664     1.007825032230
         H           -2.787468520187     2.902513762437     1.045766846336     1.007825032230
         H           -2.166960520187     3.294918762437    -0.560073153664     1.007825032230
         H           -3.697077520187     2.415323762437    -0.390953153664     1.007825032230

  Basis Set: AUG-CC-PVTZ
    Blend: AUG-CC-PVTZ
  Basis Set: (AUG-CC-PVTZ AUX)
    Blend: AUG-CC-PVTZ-JKFIT
	 Reference Energy          =    -930.5280738924210482 [Eh]
	 Singles Energy            =      -0.0000000000000000 [Eh]
	 Same-Spin Energy          =      -0.6277029214828947 [Eh]
	 Opposite-Spin Energy      =      -1.8697407997846858 [Eh]
	 Correlation Energy        =      -2.4974437212675804 [Eh]
	 Total Energy              =    -933.0255176136886348 [Eh]

	 ================> DF-SCS-MP2 Energies <==================
	-----------------------------------------------------------
	 SCS Same-Spin Scale       =       0.3333333333333333 [-]
	 SCS Opposite-Spin Scale   =       1.2000000000000000 [-]
	 SCS Same-Spin Energy      =      -0.2092343071609649 [Eh]
	 SCS Opposite-Spin Energy  =      -2.2436889597416227 [Eh]
	 SCS Correlation Energy    =      -2.4529232669025878 [Eh]
	 SCS Total Energy          =    -932.9809971593236924 [Eh]
	-----------------------------------------------------------

  Dipole Moment: [D]
     X:   -10.2785      Y:     0.0239      Z:    -0.0713     Total:    10.2788

*** Psi4 exiting successfully. Buy a developer a beer!
