                               Psi4 1.4a3.dev225

  ==> Input File <==

--------------------------------------------------------------------------
#psi4
#
memory 32 gb

molecule  {
-1 1
  S        2.0668454    -0.1888701     0.0025764
  O        2.3891470     0.0000020     1.4601760
  O        2.4489030    -1.2526260    -0.7015720
  O        2.4489040     1.2526220    -0.7015770
  C        0.2698850     0.0000000    -0.0431290
  C       -1.8281600    -1.2204390    -0.0177060
  C       -1.8281600     1.2204390    -0.0177050
  C       -0.4294560     1.2077840    -0.0326800
  C       -0.4294570    -1.2077850    -0.0326810
  C       -2.5145250     0.0000000     0.0013750
  C       -2.5812260    -2.5268720     0.0200930
  C       -2.5812240     2.5268730     0.0200930
  H        0.1401440     2.1341360    -0.0762120
  H        0.1401420    -2.1341370    -0.0762130
  H       -3.6064350     0.0000010     0.0012720
  H       -2.0599700    -3.2944780    -0.5602250
  H       -2.6805960    -2.9020040     1.0455530
  H       -3.5901000    -2.4148770    -0.3912530
  H       -2.6805180     2.9020500     1.0455440
  H       -2.0600100     3.2944550    -0.5602960
  H       -3.5901270     2.4148600    -0.3911760
units angstrom
no_reorient  #important for SAPT in psi4, default
symmetry c1  #important for SAPT in psi4, default
}

set PROPERTIES_ORIGIN ["COM"]
properties('MP2/aug-cc-pvtz', properties = ['dipole'])
--------------------------------------------------------------------------

    Molecular point group: c1
  Charge       = -1
  Multiplicity = 1
  Basis Set: AUG-CC-PVTZ
    Blend: AUG-CC-PVTZ
  Basis Set: (AUG-CC-PVTZ AUX)
    Blend: AUG-CC-PVTZ-JKFIT

    Orbital Energies [Eh]
    ---------------------

    Doubly Occupied:

       1A    -92.005777     2A    -20.391273     3A    -20.348396
       4A    -20.310734     5A    -11.135463     6A    -11.134573
       7A    -11.133423     8A    -11.131102     9A    -11.124965
      10A    -11.122903    11A    -11.113234    12A    -11.111837
      13A     -8.971440    14A     -6.657741    15A     -6.656137
      16A     -6.654997    17A     -1.335262    18A     -1.154009
      19A     -1.047879    20A     -1.037322    21A     -0.952606
      22A     -0.922961    23A     -0.841257    24A     -0.821035
      25A     -0.732008    26A     -0.676229    27A     -0.628053
      28A     -0.571206    29A     -0.542843    30A     -0.528476
      31A     -0.490120    32A     -0.483902    33A     -0.479437
      34A     -0.475510    35A     -0.473994    36A     -0.455785
      37A     -0.450101    38A     -0.427478    39A     -0.406276
      40A     -0.375297    41A     -0.372924    42A     -0.345485
      43A     -0.329305    44A     -0.307611    45A     -0.258892
      46A     -0.239491    47A     -0.224058    48A     -0.210751
      49A     -0.204938

  @DF-RHF Final Energy:  -930.47786674529800

   => Energetics <=

    Nuclear Repulsion Energy =            814.5054458958665009
    One-Electron Energy =               -2910.3536338467156384
    Two-Electron Energy =                1165.3703212055509084
    Total Energy =                       -930.4778667452981153
  Basis Set: (AUG-CC-PVTZ AUX)
    Blend: AUG-CC-PVTZ-RI
    Molecular point group: c1

    Geometry (in Angstrom), charge = -1, multiplicity = 1:

       Center              X                  Y                   Z               Mass
    ------------   -----------------  -----------------  -----------------  -----------------
         S            1.961867415833    -0.156233855671     0.003637225856    31.972071174400
         O            2.284169015833     0.032638244329     1.461236825856    15.994914619570
         O            2.343925015833    -1.219989755671    -0.700511174144    15.994914619570
         O            2.343926015833     1.285258244329    -0.700516174144    15.994914619570
         C            0.164907015833     0.032636244329    -0.042068174144    12.000000000000
         C           -1.933137984167    -1.187802755671    -0.016645174144    12.000000000000
         C           -1.933137984167     1.253075244329    -0.016644174144    12.000000000000
         C           -0.534433984167     1.240420244329    -0.031619174144    12.000000000000
         C           -0.534434984167    -1.175148755671    -0.031620174144    12.000000000000
         C           -2.619502984167     0.032636244329     0.002435825856    12.000000000000
         C           -2.686203984167    -2.494235755671     0.021153825856    12.000000000000
         C           -2.686201984167     2.559509244329     0.021153825856    12.000000000000
         H            0.035166015833     2.166772244329    -0.075151174144     1.007825032230
         H            0.035164015833    -2.101500755671    -0.075152174144     1.007825032230
         H           -3.711412984167     0.032637244329     0.002332825856     1.007825032230
         H           -2.164947984167    -3.261841755671    -0.559164174144     1.007825032230
         H           -2.785573984167    -2.869367755671     1.046613825856     1.007825032230
         H           -3.695077984167    -2.382240755671    -0.390192174144     1.007825032230
         H           -2.785495984167     2.934686244329     1.046604825856     1.007825032230
         H           -2.164987984167     3.327091244329    -0.559235174144     1.007825032230
         H           -3.695104984167     2.447496244329    -0.390115174144     1.007825032230

  Basis Set: AUG-CC-PVTZ
    Blend: AUG-CC-PVTZ
  Basis Set: (AUG-CC-PVTZ AUX)
    Blend: AUG-CC-PVTZ-JKFIT
	 Reference Energy          =    -930.4778667452980017 [Eh]
	 Singles Energy            =      -0.0000000000000000 [Eh]
	 Same-Spin Energy          =      -0.6271840389327048 [Eh]
	 Opposite-Spin Energy      =      -1.8698333777848888 [Eh]
	 Correlation Energy        =      -2.4970174167175934 [Eh]
	 Total Energy              =    -932.9748841620155417 [Eh]

	 ================> DF-SCS-MP2 Energies <==================
	-----------------------------------------------------------
	 SCS Same-Spin Scale       =       0.3333333333333333 [-]
	 SCS Opposite-Spin Scale   =       1.2000000000000000 [-]
	 SCS Same-Spin Energy      =      -0.2090613463109016 [Eh]
	 SCS Opposite-Spin Energy  =      -2.2438000533418663 [Eh]
	 SCS Correlation Energy    =      -2.4528613996527677 [Eh]
	 SCS Total Energy          =    -932.9307281449507627 [Eh]
	-----------------------------------------------------------

  Dipole Moment: [D]
     X:   -10.4679      Y:    -1.9167      Z:    -0.0497     Total:    10.6421

*** Psi4 exiting successfully. Buy a developer a beer!
