                               Psi4 1.4a3.dev225

  ==> Input File <==

--------------------------------------------------------------------------
#psi4
#
memory 32 gb

molecule  {
-1 1
  S        2.0766110     0.0000000     0.0075520
  O        2.3786300     0.0000019     1.4112946
  O        2.4489030    -1.2526260    -0.7015720
  O        2.4489040     1.2526220    -0.7015770
  C        0.2698850     0.0000000    -0.0431290
  C       -1.8281600    -1.2204390    -0.0177060
  C       -1.8281600     1.2204390    -0.0177050
  C       -0.4294560     1.2077840    -0.0326800
  C       -0.4294570    -1.2077850    -0.0326810
  C       -2.5145250     0.0000000     0.0013750
  C       -2.5812260    -2.5268720     0.0200930
  C       -2.5812240     2.5268730     0.0200930
  H        0.1401440     2.1341360    -0.0762120
  H        0.1401420    -2.1341370    -0.0762130
  H       -3.6064350     0.0000010     0.0012720
  H       -2.0599700    -3.2944780    -0.5602250
  H       -2.6805960    -2.9020040     1.0455530
  H       -3.5901000    -2.4148770    -0.3912530
  H       -2.6805180     2.9020500     1.0455440
  H       -2.0600100     3.2944550    -0.5602960
  H       -3.5901270     2.4148600    -0.3911760
units angstrom
no_reorient  #important for SAPT in psi4, default
symmetry c1  #important for SAPT in psi4, default
}

set PROPERTIES_ORIGIN ["COM"]
properties('MP2/aug-cc-pvtz', properties = ['dipole'])
--------------------------------------------------------------------------

    Molecular point group: c1
  Charge       = -1
  Multiplicity = 1
  Basis Set: AUG-CC-PVTZ
    Blend: AUG-CC-PVTZ
  Basis Set: (AUG-CC-PVTZ AUX)
    Blend: AUG-CC-PVTZ-JKFIT

    Orbital Energies [Eh]
    ---------------------

    Doubly Occupied:

       1A    -92.008433     2A    -20.350617     3A    -20.346296
       4A    -20.346273     5A    -11.133338     6A    -11.133294
       7A    -11.131074     8A    -11.131074     9A    -11.121007
      10A    -11.120279    11A    -11.110126    12A    -11.110044
      13A     -8.970107    14A     -6.655769    15A     -6.655344
      16A     -6.654931    17A     -1.282356    18A     -1.139046
      19A     -1.123017    20A     -1.043534    21A     -0.950949
      22A     -0.920656    23A     -0.839692    24A     -0.819085
      25A     -0.727785    26A     -0.674260    27A     -0.621695
      28A     -0.566576    29A     -0.540032    30A     -0.515779
      31A     -0.484287    32A     -0.474562    33A     -0.474482
      34A     -0.466109    35A     -0.465053    36A     -0.454008
      37A     -0.449067    38A     -0.425561    39A     -0.400021
      40A     -0.371248    41A     -0.371053    42A     -0.335083
      43A     -0.333173    44A     -0.301890    45A     -0.288073
      46A     -0.269291    47A     -0.248089    48A     -0.209114
      49A     -0.207530

  @DF-RHF Final Energy:  -930.53844171206867

   => Energetics <=

    Nuclear Repulsion Energy =            816.5327623527599599
    One-Electron Energy =               -2914.6020774008848093
    Two-Electron Energy =                1167.5308733360561746
    Total Energy =                       -930.5384417120685612
  Basis Set: (AUG-CC-PVTZ AUX)
    Blend: AUG-CC-PVTZ-RI
    Molecular point group: c1

    Geometry (in Angstrom), charge = -1, multiplicity = 1:

       Center              X                  Y                   Z               Mass
    ------------   -----------------  -----------------  -----------------  -----------------
         S            1.970854709131     0.000000148856     0.011978673939    31.972071174400
         O            2.272873709131     0.000002048856     1.415721273939    15.994914619570
         O            2.343146709131    -1.252625851144    -0.697145326061    15.994914619570
         O            2.343147709131     1.252622148856    -0.697150326061    15.994914619570
         C            0.164128709131     0.000000148856    -0.038702326061    12.000000000000
         C           -1.933916290869    -1.220438851144    -0.013279326061    12.000000000000
         C           -1.933916290869     1.220439148856    -0.013278326061    12.000000000000
         C           -0.535212290869     1.207784148856    -0.028253326061    12.000000000000
         C           -0.535213290869    -1.207784851144    -0.028254326061    12.000000000000
         C           -2.620281290869     0.000000148856     0.005801673939    12.000000000000
         C           -2.686982290869    -2.526871851144     0.024519673939    12.000000000000
         C           -2.686980290869     2.526873148856     0.024519673939    12.000000000000
         H            0.034387709131     2.134136148856    -0.071785326061     1.007825032230
         H            0.034385709131    -2.134136851144    -0.071786326061     1.007825032230
         H           -3.712191290869     0.000001148856     0.005698673939     1.007825032230
         H           -2.165726290869    -3.294477851144    -0.555798326061     1.007825032230
         H           -2.786352290869    -2.902003851144     1.049979673939     1.007825032230
         H           -3.695856290869    -2.414876851144    -0.386826326061     1.007825032230
         H           -2.786274290869     2.902050148856     1.049970673939     1.007825032230
         H           -2.165766290869     3.294455148856    -0.555869326061     1.007825032230
         H           -3.695883290869     2.414860148856    -0.386749326061     1.007825032230

  Basis Set: AUG-CC-PVTZ
    Blend: AUG-CC-PVTZ
  Basis Set: (AUG-CC-PVTZ AUX)
    Blend: AUG-CC-PVTZ-JKFIT
	 Reference Energy          =    -930.5384417120686749 [Eh]
	 Singles Energy            =      -0.0000000000000000 [Eh]
	 Same-Spin Energy          =      -0.6262326462180169 [Eh]
	 Opposite-Spin Energy      =      -1.8659343506387747 [Eh]
	 Correlation Energy        =      -2.4921669968567914 [Eh]
	 Total Energy              =    -933.0306087089254561 [Eh]

	 ================> DF-SCS-MP2 Energies <==================
	-----------------------------------------------------------
	 SCS Same-Spin Scale       =       0.3333333333333333 [-]
	 SCS Opposite-Spin Scale   =       1.2000000000000000 [-]
	 SCS Same-Spin Energy      =      -0.2087442154060056 [Eh]
	 SCS Opposite-Spin Energy  =      -2.2391212207665294 [Eh]
	 SCS Correlation Energy    =      -2.4478654361725352 [Eh]
	 SCS Total Energy          =    -932.9863071482411669 [Eh]
	-----------------------------------------------------------

  Dipole Moment: [D]
     X:   -10.1491      Y:     0.0000      Z:     0.2353     Total:    10.1518

*** Psi4 exiting successfully. Buy a developer a beer!
