                               Psi4 1.4a3.dev225

  ==> Input File <==

--------------------------------------------------------------------------
#psi4
#
memory 32 gb

molecule  {
-1 1
  S        2.0766110     0.0000000     0.0075520
  O        2.3891470     0.0000020     1.4601760
  O        2.4489030    -1.2526260    -0.7015720
  O        2.4489040     1.2526220    -0.7015770
  C        0.2698850     0.0000000    -0.0431290
  C       -1.8495559    -1.2322365    -0.0171112
  C       -1.8281600     1.2204390    -0.0177050
  C       -0.4294560     1.2077840    -0.0326800
  C       -0.4294570    -1.2077850    -0.0326810
  C       -2.5145250     0.0000000     0.0013750
  C       -2.5812260    -2.5268720     0.0200930
  C       -2.5812240     2.5268730     0.0200930
  H        0.1401440     2.1341360    -0.0762120
  H        0.1401420    -2.1341370    -0.0762130
  H       -3.6064350     0.0000010     0.0012720
  H       -2.0599700    -3.2944780    -0.5602250
  H       -2.6805960    -2.9020040     1.0455530
  H       -3.5901000    -2.4148770    -0.3912530
  H       -2.6805180     2.9020500     1.0455440
  H       -2.0600100     3.2944550    -0.5602960
  H       -3.5901270     2.4148600    -0.3911760
units angstrom
no_reorient  #important for SAPT in psi4, default
symmetry c1  #important for SAPT in psi4, default
}

set PROPERTIES_ORIGIN ["COM"]
properties('MP2/aug-cc-pvtz', properties = ['dipole'])
--------------------------------------------------------------------------

    Molecular point group: c1
  Charge       = -1
  Multiplicity = 1
  Basis Set: AUG-CC-PVTZ
    Blend: AUG-CC-PVTZ
  Basis Set: (AUG-CC-PVTZ AUX)
    Blend: AUG-CC-PVTZ-JKFIT

    Orbital Energies [Eh]
    ---------------------

    Doubly Occupied:

       1A    -92.013793     2A    -20.350745     3A    -20.350543
       4A    -20.349756     5A    -11.135796     6A    -11.134297
       7A    -11.131850     8A    -11.131732     9A    -11.122890
      10A    -11.122732    11A    -11.114031    12A    -11.112149
      13A     -8.974504    14A     -6.660221    15A     -6.659431
      16A     -6.659347    17A     -1.269631    18A     -1.126197
      19A     -1.124339    20A     -1.043559    21A     -0.953311
      22A     -0.922870    23A     -0.841741    24A     -0.819162
      25A     -0.728332    26A     -0.676545    27A     -0.624364
      28A     -0.566792    29A     -0.541117    30A     -0.513710
      31A     -0.486152    32A     -0.478479    33A     -0.476155
      34A     -0.463159    35A     -0.461295    36A     -0.455350
      37A     -0.449737    38A     -0.425818    39A     -0.395962
      40A     -0.375423    41A     -0.370305    42A     -0.331246
      43A     -0.330287    44A     -0.296299    45A     -0.290314
      46A     -0.269208    47A     -0.248609    48A     -0.210973
      49A     -0.206008

  @DF-RHF Final Energy:  -930.53442705852854

   => Energetics <=

    Nuclear Repulsion Energy =            813.7315946884215236
    One-Electron Energy =               -2908.9395188163189232
    Two-Electron Energy =                1164.6734970693689775
    Total Energy =                       -930.5344270585285358
  Basis Set: (AUG-CC-PVTZ AUX)
    Blend: AUG-CC-PVTZ-RI
    Molecular point group: c1

    Geometry (in Angstrom), charge = -1, multiplicity = 1:

       Center              X                  Y                   Z               Mass
    ------------   -----------------  -----------------  -----------------  -----------------
         S            1.971333191558     0.000765270793     0.007714483336    31.972071174400
         O            2.283869191558     0.000767270793     1.460338483336    15.994914619570
         O            2.343625191558    -1.251860729207    -0.701409516664    15.994914619570
         O            2.343626191558     1.253387270793    -0.701414516664    15.994914619570
         C            0.164607191558     0.000765270793    -0.042966516664    12.000000000000
         C           -1.954833708442    -1.231471229207    -0.016948716664    12.000000000000
         C           -1.933437808442     1.221204270793    -0.017542516664    12.000000000000
         C           -0.534733808442     1.208549270793    -0.032517516664    12.000000000000
         C           -0.534734808442    -1.207019729207    -0.032518516664    12.000000000000
         C           -2.619802808442     0.000765270793     0.001537483336    12.000000000000
         C           -2.686503808442    -2.526106729207     0.020255483336    12.000000000000
         C           -2.686501808442     2.527638270793     0.020255483336    12.000000000000
         H            0.034866191558     2.134901270793    -0.076049516664     1.007825032230
         H            0.034864191558    -2.133371729207    -0.076050516664     1.007825032230
         H           -3.711712808442     0.000766270793     0.001434483336     1.007825032230
         H           -2.165247808442    -3.293712729207    -0.560062516664     1.007825032230
         H           -2.785873808442    -2.901238729207     1.045715483336     1.007825032230
         H           -3.695377808442    -2.414111729207    -0.391090516664     1.007825032230
         H           -2.785795808442     2.902815270793     1.045706483336     1.007825032230
         H           -2.165287808442     3.295220270793    -0.560133516664     1.007825032230
         H           -3.695404808442     2.415625270793    -0.391013516664     1.007825032230

  Basis Set: AUG-CC-PVTZ
    Blend: AUG-CC-PVTZ
  Basis Set: (AUG-CC-PVTZ AUX)
    Blend: AUG-CC-PVTZ-JKFIT
	 Reference Energy          =    -930.5344270585285358 [Eh]
	 Singles Energy            =      -0.0000000000000000 [Eh]
	 Same-Spin Energy          =      -0.6274789037148540 [Eh]
	 Opposite-Spin Energy      =      -1.8690014629976504 [Eh]
	 Correlation Energy        =      -2.4964803667125044 [Eh]
	 Total Energy              =    -933.0309074252410255 [Eh]

	 ================> DF-SCS-MP2 Energies <==================
	-----------------------------------------------------------
	 SCS Same-Spin Scale       =       0.3333333333333333 [-]
	 SCS Opposite-Spin Scale   =       1.2000000000000000 [-]
	 SCS Same-Spin Energy      =      -0.2091596345716180 [Eh]
	 SCS Opposite-Spin Energy  =      -2.2428017555971804 [Eh]
	 SCS Correlation Energy    =      -2.4519613901687984 [Eh]
	 SCS Total Energy          =    -932.9863884486973120 [Eh]
	-----------------------------------------------------------

  Dipole Moment: [D]
     X:   -10.3141      Y:    -0.0326      Z:    -0.0664     Total:    10.3144

*** Psi4 exiting successfully. Buy a developer a beer!
