                               Psi4 1.4a3.dev225

  ==> Input File <==

--------------------------------------------------------------------------
#psi4
#
memory 32 gb

molecule  {
-1 1
  S        2.0766110     0.0000000     0.0075520
  O        2.3891470     0.0000020     1.4601760
  O        2.4489030    -1.2526260    -0.7015720
  O        2.4489040     1.2526220    -0.7015770
  C        0.2698850     0.0000000    -0.0431290
  C       -1.8281600    -1.2204390    -0.0177060
  C       -1.8281600     1.2204390    -0.0177050
  C       -0.4294560     1.2077840    -0.0326800
  C       -0.4294570    -1.2077850    -0.0326810
  C       -2.5145250     0.0000000     0.0013750
  C       -2.5812260    -2.5268720     0.0200930
  C       -2.5812240     2.5268730     0.0200930
  H        0.1401440     2.1341360    -0.0762120
  H        0.1401420    -2.1341370    -0.0762130
  H       -3.6064350     0.0000010     0.0012720
  H       -2.0599700    -3.2944780    -0.5602250
  H       -2.6996261    -2.9019736     1.0435415
  H       -3.5901000    -2.4148770    -0.3912530
  H       -2.6805180     2.9020500     1.0455440
  H       -2.0600100     3.2944550    -0.5602960
  H       -3.5901270     2.4148600    -0.3911760
units angstrom
no_reorient  #important for SAPT in psi4, default
symmetry c1  #important for SAPT in psi4, default
}

set PROPERTIES_ORIGIN ["COM"]
properties('MP2/aug-cc-pvtz', properties = ['dipole'])
--------------------------------------------------------------------------

    Molecular point group: c1
  Charge       = -1
  Multiplicity = 1
  Basis Set: AUG-CC-PVTZ
    Blend: AUG-CC-PVTZ
  Basis Set: (AUG-CC-PVTZ AUX)
    Blend: AUG-CC-PVTZ-JKFIT

    Orbital Energies [Eh]
    ---------------------

    Doubly Occupied:

       1A    -92.013885     2A    -20.350791     3A    -20.350768
       4A    -20.349923     5A    -11.134567     6A    -11.134507
       7A    -11.131922     8A    -11.131877     9A    -11.123234
      10A    -11.122493    11A    -11.111970    12A    -11.111895
      13A     -8.974605    14A     -6.660320    15A     -6.659533
      16A     -6.659449    17A     -1.269776    18A     -1.126332
      19A     -1.124490    20A     -1.044941    21A     -0.952028
      22A     -0.922208    23A     -0.840724    24A     -0.820421
      25A     -0.730173    26A     -0.675631    27A     -0.624791
      28A     -0.567871    29A     -0.541302    30A     -0.513521
      31A     -0.484899    32A     -0.475218    33A     -0.475050
      34A     -0.463142    35A     -0.461347    36A     -0.454861
      37A     -0.450396    38A     -0.426259    39A     -0.399362
      40A     -0.372330    41A     -0.371860    42A     -0.331368
      43A     -0.330483    44A     -0.296507    45A     -0.290490
      46A     -0.269443    47A     -0.248749    48A     -0.210432
      49A     -0.208784

  @DF-RHF Final Energy:  -930.53565957269188

   => Energetics <=

    Nuclear Repulsion Energy =            814.0387398625032347
    One-Electron Energy =               -2909.5549392988255022
    Two-Electron Energy =                1164.9805398636306109
    Total Energy =                       -930.5356595726918840
  Basis Set: (AUG-CC-PVTZ AUX)
    Blend: AUG-CC-PVTZ-RI
    Molecular point group: c1

    Geometry (in Angstrom), charge = -1, multiplicity = 1:

       Center              X                  Y                   Z               Mass
    ------------   -----------------  -----------------  -----------------  -----------------
         S            1.970049208786    -0.000000025375     0.007764015718    31.972071174400
         O            2.282585208786     0.000001974625     1.460388015718    15.994914619570
         O            2.342341208786    -1.252626025375    -0.701359984282    15.994914619570
         O            2.342342208786     1.252621974625    -0.701364984282    15.994914619570
         C            0.163323208786    -0.000000025375    -0.042916984282    12.000000000000
         C           -1.934721791214    -1.220439025375    -0.017493984282    12.000000000000
         C           -1.934721791214     1.220438974625    -0.017492984282    12.000000000000
         C           -0.536017791214     1.207783974625    -0.032467984282    12.000000000000
         C           -0.536018791214    -1.207785025375    -0.032468984282    12.000000000000
         C           -2.621086791214    -0.000000025375     0.001587015718    12.000000000000
         C           -2.687787791214    -2.526872025375     0.020305015718    12.000000000000
         C           -2.687785791214     2.526872974625     0.020305015718    12.000000000000
         H            0.033582208786     2.134135974625    -0.075999984282     1.007825032230
         H            0.033580208786    -2.134137025375    -0.076000984282     1.007825032230
         H           -3.712996791214     0.000000974625     0.001484015718     1.007825032230
         H           -2.166531791214    -3.294478025375    -0.560012984282     1.007825032230
         H           -2.806187891214    -2.901973625375     1.043753515718     1.007825032230
         H           -3.696661791214    -2.414877025375    -0.391040984282     1.007825032230
         H           -2.787079791214     2.902049974625     1.045756015718     1.007825032230
         H           -2.166571791214     3.294454974625    -0.560083984282     1.007825032230
         H           -3.696688791214     2.414859974625    -0.390963984282     1.007825032230

  Basis Set: AUG-CC-PVTZ
    Blend: AUG-CC-PVTZ
  Basis Set: (AUG-CC-PVTZ AUX)
    Blend: AUG-CC-PVTZ-JKFIT
	 Reference Energy          =    -930.5356595726918840 [Eh]
	 Singles Energy            =      -0.0000000000000000 [Eh]
	 Same-Spin Energy          =      -0.6272766645656644 [Eh]
	 Opposite-Spin Energy      =      -1.8686525685485051 [Eh]
	 Correlation Energy        =      -2.4959292331141696 [Eh]
	 Total Energy              =    -933.0315888058061091 [Eh]

	 ================> DF-SCS-MP2 Energies <==================
	-----------------------------------------------------------
	 SCS Same-Spin Scale       =       0.3333333333333333 [-]
	 SCS Opposite-Spin Scale   =       1.2000000000000000 [-]
	 SCS Same-Spin Energy      =      -0.2090922215218881 [Eh]
	 SCS Opposite-Spin Energy  =      -2.2423830822582063 [Eh]
	 SCS Correlation Energy    =      -2.4514753037800943 [Eh]
	 SCS Total Energy          =    -932.9871348764719414 [Eh]
	-----------------------------------------------------------

  Dipole Moment: [D]
     X:   -10.3007      Y:     0.0047      Z:    -0.0674     Total:    10.3009

*** Psi4 exiting successfully. Buy a developer a beer!
