                               Psi4 1.4a3.dev225

  ==> Input File <==

--------------------------------------------------------------------------
#psi4
#
memory 32 gb

molecule  {
-1 1
  S        2.0766110     0.0000000     0.0075520
  O        2.3891470     0.0000020     1.4601760
  O        2.4489030    -1.2526260    -0.7015720
  O        2.4489040     1.2526220    -0.7015770
  C        0.2698850     0.0000000    -0.0431290
  C       -1.8281600    -1.2204390    -0.0177060
  C       -1.8308667     1.2199015    -0.0438864
  C       -0.4294560     1.2077840    -0.0326800
  C       -0.4294570    -1.2077850    -0.0326810
  C       -2.5145250     0.0000000     0.0013750
  C       -2.5812260    -2.5268720     0.0200930
  C       -2.5812240     2.5268730     0.0200930
  H        0.1401440     2.1341360    -0.0762120
  H        0.1401420    -2.1341370    -0.0762130
  H       -3.6064350     0.0000010     0.0012720
  H       -2.0599700    -3.2944780    -0.5602250
  H       -2.6805960    -2.9020040     1.0455530
  H       -3.5901000    -2.4148770    -0.3912530
  H       -2.6805180     2.9020500     1.0455440
  H       -2.0600100     3.2944550    -0.5602960
  H       -3.5901270     2.4148600    -0.3911760
units angstrom
no_reorient  #important for SAPT in psi4, default
symmetry c1  #important for SAPT in psi4, default
}

set PROPERTIES_ORIGIN ["COM"]
properties('MP2/aug-cc-pvtz', properties = ['dipole'])
--------------------------------------------------------------------------

    Molecular point group: c1
  Charge       = -1
  Multiplicity = 1
  Basis Set: AUG-CC-PVTZ
    Blend: AUG-CC-PVTZ
  Basis Set: (AUG-CC-PVTZ AUX)
    Blend: AUG-CC-PVTZ-JKFIT

    Orbital Energies [Eh]
    ---------------------

    Doubly Occupied:

       1A    -92.013879     2A    -20.350852     3A    -20.350784
       4A    -20.349852     5A    -11.134533     6A    -11.134482
       7A    -11.131914     8A    -11.131870     9A    -11.123216
      10A    -11.122428    11A    -11.112234    12A    -11.112044
      13A     -8.974603    14A     -6.660317    15A     -6.659530
      16A     -6.659447    17A     -1.269782    18A     -1.126361
      19A     -1.124473    20A     -1.044868    21A     -0.951936
      22A     -0.922281    23A     -0.840832    24A     -0.820144
      25A     -0.729952    26A     -0.675766    27A     -0.624635
      28A     -0.567821    29A     -0.541266    30A     -0.513436
      31A     -0.485164    32A     -0.476257    33A     -0.474305
      34A     -0.463238    35A     -0.461332    36A     -0.454867
      37A     -0.449854    38A     -0.426243    39A     -0.398872
      40A     -0.373040    41A     -0.371334    42A     -0.331360
      43A     -0.330516    44A     -0.296544    45A     -0.290523
      46A     -0.269398    47A     -0.248749    48A     -0.210653
      49A     -0.208499

  @DF-RHF Final Energy:  -930.53525263952736

   => Energetics <=

    Nuclear Repulsion Energy =            814.0236479744787630
    One-Electron Energy =               -2909.5252252078503261
    Two-Electron Energy =                1164.9663245938445471
    Total Energy =                       -930.5352526395272434
  Basis Set: (AUG-CC-PVTZ AUX)
    Blend: AUG-CC-PVTZ-RI
    Molecular point group: c1

    Geometry (in Angstrom), charge = -1, multiplicity = 1:

       Center              X                  Y                   Z               Mass
    ------------   -----------------  -----------------  -----------------  -----------------
         S            1.970121097600     0.000034999943     0.009451062228    31.972071174400
         O            2.282657097600     0.000036999943     1.462075062228    15.994914619570
         O            2.342413097600    -1.252591000057    -0.699672937772    15.994914619570
         O            2.342414097600     1.252656999943    -0.699677937772    15.994914619570
         C            0.163395097600     0.000034999943    -0.041229937772    12.000000000000
         C           -1.934649902400    -1.220404000057    -0.015806937772    12.000000000000
         C           -1.937356602400     1.219936499943    -0.041987337772    12.000000000000
         C           -0.535945902400     1.207818999943    -0.030780937772    12.000000000000
         C           -0.535946902400    -1.207750000057    -0.030781937772    12.000000000000
         C           -2.621014902400     0.000034999943     0.003274062228    12.000000000000
         C           -2.687715902400    -2.526837000057     0.021992062228    12.000000000000
         C           -2.687713902400     2.526907999943     0.021992062228    12.000000000000
         H            0.033654097600     2.134170999943    -0.074312937772     1.007825032230
         H            0.033652097600    -2.134102000057    -0.074313937772     1.007825032230
         H           -3.712924902400     0.000035999943     0.003171062228     1.007825032230
         H           -2.166459902400    -3.294443000057    -0.558325937772     1.007825032230
         H           -2.787085902400    -2.901969000057     1.047452062228     1.007825032230
         H           -3.696589902400    -2.414842000057    -0.389353937772     1.007825032230
         H           -2.787007902400     2.902084999943     1.047443062228     1.007825032230
         H           -2.166499902400     3.294489999943    -0.558396937772     1.007825032230
         H           -3.696616902400     2.414894999943    -0.389276937772     1.007825032230

  Basis Set: AUG-CC-PVTZ
    Blend: AUG-CC-PVTZ
  Basis Set: (AUG-CC-PVTZ AUX)
    Blend: AUG-CC-PVTZ-JKFIT
	 Reference Energy          =    -930.5352526395273571 [Eh]
	 Singles Energy            =      -0.0000000000000000 [Eh]
	 Same-Spin Energy          =      -0.6273043633799615 [Eh]
	 Opposite-Spin Energy      =      -1.8687227945448901 [Eh]
	 Correlation Energy        =      -2.4960271579248516 [Eh]
	 Total Energy              =    -933.0312797974521573 [Eh]

	 ================> DF-SCS-MP2 Energies <==================
	-----------------------------------------------------------
	 SCS Same-Spin Scale       =       0.3333333333333333 [-]
	 SCS Opposite-Spin Scale   =       1.2000000000000000 [-]
	 SCS Same-Spin Energy      =      -0.2091014544599872 [Eh]
	 SCS Opposite-Spin Energy  =      -2.2424673534538679 [Eh]
	 SCS Correlation Energy    =      -2.4515688079138549 [Eh]
	 SCS Total Energy          =    -932.9868214474412298 [Eh]
	-----------------------------------------------------------

  Dipole Moment: [D]
     X:   -10.2918      Y:    -0.0095      Z:    -0.0627     Total:    10.2920

*** Psi4 exiting successfully. Buy a developer a beer!
