                               Psi4 1.4a3.dev225

  ==> Input File <==

--------------------------------------------------------------------------
#psi4
#
memory 32 gb

molecule  {
-1 1
  S        2.0766110     0.0000000     0.0075520
  O        2.3891470     0.0000020     1.4601760
  O        2.4489030    -1.2526260    -0.7015720
  O        2.4489040     1.2526220    -0.7015770
  C        0.2698850     0.0000000    -0.0431290
  C       -1.8281600    -1.2204390    -0.0177060
  C       -1.8281600     1.2204390    -0.0177050
  C       -0.4294560     1.2077840    -0.0326800
  C       -0.4294570    -1.2077850    -0.0326810
  C       -2.5145250     0.0000000     0.0013750
  C       -2.5812260    -2.5268720     0.0200930
  C       -2.5812240     2.5268730     0.0200930
  H        0.1401440     2.1341360    -0.0762120
  H        0.1401420    -2.1341370    -0.0762130
  H       -3.6064350     0.0000010     0.0012720
  H       -2.0599700    -3.2944780    -0.5602250
  H       -2.7564769    -2.9011971     1.0356394
  H       -3.5901000    -2.4148770    -0.3912530
  H       -2.6805180     2.9020500     1.0455440
  H       -2.0600100     3.2944550    -0.5602960
  H       -3.5901270     2.4148600    -0.3911760
units angstrom
no_reorient  #important for SAPT in psi4, default
symmetry c1  #important for SAPT in psi4, default
}

set PROPERTIES_ORIGIN ["COM"]
properties('MP2/aug-cc-pvtz', properties = ['dipole'])
--------------------------------------------------------------------------

    Molecular point group: c1
  Charge       = -1
  Multiplicity = 1
  Basis Set: AUG-CC-PVTZ
    Blend: AUG-CC-PVTZ
  Basis Set: (AUG-CC-PVTZ AUX)
    Blend: AUG-CC-PVTZ-JKFIT

    Orbital Energies [Eh]
    ---------------------

    Doubly Occupied:

       1A    -92.013927     2A    -20.350832     3A    -20.350808
       4A    -20.349946     5A    -11.134799     6A    -11.134602
       7A    -11.131999     8A    -11.131840     9A    -11.123279
      10A    -11.122690    11A    -11.112198    12A    -11.112120
      13A     -8.974647    14A     -6.660363    15A     -6.659574
      16A     -6.659490    17A     -1.269812    18A     -1.126372
      19A     -1.124519    20A     -1.045021    21A     -0.951952
      22A     -0.922291    23A     -0.840762    24A     -0.820718
      25A     -0.730352    26A     -0.675890    27A     -0.625096
      28A     -0.568104    29A     -0.541438    30A     -0.513664
      31A     -0.484512    32A     -0.475350    33A     -0.474795
      34A     -0.463034    35A     -0.461336    36A     -0.454343
      37A     -0.450628    38A     -0.425912    39A     -0.399526
      40A     -0.372659    41A     -0.371795    42A     -0.331404
      43A     -0.330520    44A     -0.296548    45A     -0.290534
      46A     -0.269508    47A     -0.248781    48A     -0.210474
      49A     -0.209021

  @DF-RHF Final Energy:  -930.53512235310859

   => Energetics <=

    Nuclear Repulsion Energy =            813.9750680587878833
    One-Electron Energy =               -2909.4208070770514496
    Two-Electron Energy =                1164.9106166651547483
    Total Energy =                       -930.5351223531085907
  Basis Set: (AUG-CC-PVTZ AUX)
    Blend: AUG-CC-PVTZ-RI
    Molecular point group: c1

    Geometry (in Angstrom), charge = -1, multiplicity = 1:

       Center              X                  Y                   Z               Mass
    ------------   -----------------  -----------------  -----------------  -----------------
         S            1.970358869457    -0.000004254893     0.007807057674    31.972071174400
         O            2.282894869457    -0.000002254893     1.460431057674    15.994914619570
         O            2.342650869457    -1.252630254893    -0.701316942326    15.994914619570
         O            2.342651869457     1.252617745107    -0.701321942326    15.994914619570
         C            0.163632869457    -0.000004254893    -0.042873942326    12.000000000000
         C           -1.934412130543    -1.220443254893    -0.017450942326    12.000000000000
         C           -1.934412130543     1.220434745107    -0.017449942326    12.000000000000
         C           -0.535708130543     1.207779745107    -0.032424942326    12.000000000000
         C           -0.535709130543    -1.207789254893    -0.032425942326    12.000000000000
         C           -2.620777130543    -0.000004254893     0.001630057674    12.000000000000
         C           -2.687478130543    -2.526876254893     0.020348057674    12.000000000000
         C           -2.687476130543     2.526868745107     0.020348057674    12.000000000000
         H            0.033891869457     2.134131745107    -0.075956942326     1.007825032230
         H            0.033889869457    -2.134141254893    -0.075957942326     1.007825032230
         H           -3.712687130543    -0.000003254893     0.001527057674     1.007825032230
         H           -2.166222130543    -3.294482254893    -0.559969942326     1.007825032230
         H           -2.862729030543    -2.901201354893     1.035894457674     1.007825032230
         H           -3.696352130543    -2.414881254893    -0.390997942326     1.007825032230
         H           -2.786770130543     2.902045745107     1.045799057674     1.007825032230
         H           -2.166262130543     3.294450745107    -0.560040942326     1.007825032230
         H           -3.696379130543     2.414855745107    -0.390920942326     1.007825032230

  Basis Set: AUG-CC-PVTZ
    Blend: AUG-CC-PVTZ
  Basis Set: (AUG-CC-PVTZ AUX)
    Blend: AUG-CC-PVTZ-JKFIT
	 Reference Energy          =    -930.5351223531085907 [Eh]
	 Singles Energy            =      -0.0000000000000000 [Eh]
	 Same-Spin Energy          =      -0.6272895222691850 [Eh]
	 Opposite-Spin Energy      =      -1.8686598330248350 [Eh]
	 Correlation Energy        =      -2.4959493552940200 [Eh]
	 Total Energy              =    -933.0310717084025782 [Eh]

	 ================> DF-SCS-MP2 Energies <==================
	-----------------------------------------------------------
	 SCS Same-Spin Scale       =       0.3333333333333333 [-]
	 SCS Opposite-Spin Scale   =       1.2000000000000000 [-]
	 SCS Same-Spin Energy      =      -0.2090965074230617 [Eh]
	 SCS Opposite-Spin Energy  =      -2.2423917996298020 [Eh]
	 SCS Correlation Energy    =      -2.4514883070528635 [Eh]
	 SCS Total Energy          =    -932.9866106601614320 [Eh]
	-----------------------------------------------------------

  Dipole Moment: [D]
     X:   -10.3126      Y:     0.0186      Z:    -0.0668     Total:    10.3128

*** Psi4 exiting successfully. Buy a developer a beer!
