                               Psi4 1.4a3.dev225

  ==> Input File <==

--------------------------------------------------------------------------
#psi4
#
memory 32 gb

molecule  {
-1 1
  S        2.0766110     0.0000000     0.0075520
  O        2.3891470     0.0000020     1.4601760
  O        2.4489030    -1.2526260    -0.7015720
  O        2.4489040     1.2526220    -0.7015770
  C        0.2698850     0.0000000    -0.0431290
  C       -1.8281600    -1.2204390    -0.0177060
  C       -1.8281600     1.2204390    -0.0177050
  C       -0.4294560     1.2077840    -0.0326800
  C       -0.3794619    -1.2073327    -0.0332163
  C       -2.5145250     0.0000000     0.0013750
  C       -2.5812260    -2.5268720     0.0200930
  C       -2.5812240     2.5268730     0.0200930
  H        0.1401440     2.1341360    -0.0762120
  H        0.1401420    -2.1341370    -0.0762130
  H       -3.6064350     0.0000010     0.0012720
  H       -2.0599700    -3.2944780    -0.5602250
  H       -2.6805960    -2.9020040     1.0455530
  H       -3.5901000    -2.4148770    -0.3912530
  H       -2.6805180     2.9020500     1.0455440
  H       -2.0600100     3.2944550    -0.5602960
  H       -3.5901270     2.4148600    -0.3911760
units angstrom
no_reorient  #important for SAPT in psi4, default
symmetry c1  #important for SAPT in psi4, default
}

set PROPERTIES_ORIGIN ["COM"]
properties('MP2/aug-cc-pvtz', properties = ['dipole'])
--------------------------------------------------------------------------

    Molecular point group: c1
  Charge       = -1
  Multiplicity = 1
  Basis Set: AUG-CC-PVTZ
    Blend: AUG-CC-PVTZ
  Basis Set: (AUG-CC-PVTZ AUX)
    Blend: AUG-CC-PVTZ-JKFIT

    Orbital Energies [Eh]
    ---------------------

    Doubly Occupied:

       1A    -92.012187     2A    -20.350005     3A    -20.349554
       4A    -20.348975     5A    -11.140100     6A    -11.134505
       7A    -11.132816     8A    -11.131929     9A    -11.122750
      10A    -11.120627    11A    -11.112705    12A    -11.112113
      13A     -8.973079    14A     -6.658760    15A     -6.658002
      16A     -6.657916    17A     -1.268963    18A     -1.125514
      19A     -1.123629    20A     -1.042617    21A     -0.949225
      22A     -0.925746    23A     -0.841088    24A     -0.820115
      25A     -0.726570    26A     -0.677754    27A     -0.623282
      28A     -0.570442    29A     -0.540536    30A     -0.513135
      31A     -0.484908    32A     -0.478026    33A     -0.475308
      34A     -0.462568    35A     -0.460700    36A     -0.457045
      37A     -0.448557    38A     -0.427334    39A     -0.395152
      40A     -0.378575    41A     -0.371130    42A     -0.330714
      43A     -0.329653    44A     -0.295763    45A     -0.289545
      46A     -0.266707    47A     -0.247931    48A     -0.214393
      49A     -0.203435

  @DF-RHF Final Energy:  -930.53281680426812

   => Energetics <=

    Nuclear Repulsion Energy =            814.0977864010873191
    One-Electron Energy =               -2909.6970414192014687
    Two-Electron Energy =                1165.0664382138459132
    Total Energy =                       -930.5328168042681227
  Basis Set: (AUG-CC-PVTZ AUX)
    Blend: AUG-CC-PVTZ-RI
    Molecular point group: c1

    Geometry (in Angstrom), charge = -1, multiplicity = 1:

       Center              X                  Y                   Z               Mass
    ------------   -----------------  -----------------  -----------------  -----------------
         S            1.966703105747    -0.000029193848     0.007787776328    31.972071174400
         O            2.279239105747    -0.000027193848     1.460411776328    15.994914619570
         O            2.338995105747    -1.252655193848    -0.701336223672    15.994914619570
         O            2.338996105747     1.252592806152    -0.701341223672    15.994914619570
         C            0.159977105747    -0.000029193848    -0.042893223672    12.000000000000
         C           -1.938067894253    -1.220468193848    -0.017470223672    12.000000000000
         C           -1.938067894253     1.220409806152    -0.017469223672    12.000000000000
         C           -0.539363894253     1.207754806152    -0.032444223672    12.000000000000
         C           -0.489369794253    -1.207361893848    -0.032980523672    12.000000000000
         C           -2.624432894253    -0.000029193848     0.001610776328    12.000000000000
         C           -2.691133894253    -2.526901193848     0.020328776328    12.000000000000
         C           -2.691131894253     2.526843806152     0.020328776328    12.000000000000
         H            0.030236105747     2.134106806152    -0.075976223672     1.007825032230
         H            0.030234105747    -2.134166193848    -0.075977223672     1.007825032230
         H           -3.716342894253    -0.000028193848     0.001507776328     1.007825032230
         H           -2.169877894253    -3.294507193848    -0.559989223672     1.007825032230
         H           -2.790503894253    -2.902033193848     1.045788776328     1.007825032230
         H           -3.700007894253    -2.414906193848    -0.391017223672     1.007825032230
         H           -2.790425894253     2.902020806152     1.045779776328     1.007825032230
         H           -2.169917894253     3.294425806152    -0.560060223672     1.007825032230
         H           -3.700034894253     2.414830806152    -0.390940223672     1.007825032230

  Basis Set: AUG-CC-PVTZ
    Blend: AUG-CC-PVTZ
  Basis Set: (AUG-CC-PVTZ AUX)
    Blend: AUG-CC-PVTZ-JKFIT
	 Reference Energy          =    -930.5328168042681227 [Eh]
	 Singles Energy            =      -0.0000000000000000 [Eh]
	 Same-Spin Energy          =      -0.6271702879737053 [Eh]
	 Opposite-Spin Energy      =      -1.8687062011794238 [Eh]
	 Correlation Energy        =      -2.4958764891531291 [Eh]
	 Total Energy              =    -933.0286932934212700 [Eh]

	 ================> DF-SCS-MP2 Energies <==================
	-----------------------------------------------------------
	 SCS Same-Spin Scale       =       0.3333333333333333 [-]
	 SCS Opposite-Spin Scale   =       1.2000000000000000 [-]
	 SCS Same-Spin Energy      =      -0.2090567626579018 [Eh]
	 SCS Opposite-Spin Energy  =      -2.2424474414153086 [Eh]
	 SCS Correlation Energy    =      -2.4515042040732102 [Eh]
	 SCS Total Energy          =    -932.9843210083413396 [Eh]
	-----------------------------------------------------------

  Dipole Moment: [D]
     X:   -10.3390      Y:    -0.0318      Z:    -0.0689     Total:    10.3393

*** Psi4 exiting successfully. Buy a developer a beer!
