                               Psi4 1.4a3.dev225

  ==> Input File <==

--------------------------------------------------------------------------
#psi4
#
memory 32 gb

molecule  {
-1 1
  S        2.0766110     0.0000000     0.0075520
  O        2.3681131     0.0000019     1.3624132
  O        2.4489030    -1.2526260    -0.7015720
  O        2.4489040     1.2526220    -0.7015770
  C        0.2698850     0.0000000    -0.0431290
  C       -1.8281600    -1.2204390    -0.0177060
  C       -1.8281600     1.2204390    -0.0177050
  C       -0.4294560     1.2077840    -0.0326800
  C       -0.4294570    -1.2077850    -0.0326810
  C       -2.5145250     0.0000000     0.0013750
  C       -2.5812260    -2.5268720     0.0200930
  C       -2.5812240     2.5268730     0.0200930
  H        0.1401440     2.1341360    -0.0762120
  H        0.1401420    -2.1341370    -0.0762130
  H       -3.6064350     0.0000010     0.0012720
  H       -2.0599700    -3.2944780    -0.5602250
  H       -2.6805960    -2.9020040     1.0455530
  H       -3.5901000    -2.4148770    -0.3912530
  H       -2.6805180     2.9020500     1.0455440
  H       -2.0600100     3.2944550    -0.5602960
  H       -3.5901270     2.4148600    -0.3911760
units angstrom
no_reorient  #important for SAPT in psi4, default
symmetry c1  #important for SAPT in psi4, default
}

set PROPERTIES_ORIGIN ["COM"]
properties('MP2/aug-cc-pvtz', properties = ['dipole'])
--------------------------------------------------------------------------

    Molecular point group: c1
  Charge       = -1
  Multiplicity = 1
  Basis Set: AUG-CC-PVTZ
    Blend: AUG-CC-PVTZ
  Basis Set: (AUG-CC-PVTZ AUX)
    Blend: AUG-CC-PVTZ-JKFIT

    Orbital Energies [Eh]
    ---------------------

    Doubly Occupied:

       1A    -92.001605     2A    -20.351365     3A    -20.341578
       4A    -20.341555     5A    -11.132143     6A    -11.132100
       7A    -11.130232     8A    -11.130232     9A    -11.119570
      10A    -11.117144    11A    -11.108325    12A    -11.108232
      13A     -8.964892    14A     -6.650759    15A     -6.650261
      16A     -6.649479    17A     -1.300825    18A     -1.149892
      19A     -1.119594    20A     -1.042115    21A     -0.949814
      22A     -0.919103    23A     -0.838645    24A     -0.817813
      25A     -0.725573    26A     -0.672945    27A     -0.618745
      28A     -0.565468    29A     -0.538805    30A     -0.519314
      31A     -0.483513    32A     -0.474319    33A     -0.473764
      34A     -0.470842    35A     -0.469371    36A     -0.453098
      37A     -0.447814    38A     -0.424778    39A     -0.401409
      40A     -0.370574    41A     -0.369912    42A     -0.338964
      43A     -0.335583    44A     -0.306700    45A     -0.285371
      46A     -0.268371    47A     -0.246786    48A     -0.207745
      49A     -0.206341

  @DF-RHF Final Energy:  -930.53497411011904

   => Energetics <=

    Nuclear Repulsion Energy =            819.1328764234293658
    One-Electron Energy =               -2919.8489408215127696
    Two-Electron Energy =                1170.1810902879642526
    Total Energy =                       -930.5349741101190375
  Basis Set: (AUG-CC-PVTZ AUX)
    Blend: AUG-CC-PVTZ-RI
    Molecular point group: c1

    Geometry (in Angstrom), charge = -1, multiplicity = 1:

       Center              X                  Y                   Z               Mass
    ------------   -----------------  -----------------  -----------------  -----------------
         S            1.971763855899     0.000000148856     0.016204288600    31.972071174400
         O            2.263265955899     0.000002048856     1.371065488600    15.994914619570
         O            2.344055855899    -1.252625851144    -0.692919711400    15.994914619570
         O            2.344056855899     1.252622148856    -0.692924711400    15.994914619570
         C            0.165037855899     0.000000148856    -0.034476711400    12.000000000000
         C           -1.933007144101    -1.220438851144    -0.009053711400    12.000000000000
         C           -1.933007144101     1.220439148856    -0.009052711400    12.000000000000
         C           -0.534303144101     1.207784148856    -0.024027711400    12.000000000000
         C           -0.534304144101    -1.207784851144    -0.024028711400    12.000000000000
         C           -2.619372144101     0.000000148856     0.010027288600    12.000000000000
         C           -2.686073144101    -2.526871851144     0.028745288600    12.000000000000
         C           -2.686071144101     2.526873148856     0.028745288600    12.000000000000
         H            0.035296855899     2.134136148856    -0.067559711400     1.007825032230
         H            0.035294855899    -2.134136851144    -0.067560711400     1.007825032230
         H           -3.711282144101     0.000001148856     0.009924288600     1.007825032230
         H           -2.164817144101    -3.294477851144    -0.551572711400     1.007825032230
         H           -2.785443144101    -2.902003851144     1.054205288600     1.007825032230
         H           -3.694947144101    -2.414876851144    -0.382600711400     1.007825032230
         H           -2.785365144101     2.902050148856     1.054196288600     1.007825032230
         H           -2.164857144101     3.294455148856    -0.551643711400     1.007825032230
         H           -3.694974144101     2.414860148856    -0.382523711400     1.007825032230

  Basis Set: AUG-CC-PVTZ
    Blend: AUG-CC-PVTZ
  Basis Set: (AUG-CC-PVTZ AUX)
    Blend: AUG-CC-PVTZ-JKFIT
	 Reference Energy          =    -930.5349741101190375 [Eh]
	 Singles Energy            =      -0.0000000000000000 [Eh]
	 Same-Spin Energy          =      -0.6251081724994909 [Eh]
	 Opposite-Spin Energy      =      -1.8631335531644833 [Eh]
	 Correlation Energy        =      -2.4882417256639742 [Eh]
	 Total Energy              =    -933.0232158357830485 [Eh]

	 ================> DF-SCS-MP2 Energies <==================
	-----------------------------------------------------------
	 SCS Same-Spin Scale       =       0.3333333333333333 [-]
	 SCS Opposite-Spin Scale   =       1.2000000000000000 [-]
	 SCS Same-Spin Energy      =      -0.2083693908331636 [Eh]
	 SCS Opposite-Spin Energy  =      -2.2357602637973799 [Eh]
	 SCS Correlation Energy    =      -2.4441296546305433 [Eh]
	 SCS Total Energy          =    -932.9791037647495386 [Eh]
	-----------------------------------------------------------

  Dipole Moment: [D]
     X:   -10.0028      Y:     0.0000      Z:     0.5376     Total:    10.0173

*** Psi4 exiting successfully. Buy a developer a beer!
