                               Psi4 1.4a3.dev225

  ==> Input File <==

--------------------------------------------------------------------------
#psi4
#
memory 32 gb

molecule  {
-1 1
  S        2.0766110     0.0000000     0.0075520
  O        2.3891470     0.0000020     1.4601760
  O        2.4489030    -1.2526260    -0.7015720
  O        2.4489040     1.2526220    -0.7015770
  C        0.3115506    -0.0251289    -0.0455316
  C       -1.8281600    -1.2204390    -0.0177060
  C       -1.8281600     1.2204390    -0.0177050
  C       -0.4294560     1.2077840    -0.0326800
  C       -0.4294570    -1.2077850    -0.0326810
  C       -2.5145250     0.0000000     0.0013750
  C       -2.5812260    -2.5268720     0.0200930
  C       -2.5812240     2.5268730     0.0200930
  H        0.1401440     2.1341360    -0.0762120
  H        0.1401420    -2.1341370    -0.0762130
  H       -3.6064350     0.0000010     0.0012720
  H       -2.0599700    -3.2944780    -0.5602250
  H       -2.6805960    -2.9020040     1.0455530
  H       -3.5901000    -2.4148770    -0.3912530
  H       -2.6805180     2.9020500     1.0455440
  H       -2.0600100     3.2944550    -0.5602960
  H       -3.5901270     2.4148600    -0.3911760
units angstrom
no_reorient  #important for SAPT in psi4, default
symmetry c1  #important for SAPT in psi4, default
}

set PROPERTIES_ORIGIN ["COM"]
properties('MP2/aug-cc-pvtz', properties = ['dipole'])
--------------------------------------------------------------------------

    Molecular point group: c1
  Charge       = -1
  Multiplicity = 1
  Basis Set: AUG-CC-PVTZ
    Blend: AUG-CC-PVTZ
  Basis Set: (AUG-CC-PVTZ AUX)
    Blend: AUG-CC-PVTZ-JKFIT

    Orbital Energies [Eh]
    ---------------------

    Doubly Occupied:

       1A    -92.013996     2A    -20.351583     3A    -20.350076
       4A    -20.349450     5A    -11.135160     6A    -11.134232
       7A    -11.132370     8A    -11.132024     9A    -11.126545
      10A    -11.123619    11A    -11.117141    12A    -11.112923
      13A     -8.975108    14A     -6.660927    15A     -6.660031
      16A     -6.659946    17A     -1.271349    18A     -1.126758
      19A     -1.124921    20A     -1.042365    21A     -0.951802
      22A     -0.920970    23A     -0.841313    24A     -0.817894
      25A     -0.737796    26A     -0.674702    27A     -0.625681
      28A     -0.566129    29A     -0.539804    30A     -0.517395
      31A     -0.485134    32A     -0.475395    33A     -0.475049
      34A     -0.464210    35A     -0.461889    36A     -0.454774
      37A     -0.448808    38A     -0.424531    39A     -0.400346
      40A     -0.369783    41A     -0.367647    42A     -0.331640
      43A     -0.330692    44A     -0.297355    45A     -0.290542
      46A     -0.275711    47A     -0.248742    48A     -0.210824
      49A     -0.205283

  @DF-RHF Final Energy:  -930.53209973542414

   => Energetics <=

    Nuclear Repulsion Energy =            814.2517519618916140
    One-Electron Energy =               -2909.9429718294127269
    Two-Electron Energy =                1165.1591201320966320
    Total Energy =                       -930.5320997354242536
  Basis Set: (AUG-CC-PVTZ AUX)
    Blend: AUG-CC-PVTZ-RI
    Molecular point group: c1

    Geometry (in Angstrom), charge = -1, multiplicity = 1:

       Center              X                  Y                   Z               Mass
    ------------   -----------------  -----------------  -----------------  -----------------
         S            1.967243318096     0.001629882942     0.007908880658    31.972071174400
         O            2.279779318096     0.001631882942     1.460532880658    15.994914619570
         O            2.339535318096    -1.250996117058    -0.701215119342    15.994914619570
         O            2.339536318096     1.254251882942    -0.701220119342    15.994914619570
         C            0.202182918096    -0.023499017058    -0.045174719342    12.000000000000
         C           -1.937527681904    -1.218809117058    -0.017349119342    12.000000000000
         C           -1.937527681904     1.222068882942    -0.017348119342    12.000000000000
         C           -0.538823681904     1.209413882942    -0.032323119342    12.000000000000
         C           -0.538824681904    -1.206155117058    -0.032324119342    12.000000000000
         C           -2.623892681904     0.001629882942     0.001731880658    12.000000000000
         C           -2.690593681904    -2.525242117058     0.020449880658    12.000000000000
         C           -2.690591681904     2.528502882942     0.020449880658    12.000000000000
         H            0.030776318096     2.135765882942    -0.075855119342     1.007825032230
         H            0.030774318096    -2.132507117058    -0.075856119342     1.007825032230
         H           -3.715802681904     0.001630882942     0.001628880658     1.007825032230
         H           -2.169337681904    -3.292848117058    -0.559868119342     1.007825032230
         H           -2.789963681904    -2.900374117058     1.045909880658     1.007825032230
         H           -3.699467681904    -2.413247117058    -0.390896119342     1.007825032230
         H           -2.789885681904     2.903679882942     1.045900880658     1.007825032230
         H           -2.169377681904     3.296084882942    -0.559939119342     1.007825032230
         H           -3.699494681904     2.416489882942    -0.390819119342     1.007825032230

  Basis Set: AUG-CC-PVTZ
    Blend: AUG-CC-PVTZ
  Basis Set: (AUG-CC-PVTZ AUX)
    Blend: AUG-CC-PVTZ-JKFIT
	 Reference Energy          =    -930.5320997354241399 [Eh]
	 Singles Energy            =      -0.0000000000000000 [Eh]
	 Same-Spin Energy          =      -0.6275145780334490 [Eh]
	 Opposite-Spin Energy      =      -1.8692735769226854 [Eh]
	 Correlation Energy        =      -2.4967881549561346 [Eh]
	 Total Energy              =    -933.0288878903802470 [Eh]

	 ================> DF-SCS-MP2 Energies <==================
	-----------------------------------------------------------
	 SCS Same-Spin Scale       =       0.3333333333333333 [-]
	 SCS Opposite-Spin Scale   =       1.2000000000000000 [-]
	 SCS Same-Spin Energy      =      -0.2091715260111497 [Eh]
	 SCS Opposite-Spin Energy  =      -2.2431282923072224 [Eh]
	 SCS Correlation Energy    =      -2.4522998183183722 [Eh]
	 SCS Total Energy          =    -932.9843995537424917 [Eh]
	-----------------------------------------------------------

  Dipole Moment: [D]
     X:   -10.3205      Y:     0.0111      Z:    -0.0609     Total:    10.3206

*** Psi4 exiting successfully. Buy a developer a beer!
