                               Psi4 1.4a3.dev225

  ==> Input File <==

--------------------------------------------------------------------------
#psi4
#
memory 32 gb

molecule  {
-1 1
  S        2.0766110     0.0000000     0.0075520
  O        2.3891470     0.0000020     1.4601760
  O        2.4489030    -1.2526260    -0.7015720
  O        2.4438960     1.2357719    -0.6920379
  C        0.2698850     0.0000000    -0.0431290
  C       -1.8281600    -1.2204390    -0.0177060
  C       -1.8281600     1.2204390    -0.0177050
  C       -0.4294560     1.2077840    -0.0326800
  C       -0.4294570    -1.2077850    -0.0326810
  C       -2.5145250     0.0000000     0.0013750
  C       -2.5812260    -2.5268720     0.0200930
  C       -2.5812240     2.5268730     0.0200930
  H        0.1401440     2.1341360    -0.0762120
  H        0.1401420    -2.1341370    -0.0762130
  H       -3.6064350     0.0000010     0.0012720
  H       -2.0599700    -3.2944780    -0.5602250
  H       -2.6805960    -2.9020040     1.0455530
  H       -3.5901000    -2.4148770    -0.3912530
  H       -2.6805180     2.9020500     1.0455440
  H       -2.0600100     3.2944550    -0.5602960
  H       -3.5901270     2.4148600    -0.3911760
units angstrom
no_reorient  #important for SAPT in psi4, default
symmetry c1  #important for SAPT in psi4, default
}

set PROPERTIES_ORIGIN ["COM"]
properties('MP2/aug-cc-pvtz', properties = ['dipole'])
--------------------------------------------------------------------------

    Molecular point group: c1
  Charge       = -1
  Multiplicity = 1
  Basis Set: AUG-CC-PVTZ
    Blend: AUG-CC-PVTZ
  Basis Set: (AUG-CC-PVTZ AUX)
    Blend: AUG-CC-PVTZ-JKFIT

    Orbital Energies [Eh]
    ---------------------

    Doubly Occupied:

       1A    -92.011832     2A    -20.350977     3A    -20.349010
       4A    -20.348156     5A    -11.134156     6A    -11.134010
       7A    -11.131703     8A    -11.131521     9A    -11.122085
      10A    -11.121920    11A    -11.111421    12A    -11.111081
      13A     -8.972864    14A     -6.658576    15A     -6.657916
      16A     -6.657695    17A     -1.274159    18A     -1.132003
      19A     -1.123552    20A     -1.044427    21A     -0.951678
      22A     -0.921623    23A     -0.840361    24A     -0.819906
      25A     -0.729197    26A     -0.675112    27A     -0.623516
      28A     -0.567514    29A     -0.540828    30A     -0.514176
      31A     -0.484823    32A     -0.475066    33A     -0.474979
      34A     -0.464422    35A     -0.462537    36A     -0.454614
      37A     -0.449938    38A     -0.426111    39A     -0.399167
      40A     -0.371808    41A     -0.371493    42A     -0.332778
      43A     -0.331998    44A     -0.296876    45A     -0.291626
      46A     -0.269145    47A     -0.248447    48A     -0.209792
      49A     -0.208285

  @DF-RHF Final Energy:  -930.53743614385155

   => Energetics <=

    Nuclear Repulsion Energy =            815.0247358977838985
    One-Electron Energy =               -2911.5505868713494237
    Two-Electron Energy =                1165.9884148297137472
    Total Energy =                       -930.5374361438516644
  Basis Set: (AUG-CC-PVTZ AUX)
    Blend: AUG-CC-PVTZ-RI
    Molecular point group: c1

    Geometry (in Angstrom), charge = -1, multiplicity = 1:

       Center              X                  Y                   Z               Mass
    ------------   -----------------  -----------------  -----------------  -----------------
         S            1.970378476634     0.001456768491     0.006928439671    31.972071174400
         O            2.282914476634     0.001458768491     1.459552439671    15.994914619570
         O            2.342670476634    -1.251169231509    -0.702195560329    15.994914619570
         O            2.337663476634     1.237228668491    -0.692661460329    15.994914619570
         C            0.163652476634     0.001456768491    -0.043752560329    12.000000000000
         C           -1.934392523366    -1.218982231509    -0.018329560329    12.000000000000
         C           -1.934392523366     1.221895768491    -0.018328560329    12.000000000000
         C           -0.535688523366     1.209240768491    -0.033303560329    12.000000000000
         C           -0.535689523366    -1.206328231509    -0.033304560329    12.000000000000
         C           -2.620757523366     0.001456768491     0.000751439671    12.000000000000
         C           -2.687458523366    -2.525415231509     0.019469439671    12.000000000000
         C           -2.687456523366     2.528329768491     0.019469439671    12.000000000000
         H            0.033911476634     2.135592768491    -0.076835560329     1.007825032230
         H            0.033909476634    -2.132680231509    -0.076836560329     1.007825032230
         H           -3.712667523366     0.001457768491     0.000648439671     1.007825032230
         H           -2.166202523366    -3.293021231509    -0.560848560329     1.007825032230
         H           -2.786828523366    -2.900547231509     1.044929439671     1.007825032230
         H           -3.696332523366    -2.413420231509    -0.391876560329     1.007825032230
         H           -2.786750523366     2.903506768491     1.044920439671     1.007825032230
         H           -2.166242523366     3.295911768491    -0.560919560329     1.007825032230
         H           -3.696359523366     2.416316768491    -0.391799560329     1.007825032230

  Basis Set: AUG-CC-PVTZ
    Blend: AUG-CC-PVTZ
  Basis Set: (AUG-CC-PVTZ AUX)
    Blend: AUG-CC-PVTZ-JKFIT
	 Reference Energy          =    -930.5374361438515507 [Eh]
	 Singles Energy            =      -0.0000000000000000 [Eh]
	 Same-Spin Energy          =      -0.6268730500243783 [Eh]
	 Opposite-Spin Energy      =      -1.8675866655165758 [Eh]
	 Correlation Energy        =      -2.4944597155409540 [Eh]
	 Total Energy              =    -933.0318958593925345 [Eh]

	 ================> DF-SCS-MP2 Energies <==================
	-----------------------------------------------------------
	 SCS Same-Spin Scale       =       0.3333333333333333 [-]
	 SCS Opposite-Spin Scale   =       1.2000000000000000 [-]
	 SCS Same-Spin Energy      =      -0.2089576833414594 [Eh]
	 SCS Opposite-Spin Energy  =      -2.2411039986198911 [Eh]
	 SCS Correlation Energy    =      -2.4500616819613503 [Eh]
	 SCS Total Energy          =    -932.9874978258128522 [Eh]
	-----------------------------------------------------------

  Dipole Moment: [D]
     X:   -10.2356      Y:     0.0988      Z:    -0.1272     Total:    10.2368

*** Psi4 exiting successfully. Buy a developer a beer!
