                               Psi4 1.4a3.dev225

  ==> Input File <==

--------------------------------------------------------------------------
#psi4
#
memory 32 gb

molecule  {
-1 1
  S        2.0766110     0.0000000     0.0075520
  O        2.3891470     0.0000020     1.4601760
  O        2.4489030    -1.2526260    -0.7015720
  O        2.4489040     1.2526220    -0.7015770
  C        0.2698850     0.0000000    -0.0431290
  C       -1.8281600    -1.2204390    -0.0177060
  C       -1.8281600     1.2204390    -0.0177050
  C       -0.4294560     1.2077840    -0.0326800
  C       -0.4294570    -1.2077850    -0.0326810
  C       -2.5145250     0.0000000     0.0013750
  C       -2.5812260    -2.5268720     0.0200930
  C       -2.5812240     2.5268730     0.0200930
  H        0.1401440     2.1341360    -0.0762120
  H        0.1401420    -2.1341370    -0.0762130
  H       -3.6064350     0.0000010     0.0012720
  H       -2.0599700    -3.2944780    -0.5602250
  H       -2.6615356    -2.9019201     1.0472521
  H       -3.5901000    -2.4148770    -0.3912530
  H       -2.6805180     2.9020500     1.0455440
  H       -2.0600100     3.2944550    -0.5602960
  H       -3.5901270     2.4148600    -0.3911760
units angstrom
no_reorient  #important for SAPT in psi4, default
symmetry c1  #important for SAPT in psi4, default
}

set PROPERTIES_ORIGIN ["COM"]
properties('MP2/aug-cc-pvtz', properties = ['dipole'])
--------------------------------------------------------------------------

    Molecular point group: c1
  Charge       = -1
  Multiplicity = 1
  Basis Set: AUG-CC-PVTZ
    Blend: AUG-CC-PVTZ
  Basis Set: (AUG-CC-PVTZ AUX)
    Blend: AUG-CC-PVTZ-JKFIT

    Orbital Energies [Eh]
    ---------------------

    Doubly Occupied:

       1A    -92.013856     2A    -20.350764     3A    -20.350742
       4A    -20.349907     5A    -11.134470     6A    -11.134413
       7A    -11.131918     8A    -11.131870     9A    -11.123207
      10A    -11.122353    11A    -11.111810    12A    -11.111736
      13A     -8.974578    14A     -6.660293    15A     -6.659505
      16A     -6.659422    17A     -1.269752    18A     -1.126305
      19A     -1.124471    20A     -1.044892    21A     -0.952101
      22A     -0.922160    23A     -0.840727    24A     -0.820240
      25A     -0.730058    26A     -0.675470    27A     -0.624600
      28A     -0.567718    29A     -0.541294    30A     -0.513448
      31A     -0.485334    32A     -0.475522    33A     -0.475176
      34A     -0.463251    35A     -0.461257    36A     -0.454782
      37A     -0.450160    38A     -0.426404    39A     -0.399251
      40A     -0.372149    41A     -0.371771    42A     -0.331344
      43A     -0.330457    44A     -0.296474    45A     -0.290460
      46A     -0.269401    47A     -0.248727    48A     -0.210400
      49A     -0.208596

  @DF-RHF Final Energy:  -930.53567380485845

   => Energetics <=

    Nuclear Repulsion Energy =            814.0838067074980700
    One-Electron Energy =               -2909.6489691980978023
    Two-Electron Energy =                1165.0294886857409438
    Total Energy =                       -930.5356738048585612
  Basis Set: (AUG-CC-PVTZ AUX)
    Blend: AUG-CC-PVTZ-RI
    Molecular point group: c1

    Geometry (in Angstrom), charge = -1, multiplicity = 1:

       Center              X                  Y                   Z               Mass
    ------------   -----------------  -----------------  -----------------  -----------------
         S            1.969841733609    -0.000000316784     0.007743804448    31.972071174400
         O            2.282377733609     0.000001683216     1.460367804448    15.994914619570
         O            2.342133733609    -1.252626316784    -0.701380195552    15.994914619570
         O            2.342134733609     1.252621683216    -0.701385195552    15.994914619570
         C            0.163115733609    -0.000000316784    -0.042937195552    12.000000000000
         C           -1.934929266391    -1.220439316784    -0.017514195552    12.000000000000
         C           -1.934929266391     1.220438683216    -0.017513195552    12.000000000000
         C           -0.536225266391     1.207783683216    -0.032488195552    12.000000000000
         C           -0.536226266391    -1.207785316784    -0.032489195552    12.000000000000
         C           -2.621294266391    -0.000000316784     0.001566804448    12.000000000000
         C           -2.687995266391    -2.526872316784     0.020284804448    12.000000000000
         C           -2.687993266391     2.526872683216     0.020284804448    12.000000000000
         H            0.033374733609     2.134135683216    -0.076020195552     1.007825032230
         H            0.033372733609    -2.134137316784    -0.076021195552     1.007825032230
         H           -3.713204266391     0.000000683216     0.001463804448     1.007825032230
         H           -2.166739266391    -3.294478316784    -0.560033195552     1.007825032230
         H           -2.768304866391    -2.901920416784     1.047443904448     1.007825032230
         H           -3.696869266391    -2.414877316784    -0.391061195552     1.007825032230
         H           -2.787287266391     2.902049683216     1.045735804448     1.007825032230
         H           -2.166779266391     3.294454683216    -0.560104195552     1.007825032230
         H           -3.696896266391     2.414859683216    -0.390984195552     1.007825032230

  Basis Set: AUG-CC-PVTZ
    Blend: AUG-CC-PVTZ
  Basis Set: (AUG-CC-PVTZ AUX)
    Blend: AUG-CC-PVTZ-JKFIT
	 Reference Energy          =    -930.5356738048584475 [Eh]
	 Singles Energy            =      -0.0000000000000000 [Eh]
	 Same-Spin Energy          =      -0.6272856112211012 [Eh]
	 Opposite-Spin Energy      =      -1.8686706271609301 [Eh]
	 Correlation Energy        =      -2.4959562383820311 [Eh]
	 Total Energy              =    -933.0316300432405114 [Eh]

	 ================> DF-SCS-MP2 Energies <==================
	-----------------------------------------------------------
	 SCS Same-Spin Scale       =       0.3333333333333333 [-]
	 SCS Opposite-Spin Scale   =       1.2000000000000000 [-]
	 SCS Same-Spin Energy      =      -0.2090952037403671 [Eh]
	 SCS Opposite-Spin Energy  =      -2.2424047525931159 [Eh]
	 SCS Correlation Energy    =      -2.4514999563334827 [Eh]
	 SCS Total Energy          =    -932.9871737611919116 [Eh]
	-----------------------------------------------------------

  Dipole Moment: [D]
     X:   -10.2935      Y:    -0.0048      Z:    -0.0687     Total:    10.2937

*** Psi4 exiting successfully. Buy a developer a beer!
