                               Psi4 1.4a3.dev225

  ==> Input File <==

--------------------------------------------------------------------------
#psi4
#
memory 32 gb

molecule  {
-1 1
  S        2.0766110     0.0000000     0.0075520
  O        2.3891470     0.0000020     1.4601760
  O        2.4489030    -1.2526260    -0.7015720
  O        2.4489040     1.2526220    -0.7015770
  C        0.2698850     0.0000000    -0.0431290
  C       -1.8281600    -1.2204390    -0.0177060
  C       -1.8403546     1.2206778    -0.1222817
  C       -0.4294560     1.2077840    -0.0326800
  C       -0.4294570    -1.2077850    -0.0326810
  C       -2.5145250     0.0000000     0.0013750
  C       -2.5812260    -2.5268720     0.0200930
  C       -2.5812240     2.5268730     0.0200930
  H        0.1401440     2.1341360    -0.0762120
  H        0.1401420    -2.1341370    -0.0762130
  H       -3.6064350     0.0000010     0.0012720
  H       -2.0599700    -3.2944780    -0.5602250
  H       -2.6805960    -2.9020040     1.0455530
  H       -3.5901000    -2.4148770    -0.3912530
  H       -2.6805180     2.9020500     1.0455440
  H       -2.0600100     3.2944550    -0.5602960
  H       -3.5901270     2.4148600    -0.3911760
units angstrom
no_reorient  #important for SAPT in psi4, default
symmetry c1  #important for SAPT in psi4, default
}

set PROPERTIES_ORIGIN ["COM"]
properties('MP2/aug-cc-pvtz', properties = ['dipole'])
--------------------------------------------------------------------------

    Molecular point group: c1
  Charge       = -1
  Multiplicity = 1
  Basis Set: AUG-CC-PVTZ
    Blend: AUG-CC-PVTZ
  Basis Set: (AUG-CC-PVTZ AUX)
    Blend: AUG-CC-PVTZ-JKFIT

    Orbital Energies [Eh]
    ---------------------

    Doubly Occupied:

       1A    -92.013941     2A    -20.351160     3A    -20.350869
       4A    -20.349687     5A    -11.135349     6A    -11.134464
       7A    -11.132004     8A    -11.131741     9A    -11.123329
      10A    -11.123139    11A    -11.114244    12A    -11.113166
      13A     -8.974674    14A     -6.660386    15A     -6.659602
      16A     -6.659517    17A     -1.269874    18A     -1.126532
      19A     -1.124481    20A     -1.044248    21A     -0.951391
      22A     -0.922552    23A     -0.840805    24A     -0.819418
      25A     -0.729122    26A     -0.676274    27A     -0.624476
      28A     -0.567836    29A     -0.540723    30A     -0.513539
      31A     -0.485983    32A     -0.478842    33A     -0.471441
      34A     -0.463394    35A     -0.461392    36A     -0.454857
      37A     -0.448011    38A     -0.425751    39A     -0.396945
      40A     -0.375603    41A     -0.369010    42A     -0.331409
      43A     -0.330666    44A     -0.296636    45A     -0.290709
      46A     -0.269375    47A     -0.248819    48A     -0.211228
      49A     -0.207612

  @DF-RHF Final Energy:  -930.53065843342961

   => Energetics <=

    Nuclear Repulsion Energy =            813.7672758657889744
    One-Electron Energy =               -2909.0034186955617770
    Two-Electron Energy =                1164.7054843963430812
    Total Energy =                       -930.5306584334296076
  Basis Set: (AUG-CC-PVTZ AUX)
    Blend: AUG-CC-PVTZ-RI
    Molecular point group: c1

    Geometry (in Angstrom), charge = -1, multiplicity = 1:

       Center              X                  Y                   Z               Mass
    ------------   -----------------  -----------------  -----------------  -----------------
         S            1.970736438346    -0.000015347238     0.014535414123    31.972071174400
         O            2.283272438346    -0.000013347238     1.467159414123    15.994914619570
         O            2.343028438346    -1.252641347238    -0.694588585877    15.994914619570
         O            2.343029438346     1.252606652762    -0.694593585877    15.994914619570
         C            0.164010438346    -0.000015347238    -0.036145585877    12.000000000000
         C           -1.934034561654    -1.220454347238    -0.010722585877    12.000000000000
         C           -1.946229161654     1.220662452762    -0.115298285877    12.000000000000
         C           -0.535330561654     1.207768652762    -0.025696585877    12.000000000000
         C           -0.535331561654    -1.207800347238    -0.025697585877    12.000000000000
         C           -2.620399561654    -0.000015347238     0.008358414123    12.000000000000
         C           -2.687100561654    -2.526887347238     0.027076414123    12.000000000000
         C           -2.687098561654     2.526857652762     0.027076414123    12.000000000000
         H            0.034269438346     2.134120652762    -0.069228585877     1.007825032230
         H            0.034267438346    -2.134152347238    -0.069229585877     1.007825032230
         H           -3.712309561654    -0.000014347238     0.008255414123     1.007825032230
         H           -2.165844561654    -3.294493347238    -0.553241585877     1.007825032230
         H           -2.786470561654    -2.902019347238     1.052536414123     1.007825032230
         H           -3.695974561654    -2.414892347238    -0.384269585877     1.007825032230
         H           -2.786392561654     2.902034652762     1.052527414123     1.007825032230
         H           -2.165884561654     3.294439652762    -0.553312585877     1.007825032230
         H           -3.696001561654     2.414844652762    -0.384192585877     1.007825032230

  Basis Set: AUG-CC-PVTZ
    Blend: AUG-CC-PVTZ
  Basis Set: (AUG-CC-PVTZ AUX)
    Blend: AUG-CC-PVTZ-JKFIT
	 Reference Energy          =    -930.5306584334296076 [Eh]
	 Singles Energy            =      -0.0000000000000000 [Eh]
	 Same-Spin Energy          =      -0.6275330191378745 [Eh]
	 Opposite-Spin Energy      =      -1.8693492321628737 [Eh]
	 Correlation Energy        =      -2.4968822513007485 [Eh]
	 Total Energy              =    -933.0275406847304112 [Eh]

	 ================> DF-SCS-MP2 Energies <==================
	-----------------------------------------------------------
	 SCS Same-Spin Scale       =       0.3333333333333333 [-]
	 SCS Opposite-Spin Scale   =       1.2000000000000000 [-]
	 SCS Same-Spin Energy      =      -0.2091776730459582 [Eh]
	 SCS Opposite-Spin Energy  =      -2.2432190785954482 [Eh]
	 SCS Correlation Energy    =      -2.4523967516414062 [Eh]
	 SCS Total Energy          =    -932.9830551850710663 [Eh]
	-----------------------------------------------------------

  Dipole Moment: [D]
     X:   -10.2646      Y:    -0.0532      Z:    -0.0458     Total:    10.2648

*** Psi4 exiting successfully. Buy a developer a beer!
