                               Psi4 1.4a3.dev225

  ==> Input File <==

--------------------------------------------------------------------------
#psi4
#
memory 32 gb

molecule  {
-1 1
  S        2.0766110     0.0000000     0.0075520
  O        2.3891470     0.0000020     1.4601760
  O        2.4489030    -1.2526260    -0.7015720
  O        2.4489040     1.2526220    -0.7015770
  C        0.2698850     0.0000000    -0.0431290
  C       -1.8281600    -1.2204390    -0.0177060
  C       -1.8281600     1.2204390    -0.0177050
  C       -0.4294560     1.2077840    -0.0326800
  C       -0.4294570    -1.2077850    -0.0326810
  C       -2.5145250     0.0000000     0.0013750
  C       -2.5812260    -2.5268720     0.0200930
  C       -2.5812240     2.5268730     0.0200930
  H        0.1401440     2.1341360    -0.0762120
  H        0.1401420    -2.1341370    -0.0762130
  H       -3.6064350     0.0000010     0.0012720
  H       -2.0599700    -3.2944780    -0.5602250
  H       -2.6896590    -2.9362178     1.1390799
  H       -3.5901000    -2.4148770    -0.3912530
  H       -2.6805180     2.9020500     1.0455440
  H       -2.0600100     3.2944550    -0.5602960
  H       -3.5901270     2.4148600    -0.3911760
units angstrom
no_reorient  #important for SAPT in psi4, default
symmetry c1  #important for SAPT in psi4, default
}

set PROPERTIES_ORIGIN ["COM"]
properties('MP2/aug-cc-pvtz', properties = ['dipole'])
--------------------------------------------------------------------------

    Molecular point group: c1
  Charge       = -1
  Multiplicity = 1
  Basis Set: AUG-CC-PVTZ
    Blend: AUG-CC-PVTZ
  Basis Set: (AUG-CC-PVTZ AUX)
    Blend: AUG-CC-PVTZ-JKFIT

    Orbital Energies [Eh]
    ---------------------

    Doubly Occupied:

       1A    -92.014178     2A    -20.351068     3A    -20.351041
       4A    -20.350170     5A    -11.143935     6A    -11.135303
       7A    -11.134953     8A    -11.132243     9A    -11.123644
      10A    -11.123201    11A    -11.112627    12A    -11.112543
      13A     -8.974896    14A     -6.660613    15A     -6.659823
      16A     -6.659739    17A     -1.270046    18A     -1.126605
      19A     -1.124743    20A     -1.045348    21A     -0.951258
      22A     -0.921918    23A     -0.838264    24A     -0.817936
      25A     -0.730461    26A     -0.674719    27A     -0.624800
      28A     -0.568023    29A     -0.542033    30A     -0.513907
      31A     -0.482376    32A     -0.476077    33A     -0.464636
      34A     -0.461831    35A     -0.458715    36A     -0.455755
      37A     -0.450577    38A     -0.427135    39A     -0.399929
      40A     -0.372969    41A     -0.370057    42A     -0.331617
      43A     -0.330699    44A     -0.296650    45A     -0.290765
      46A     -0.269771    47A     -0.249004    48A     -0.210801
      49A     -0.208731

  @DF-RHF Final Energy:  -930.52937343012115

   => Energetics <=

    Nuclear Repulsion Energy =            813.6352588365579095
    One-Electron Energy =               -2908.7329971070939791
    Two-Electron Energy =                1164.5683648404146879
    Total Energy =                       -930.5293734301212680
  Basis Set: (AUG-CC-PVTZ AUX)
    Blend: AUG-CC-PVTZ-RI
    Molecular point group: c1

    Geometry (in Angstrom), charge = -1, multiplicity = 1:

       Center              X                  Y                   Z               Mass
    ------------   -----------------  -----------------  -----------------  -----------------
         S            1.969994918981     0.000186499387     0.007243627526    31.972071174400
         O            2.282530918981     0.000188499387     1.459867627526    15.994914619570
         O            2.342286918981    -1.252439500613    -0.701880372474    15.994914619570
         O            2.342287918981     1.252808499387    -0.701885372474    15.994914619570
         C            0.163268918981     0.000186499387    -0.043437372474    12.000000000000
         C           -1.934776081019    -1.220252500613    -0.018014372474    12.000000000000
         C           -1.934776081019     1.220625499387    -0.018013372474    12.000000000000
         C           -0.536072081019     1.207970499387    -0.032988372474    12.000000000000
         C           -0.536073081019    -1.207598500613    -0.032989372474    12.000000000000
         C           -2.621141081019     0.000186499387     0.001066627526    12.000000000000
         C           -2.687842081019    -2.526685500613     0.019784627526    12.000000000000
         C           -2.687840081019     2.527059499387     0.019784627526    12.000000000000
         H            0.033527918981     2.134322499387    -0.076520372474     1.007825032230
         H            0.033525918981    -2.133950500613    -0.076521372474     1.007825032230
         H           -3.713051081019     0.000187499387     0.000963627526     1.007825032230
         H           -2.166586081019    -3.294291500613    -0.560533372474     1.007825032230
         H           -2.796275081019    -2.936031300613     1.138771527526     1.007825032230
         H           -3.696716081019    -2.414690500613    -0.391561372474     1.007825032230
         H           -2.787134081019     2.902236499387     1.045235627526     1.007825032230
         H           -2.166626081019     3.294641499387    -0.560604372474     1.007825032230
         H           -3.696743081019     2.415046499387    -0.391484372474     1.007825032230

  Basis Set: AUG-CC-PVTZ
    Blend: AUG-CC-PVTZ
  Basis Set: (AUG-CC-PVTZ AUX)
    Blend: AUG-CC-PVTZ-JKFIT
	 Reference Energy          =    -930.5293734301211543 [Eh]
	 Singles Energy            =      -0.0000000000000000 [Eh]
	 Same-Spin Energy          =      -0.6272563101873083 [Eh]
	 Opposite-Spin Energy      =      -1.8693285267325774 [Eh]
	 Correlation Energy        =      -2.4965848369198858 [Eh]
	 Total Energy              =    -933.0259582670410055 [Eh]

	 ================> DF-SCS-MP2 Energies <==================
	-----------------------------------------------------------
	 SCS Same-Spin Scale       =       0.3333333333333333 [-]
	 SCS Opposite-Spin Scale   =       1.2000000000000000 [-]
	 SCS Same-Spin Energy      =      -0.2090854367291028 [Eh]
	 SCS Opposite-Spin Energy  =      -2.2431942320790927 [Eh]
	 SCS Correlation Energy    =      -2.4522796688081954 [Eh]
	 SCS Total Energy          =    -932.9816530989293142 [Eh]
	-----------------------------------------------------------

  Dipole Moment: [D]
     X:   -10.2581      Y:     0.0700      Z:    -0.1238     Total:    10.2591

*** Psi4 exiting successfully. Buy a developer a beer!
