                               Psi4 1.4a3.dev225

  ==> Input File <==

--------------------------------------------------------------------------
#psi4
#
memory 32 gb

molecule  {
-1 1
  S        2.0766110     0.0000000     0.0075520
  O        2.3891470     0.0000020     1.4601760
  O        2.4489030    -1.2526260    -0.7015720
  O        2.4489040     1.2526220    -0.7015770
  C        0.2698850     0.0000000    -0.0431290
  C       -1.8281600    -1.2204390    -0.0177060
  C       -1.8256827     1.2213744     0.0084879
  C       -0.4294560     1.2077840    -0.0326800
  C       -0.4294570    -1.2077850    -0.0326810
  C       -2.5145250     0.0000000     0.0013750
  C       -2.5812260    -2.5268720     0.0200930
  C       -2.5812240     2.5268730     0.0200930
  H        0.1401440     2.1341360    -0.0762120
  H        0.1401420    -2.1341370    -0.0762130
  H       -3.6064350     0.0000010     0.0012720
  H       -2.0599700    -3.2944780    -0.5602250
  H       -2.6805960    -2.9020040     1.0455530
  H       -3.5901000    -2.4148770    -0.3912530
  H       -2.6805180     2.9020500     1.0455440
  H       -2.0600100     3.2944550    -0.5602960
  H       -3.5901270     2.4148600    -0.3911760
units angstrom
no_reorient  #important for SAPT in psi4, default
symmetry c1  #important for SAPT in psi4, default
}

set PROPERTIES_ORIGIN ["COM"]
properties('MP2/aug-cc-pvtz', properties = ['dipole'])
--------------------------------------------------------------------------

    Molecular point group: c1
  Charge       = -1
  Multiplicity = 1
  Basis Set: AUG-CC-PVTZ
    Blend: AUG-CC-PVTZ
  Basis Set: (AUG-CC-PVTZ AUX)
    Blend: AUG-CC-PVTZ-JKFIT

    Orbital Energies [Eh]
    ---------------------

    Doubly Occupied:

       1A    -92.013867     2A    -20.350753     3A    -20.350689
       4A    -20.349981     5A    -11.134587     6A    -11.134465
       7A    -11.131916     8A    -11.131883     9A    -11.123212
      10A    -11.122566    11A    -11.111751    12A    -11.111623
      13A     -8.974585    14A     -6.660301    15A     -6.659512
      16A     -6.659429    17A     -1.269751    18A     -1.126283
      19A     -1.124493    20A     -1.044882    21A     -0.952161
      22A     -0.922081    23A     -0.840553    24A     -0.820482
      25A     -0.730218    26A     -0.675309    27A     -0.624756
      28A     -0.567756    29A     -0.541232    30A     -0.513567
      31A     -0.485124    32A     -0.476111    33A     -0.474150
      34A     -0.463162    35A     -0.461282    36A     -0.454843
      37A     -0.450620    38A     -0.426396    39A     -0.399648
      40A     -0.372598    41A     -0.371038    42A     -0.331357
      43A     -0.330425    44A     -0.296426    45A     -0.290433
      46A     -0.269454    47A     -0.248732    48A     -0.210167
      49A     -0.208821

  @DF-RHF Final Energy:  -930.53561093716996

   => Energetics <=

    Nuclear Repulsion Energy =            814.0740766929063739
    One-Electron Energy =               -2909.6285139467054250
    Two-Electron Energy =                1165.0188263166289744
    Total Energy =                       -930.5356109371698494
  Basis Set: (AUG-CC-PVTZ AUX)
    Blend: AUG-CC-PVTZ-RI
    Molecular point group: c1

    Geometry (in Angstrom), charge = -1, multiplicity = 1:

       Center              X                  Y                   Z               Mass
    ------------   -----------------  -----------------  -----------------  -----------------
         S            1.969784887646    -0.000060525451     0.006054310491    31.972071174400
         O            2.282320887646    -0.000058525451     1.458678310491    15.994914619570
         O            2.342076887646    -1.252686525451    -0.703069689509    15.994914619570
         O            2.342077887646     1.252561474549    -0.703074689509    15.994914619570
         C            0.163058887646    -0.000060525451    -0.044626689509    12.000000000000
         C           -1.934986112354    -1.220499525451    -0.019203689509    12.000000000000
         C           -1.932508812354     1.221313874549     0.006990210491    12.000000000000
         C           -0.536282112354     1.207723474549    -0.034177689509    12.000000000000
         C           -0.536283112354    -1.207845525451    -0.034178689509    12.000000000000
         C           -2.621351112354    -0.000060525451    -0.000122689509    12.000000000000
         C           -2.688052112354    -2.526932525451     0.018595310491    12.000000000000
         C           -2.688050112354     2.526812474549     0.018595310491    12.000000000000
         H            0.033317887646     2.134075474549    -0.077709689509     1.007825032230
         H            0.033315887646    -2.134197525451    -0.077710689509     1.007825032230
         H           -3.713261112354    -0.000059525451    -0.000225689509     1.007825032230
         H           -2.166796112354    -3.294538525451    -0.561722689509     1.007825032230
         H           -2.787422112354    -2.902064525451     1.044055310491     1.007825032230
         H           -3.696926112354    -2.414937525451    -0.392750689509     1.007825032230
         H           -2.787344112354     2.901989474549     1.044046310491     1.007825032230
         H           -2.166836112354     3.294394474549    -0.561793689509     1.007825032230
         H           -3.696953112354     2.414799474549    -0.392673689509     1.007825032230

  Basis Set: AUG-CC-PVTZ
    Blend: AUG-CC-PVTZ
  Basis Set: (AUG-CC-PVTZ AUX)
    Blend: AUG-CC-PVTZ-JKFIT
	 Reference Energy          =    -930.5356109371699631 [Eh]
	 Singles Energy            =      -0.0000000000000000 [Eh]
	 Same-Spin Energy          =      -0.6272802630756195 [Eh]
	 Opposite-Spin Energy      =      -1.8686619727374598 [Eh]
	 Correlation Energy        =      -2.4959422358130792 [Eh]
	 Total Energy              =    -933.0315531729830809 [Eh]

	 ================> DF-SCS-MP2 Energies <==================
	-----------------------------------------------------------
	 SCS Same-Spin Scale       =       0.3333333333333333 [-]
	 SCS Opposite-Spin Scale   =       1.2000000000000000 [-]
	 SCS Same-Spin Energy      =      -0.2090934210252065 [Eh]
	 SCS Opposite-Spin Energy  =      -2.2423943672849518 [Eh]
	 SCS Correlation Energy    =      -2.4514877883101582 [Eh]
	 SCS Total Energy          =    -932.9870987254801094 [Eh]
	-----------------------------------------------------------

  Dipole Moment: [D]
     X:   -10.3002      Y:     0.0071      Z:    -0.0732     Total:    10.3004

*** Psi4 exiting successfully. Buy a developer a beer!
