                               Psi4 1.4a3.dev225

  ==> Input File <==

--------------------------------------------------------------------------
#psi4
#
memory 32 gb

molecule  {
-1 1
  S        2.0754664     0.0630591     0.0090897
  O        2.3891470     0.0000020     1.4601760
  O        2.4489030    -1.2526260    -0.7015720
  O        2.4489040     1.2526220    -0.7015770
  C        0.2698850     0.0000000    -0.0431290
  C       -1.8281600    -1.2204390    -0.0177060
  C       -1.8281600     1.2204390    -0.0177050
  C       -0.4294560     1.2077840    -0.0326800
  C       -0.4294570    -1.2077850    -0.0326810
  C       -2.5145250     0.0000000     0.0013750
  C       -2.5812260    -2.5268720     0.0200930
  C       -2.5812240     2.5268730     0.0200930
  H        0.1401440     2.1341360    -0.0762120
  H        0.1401420    -2.1341370    -0.0762130
  H       -3.6064350     0.0000010     0.0012720
  H       -2.0599700    -3.2944780    -0.5602250
  H       -2.6805960    -2.9020040     1.0455530
  H       -3.5901000    -2.4148770    -0.3912530
  H       -2.6805180     2.9020500     1.0455440
  H       -2.0600100     3.2944550    -0.5602960
  H       -3.5901270     2.4148600    -0.3911760
units angstrom
no_reorient  #important for SAPT in psi4, default
symmetry c1  #important for SAPT in psi4, default
}

set PROPERTIES_ORIGIN ["COM"]
properties('MP2/aug-cc-pvtz', properties = ['dipole'])
--------------------------------------------------------------------------

    Molecular point group: c1
  Charge       = -1
  Multiplicity = 1
  Basis Set: AUG-CC-PVTZ
    Blend: AUG-CC-PVTZ
  Basis Set: (AUG-CC-PVTZ AUX)
    Blend: AUG-CC-PVTZ-JKFIT

    Orbital Energies [Eh]
    ---------------------

    Doubly Occupied:

       1A    -92.012919     2A    -20.364343     3A    -20.350223
       4A    -20.336751     5A    -11.134696     6A    -11.134385
       7A    -11.132326     8A    -11.131541     9A    -11.123394
      10A    -11.122477    11A    -11.112156    12A    -11.111683
      13A     -8.974177    14A     -6.659848    15A     -6.659333
      16A     -6.658741    17A     -1.277946    18A     -1.145041
      19A     -1.098610    20A     -1.044918    21A     -0.952118
      22A     -0.922267    23A     -0.840778    24A     -0.820400
      25A     -0.730316    26A     -0.675616    27A     -0.625049
      28A     -0.568085    29A     -0.541396    30A     -0.515330
      31A     -0.485211    32A     -0.475588    33A     -0.475235
      34A     -0.466766    35A     -0.461989    36A     -0.454921
      37A     -0.450189    38A     -0.426474    39A     -0.400038
      40A     -0.372419    41A     -0.372227    42A     -0.334109
      43A     -0.329952    44A     -0.304485    45A     -0.281468
      46A     -0.264812    47A     -0.245018    48A     -0.210547
      49A     -0.208363

  @DF-RHF Final Energy:  -930.52958991123865

   => Energetics <=

    Nuclear Repulsion Energy =            814.1107587675555806
    One-Electron Energy =               -2909.6873468341814259
    Two-Electron Energy =                1165.0469981553872003
    Total Energy =                       -930.5295899112386451
  Basis Set: (AUG-CC-PVTZ AUX)
    Blend: AUG-CC-PVTZ-RI
    Molecular point group: c1

    Geometry (in Angstrom), charge = -1, multiplicity = 1:

       Center              X                  Y                   Z               Mass
    ------------   -----------------  -----------------  -----------------  -----------------
         S            1.968998736664     0.052162844470     0.009025050003    31.972071174400
         O            2.282679336664    -0.010894255530     1.460111350003    15.994914619570
         O            2.342435336664    -1.263522255530    -0.701636649997    15.994914619570
         O            2.342436336664     1.241725744470    -0.701641649997    15.994914619570
         C            0.163417336664    -0.010896255530    -0.043193649997    12.000000000000
         C           -1.934627663336    -1.231335255530    -0.017770649997    12.000000000000
         C           -1.934627663336     1.209542744470    -0.017769649997    12.000000000000
         C           -0.535923663336     1.196887744470    -0.032744649997    12.000000000000
         C           -0.535924663336    -1.218681255530    -0.032745649997    12.000000000000
         C           -2.620992663336    -0.010896255530     0.001310350003    12.000000000000
         C           -2.687693663336    -2.537768255530     0.020028350003    12.000000000000
         C           -2.687691663336     2.515976744470     0.020028350003    12.000000000000
         H            0.033676336664     2.123239744470    -0.076276649997     1.007825032230
         H            0.033674336664    -2.145033255530    -0.076277649997     1.007825032230
         H           -3.712902663336    -0.010895255530     0.001207350003     1.007825032230
         H           -2.166437663336    -3.305374255530    -0.560289649997     1.007825032230
         H           -2.787063663336    -2.912900255530     1.045488350003     1.007825032230
         H           -3.696567663336    -2.425773255530    -0.391317649997     1.007825032230
         H           -2.786985663336     2.891153744470     1.045479350003     1.007825032230
         H           -2.166477663336     3.283558744470    -0.560360649997     1.007825032230
         H           -3.696594663336     2.403963744470    -0.391240649997     1.007825032230

  Basis Set: AUG-CC-PVTZ
    Blend: AUG-CC-PVTZ
  Basis Set: (AUG-CC-PVTZ AUX)
    Blend: AUG-CC-PVTZ-JKFIT
	 Reference Energy          =    -930.5295899112386451 [Eh]
	 Singles Energy            =      -0.0000000000000000 [Eh]
	 Same-Spin Energy          =      -0.6272543132245463 [Eh]
	 Opposite-Spin Energy      =      -1.8687713868348910 [Eh]
	 Correlation Energy        =      -2.4960257000594375 [Eh]
	 Total Energy              =    -933.0256156112981216 [Eh]

	 ================> DF-SCS-MP2 Energies <==================
	-----------------------------------------------------------
	 SCS Same-Spin Scale       =       0.3333333333333333 [-]
	 SCS Opposite-Spin Scale   =       1.2000000000000000 [-]
	 SCS Same-Spin Energy      =      -0.2090847710748487 [Eh]
	 SCS Opposite-Spin Energy  =      -2.2425256642018692 [Eh]
	 SCS Correlation Energy    =      -2.4516104352767178 [Eh]
	 SCS Total Energy          =    -932.9812003465153794 [Eh]
	-----------------------------------------------------------

  Dipole Moment: [D]
     X:   -10.3175      Y:     0.6452      Z:    -0.0432     Total:    10.3377

*** Psi4 exiting successfully. Buy a developer a beer!
