                               Psi4 1.4a3.dev225

  ==> Input File <==

--------------------------------------------------------------------------
#psi4
#
memory 32 gb

molecule  {
-1 1
  S        2.0766110     0.0000000     0.0075520
  O        2.3987094     0.0239986     1.4578871
  O        2.4489030    -1.2526260    -0.7015720
  O        2.4489040     1.2526220    -0.7015770
  C        0.2698850     0.0000000    -0.0431290
  C       -1.8281600    -1.2204390    -0.0177060
  C       -1.8281600     1.2204390    -0.0177050
  C       -0.4294560     1.2077840    -0.0326800
  C       -0.4294570    -1.2077850    -0.0326810
  C       -2.5145250     0.0000000     0.0013750
  C       -2.5812260    -2.5268720     0.0200930
  C       -2.5812240     2.5268730     0.0200930
  H        0.1401440     2.1341360    -0.0762120
  H        0.1401420    -2.1341370    -0.0762130
  H       -3.6064350     0.0000010     0.0012720
  H       -2.0599700    -3.2944780    -0.5602250
  H       -2.6805960    -2.9020040     1.0455530
  H       -3.5901000    -2.4148770    -0.3912530
  H       -2.6805180     2.9020500     1.0455440
  H       -2.0600100     3.2944550    -0.5602960
  H       -3.5901270     2.4148600    -0.3911760
units angstrom
no_reorient  #important for SAPT in psi4, default
symmetry c1  #important for SAPT in psi4, default
}

set PROPERTIES_ORIGIN ["COM"]
properties('MP2/aug-cc-pvtz', properties = ['dipole'])
--------------------------------------------------------------------------

    Molecular point group: c1
  Charge       = -1
  Multiplicity = 1
  Basis Set: AUG-CC-PVTZ
    Blend: AUG-CC-PVTZ
  Basis Set: (AUG-CC-PVTZ AUX)
    Blend: AUG-CC-PVTZ-JKFIT

    Orbital Energies [Eh]
    ---------------------

    Doubly Occupied:

       1A    -92.013671     2A    -20.351827     3A    -20.349677
       4A    -20.348933     5A    -11.134726     6A    -11.134662
       7A    -11.132101     8A    -11.132000     9A    -11.123578
      10A    -11.122703    11A    -11.112211    12A    -11.112092
      13A     -8.974405    14A     -6.660120    15A     -6.659335
      16A     -6.659246    17A     -1.269565    18A     -1.126769
      19A     -1.123265    20A     -1.045166    21A     -0.952266
      22A     -0.922450    23A     -0.840915    24A     -0.820541
      25A     -0.730376    26A     -0.675767    27A     -0.624741
      28A     -0.567968    29A     -0.541499    30A     -0.513409
      31A     -0.485258    32A     -0.475416    33A     -0.475355
      34A     -0.463077    35A     -0.460979    36A     -0.455009
      37A     -0.450496    38A     -0.426514    39A     -0.399481
      40A     -0.372449    41A     -0.371976    42A     -0.331416
      43A     -0.329848    44A     -0.296238    45A     -0.290008
      46A     -0.269685    47A     -0.248292    48A     -0.210730
      49A     -0.208899

  @DF-RHF Final Energy:  -930.53570233277560

   => Energetics <=

    Nuclear Repulsion Energy =            813.9806120748049807
    One-Electron Energy =               -2909.4384085215870073
    Two-Electron Energy =                1164.9220941140065406
    Total Energy =                       -930.5357023327755996
  Basis Set: (AUG-CC-PVTZ AUX)
    Blend: AUG-CC-PVTZ-RI
    Molecular point group: c1

    Geometry (in Angstrom), charge = -1, multiplicity = 1:

       Center              X                  Y                   Z               Mass
    ------------   -----------------  -----------------  -----------------  -----------------
         S            1.969118919914    -0.002074276331     0.007950926143    31.972071174400
         O            2.291217319914     0.021924323669     1.458286026143    15.994914619570
         O            2.341410919914    -1.254700276331    -0.701173073857    15.994914619570
         O            2.341411919914     1.250547723669    -0.701178073857    15.994914619570
         C            0.162392919914    -0.002074276331    -0.042730073857    12.000000000000
         C           -1.935652080086    -1.222513276331    -0.017307073857    12.000000000000
         C           -1.935652080086     1.218364723669    -0.017306073857    12.000000000000
         C           -0.536948080086     1.205709723669    -0.032281073857    12.000000000000
         C           -0.536949080086    -1.209859276331    -0.032282073857    12.000000000000
         C           -2.622017080086    -0.002074276331     0.001773926143    12.000000000000
         C           -2.688718080086    -2.528946276331     0.020491926143    12.000000000000
         C           -2.688716080086     2.524798723669     0.020491926143    12.000000000000
         H            0.032651919914     2.132061723669    -0.075813073857     1.007825032230
         H            0.032649919914    -2.136211276331    -0.075814073857     1.007825032230
         H           -3.713927080086    -0.002073276331     0.001670926143     1.007825032230
         H           -2.167462080086    -3.296552276331    -0.559826073857     1.007825032230
         H           -2.788088080086    -2.904078276331     1.045951926143     1.007825032230
         H           -3.697592080086    -2.416951276331    -0.390854073857     1.007825032230
         H           -2.788010080086     2.899975723669     1.045942926143     1.007825032230
         H           -2.167502080086     3.292380723669    -0.559897073857     1.007825032230
         H           -3.697619080086     2.412785723669    -0.390777073857     1.007825032230

  Basis Set: AUG-CC-PVTZ
    Blend: AUG-CC-PVTZ
  Basis Set: (AUG-CC-PVTZ AUX)
    Blend: AUG-CC-PVTZ-JKFIT
	 Reference Energy          =    -930.5357023327755996 [Eh]
	 Singles Energy            =      -0.0000000000000000 [Eh]
	 Same-Spin Energy          =      -0.6272554548866784 [Eh]
	 Opposite-Spin Energy      =      -1.8686115260475586 [Eh]
	 Correlation Energy        =      -2.4958669809342373 [Eh]
	 Total Energy              =    -933.0315693137098378 [Eh]

	 ================> DF-SCS-MP2 Energies <==================
	-----------------------------------------------------------
	 SCS Same-Spin Scale       =       0.3333333333333333 [-]
	 SCS Opposite-Spin Scale   =       1.2000000000000000 [-]
	 SCS Same-Spin Energy      =      -0.2090851516288928 [Eh]
	 SCS Opposite-Spin Energy  =      -2.2423338312570702 [Eh]
	 SCS Correlation Energy    =      -2.4514189828859632 [Eh]
	 SCS Total Energy          =    -932.9871213156615113 [Eh]
	-----------------------------------------------------------

  Dipole Moment: [D]
     X:   -10.3336      Y:    -0.0547      Z:    -0.0642     Total:    10.3339

*** Psi4 exiting successfully. Buy a developer a beer!
