                               Psi4 1.4a3.dev225

  ==> Input File <==

--------------------------------------------------------------------------
#psi4
#
memory 32 gb

molecule  {
-1 1
  S        2.0766110     0.0000000     0.0075520
  O        2.3891470     0.0000020     1.4601760
  O        2.4489030    -1.2526260    -0.7015720
  O        2.4489040     1.2526220    -0.7015770
  C        0.2698850     0.0000000    -0.0431290
  C       -1.8069732    -1.2082698    -0.0182950
  C       -1.8281600     1.2204390    -0.0177050
  C       -0.4294560     1.2077840    -0.0326800
  C       -0.4294570    -1.2077850    -0.0326810
  C       -2.5145250     0.0000000     0.0013750
  C       -2.5812260    -2.5268720     0.0200930
  C       -2.5812240     2.5268730     0.0200930
  H        0.1401440     2.1341360    -0.0762120
  H        0.1401420    -2.1341370    -0.0762130
  H       -3.6064350     0.0000010     0.0012720
  H       -2.0599700    -3.2944780    -0.5602250
  H       -2.6805960    -2.9020040     1.0455530
  H       -3.5901000    -2.4148770    -0.3912530
  H       -2.6805180     2.9020500     1.0455440
  H       -2.0600100     3.2944550    -0.5602960
  H       -3.5901270     2.4148600    -0.3911760
units angstrom
no_reorient  #important for SAPT in psi4, default
symmetry c1  #important for SAPT in psi4, default
}

set PROPERTIES_ORIGIN ["COM"]
properties('MP2/aug-cc-pvtz', properties = ['dipole'])
--------------------------------------------------------------------------

    Molecular point group: c1
  Charge       = -1
  Multiplicity = 1
  Basis Set: AUG-CC-PVTZ
    Blend: AUG-CC-PVTZ
  Basis Set: (AUG-CC-PVTZ AUX)
    Blend: AUG-CC-PVTZ-JKFIT

    Orbital Energies [Eh]
    ---------------------

    Doubly Occupied:

       1A    -92.013953     2A    -20.350999     3A    -20.350794
       4A    -20.350083     5A    -11.134699     6A    -11.133221
       7A    -11.131967     8A    -11.131944     9A    -11.123571
      10A    -11.122174    11A    -11.111563    12A    -11.109607
      13A     -8.974684    14A     -6.660397    15A     -6.659612
      16A     -6.659529    17A     -1.269904    18A     -1.126451
      19A     -1.124628    20A     -1.046456    21A     -0.951372
      22A     -0.921235    23A     -0.839800    24A     -0.821412
      25A     -0.731874    26A     -0.674524    27A     -0.625020
      28A     -0.568838    29A     -0.541568    30A     -0.513368
      31A     -0.484350    32A     -0.474160    33A     -0.472517
      34A     -0.463210    35A     -0.461324    36A     -0.454377
      37A     -0.450579    38A     -0.426900    39A     -0.402368
      40A     -0.373465    41A     -0.368421    42A     -0.331468
      43A     -0.330658    44A     -0.296696    45A     -0.290637
      46A     -0.269584    47A     -0.248876    48A     -0.211500
      49A     -0.209816

  @DF-RHF Final Energy:  -930.53548955930410

   => Energetics <=

    Nuclear Repulsion Energy =            814.4012976476695940
    One-Electron Energy =               -2910.2812693775908883
    Two-Electron Energy =                1165.3444821706170842
    Total Energy =                       -930.5354895593040965
  Basis Set: (AUG-CC-PVTZ AUX)
    Blend: AUG-CC-PVTZ-RI
    Molecular point group: c1

    Geometry (in Angstrom), charge = -1, multiplicity = 1:

       Center              X                  Y                   Z               Mass
    ------------   -----------------  -----------------  -----------------  -----------------
         S            1.968571477125    -0.000789097091     0.007791259058    31.972071174400
         O            2.281107477125    -0.000787097091     1.460415259058    15.994914619570
         O            2.340863477125    -1.253415097091    -0.701332740942    15.994914619570
         O            2.340864477125     1.251832902909    -0.701337740942    15.994914619570
         C            0.161845477125    -0.000789097091    -0.042889740942    12.000000000000
         C           -1.915012722875    -1.209058897091    -0.018055740942    12.000000000000
         C           -1.936199522875     1.219649902909    -0.017465740942    12.000000000000
         C           -0.537495522875     1.206994902909    -0.032440740942    12.000000000000
         C           -0.537496522875    -1.208574097091    -0.032441740942    12.000000000000
         C           -2.622564522875    -0.000789097091     0.001614259058    12.000000000000
         C           -2.689265522875    -2.527661097091     0.020332259058    12.000000000000
         C           -2.689263522875     2.526083902909     0.020332259058    12.000000000000
         H            0.032104477125     2.133346902909    -0.075972740942     1.007825032230
         H            0.032102477125    -2.134926097091    -0.075973740942     1.007825032230
         H           -3.714474522875    -0.000788097091     0.001511259058     1.007825032230
         H           -2.168009522875    -3.295267097091    -0.559985740942     1.007825032230
         H           -2.788635522875    -2.902793097091     1.045792259058     1.007825032230
         H           -3.698139522875    -2.415666097091    -0.391013740942     1.007825032230
         H           -2.788557522875     2.901260902909     1.045783259058     1.007825032230
         H           -2.168049522875     3.293665902909    -0.560056740942     1.007825032230
         H           -3.698166522875     2.414070902909    -0.390936740942     1.007825032230

  Basis Set: AUG-CC-PVTZ
    Blend: AUG-CC-PVTZ
  Basis Set: (AUG-CC-PVTZ AUX)
    Blend: AUG-CC-PVTZ-JKFIT
	 Reference Energy          =    -930.5354895593040965 [Eh]
	 Singles Energy            =      -0.0000000000000000 [Eh]
	 Same-Spin Energy          =      -0.6271138682393151 [Eh]
	 Opposite-Spin Energy      =      -1.8684100897124791 [Eh]
	 Correlation Energy        =      -2.4955239579517943 [Eh]
	 Total Energy              =    -933.0310135172559285 [Eh]

	 ================> DF-SCS-MP2 Energies <==================
	-----------------------------------------------------------
	 SCS Same-Spin Scale       =       0.3333333333333333 [-]
	 SCS Opposite-Spin Scale   =       1.2000000000000000 [-]
	 SCS Same-Spin Energy      =      -0.2090379560797717 [Eh]
	 SCS Opposite-Spin Energy  =      -2.2420921076549747 [Eh]
	 SCS Correlation Energy    =      -2.4511300637347464 [Eh]
	 SCS Total Energy          =    -932.9866196230387914 [Eh]
	-----------------------------------------------------------

  Dipole Moment: [D]
     X:   -10.2785      Y:     0.0340      Z:    -0.0695     Total:    10.2787

*** Psi4 exiting successfully. Buy a developer a beer!
