                               Psi4 1.4a3.dev225

  ==> Input File <==

--------------------------------------------------------------------------
#psi4
#
memory 32 gb

molecule  {
-1 1
  S        2.0763578    -0.0315344     0.0067599
  O        2.3891470     0.0000020     1.4601760
  O        2.4489030    -1.2526260    -0.7015720
  O        2.4489040     1.2526220    -0.7015770
  C        0.2698850     0.0000000    -0.0431290
  C       -1.8281600    -1.2204390    -0.0177060
  C       -1.8281600     1.2204390    -0.0177050
  C       -0.4294560     1.2077840    -0.0326800
  C       -0.4294570    -1.2077850    -0.0326810
  C       -2.5145250     0.0000000     0.0013750
  C       -2.5812260    -2.5268720     0.0200930
  C       -2.5812240     2.5268730     0.0200930
  H        0.1401440     2.1341360    -0.0762120
  H        0.1401420    -2.1341370    -0.0762130
  H       -3.6064350     0.0000010     0.0012720
  H       -2.0599700    -3.2944780    -0.5602250
  H       -2.6805960    -2.9020040     1.0455530
  H       -3.5901000    -2.4148770    -0.3912530
  H       -2.6805180     2.9020500     1.0455440
  H       -2.0600100     3.2944550    -0.5602960
  H       -3.5901270     2.4148600    -0.3911760
units angstrom
no_reorient  #important for SAPT in psi4, default
symmetry c1  #important for SAPT in psi4, default
}

set PROPERTIES_ORIGIN ["COM"]
properties('MP2/aug-cc-pvtz', properties = ['dipole'])
--------------------------------------------------------------------------

    Molecular point group: c1
  Charge       = -1
  Multiplicity = 1
  Basis Set: AUG-CC-PVTZ
    Blend: AUG-CC-PVTZ
  Basis Set: (AUG-CC-PVTZ AUX)
    Blend: AUG-CC-PVTZ-JKFIT

    Orbital Energies [Eh]
    ---------------------

    Doubly Occupied:

       1A    -92.013631     2A    -20.357774     3A    -20.349711
       4A    -20.343938     5A    -11.134584     6A    -11.134423
       7A    -11.132103     8A    -11.131710     9A    -11.123271
      10A    -11.122436    11A    -11.111997    12A    -11.111751
      13A     -8.974488    14A     -6.660190    15A     -6.659524
      16A     -6.659212    17A     -1.271891    18A     -1.136204
      19A     -1.112727    20A     -1.044920    21A     -0.952078
      22A     -0.922206    23A     -0.840737    24A     -0.820350
      25A     -0.730167    26A     -0.675569    27A     -0.624787
      28A     -0.567879    29A     -0.541318    30A     -0.513951
      31A     -0.485125    32A     -0.475339    33A     -0.475216
      34A     -0.464242    35A     -0.461355    36A     -0.454873
      37A     -0.450266    38A     -0.426379    39A     -0.399464
      40A     -0.372261    41A     -0.371944    42A     -0.332141
      43A     -0.330294    44A     -0.299827    45A     -0.286899
      46A     -0.268269    47A     -0.247772    48A     -0.210433
      49A     -0.208611

  @DF-RHF Final Energy:  -930.53417413020793

   => Energetics <=

    Nuclear Repulsion Energy =            814.0729191340547004
    One-Electron Energy =               -2909.6217116198026815
    Two-Electron Energy =                1165.0146183555400512
    Total Energy =                       -930.5341741302079299
  Basis Set: (AUG-CC-PVTZ AUX)
    Blend: AUG-CC-PVTZ-RI
    Molecular point group: c1

    Geometry (in Angstrom), charge = -1, multiplicity = 1:

       Center              X                  Y                   Z               Mass
    ------------   -----------------  -----------------  -----------------  -----------------
         S            1.969736105808    -0.026085223855     0.007097831435    31.972071174400
         O            2.282525305808     0.005451176145     1.460513931435    15.994914619570
         O            2.342281305808    -1.247176823855    -0.701234068565    15.994914619570
         O            2.342282305808     1.258071176145    -0.701239068565    15.994914619570
         C            0.163263305808     0.005449176145    -0.042791068565    12.000000000000
         C           -1.934781694192    -1.214989823855    -0.017368068565    12.000000000000
         C           -1.934781694192     1.225888176145    -0.017367068565    12.000000000000
         C           -0.536077694192     1.213233176145    -0.032342068565    12.000000000000
         C           -0.536078694192    -1.202335823855    -0.032343068565    12.000000000000
         C           -2.621146694192     0.005449176145     0.001712931435    12.000000000000
         C           -2.687847694192    -2.521422823855     0.020430931435    12.000000000000
         C           -2.687845694192     2.532322176145     0.020430931435    12.000000000000
         H            0.033522305808     2.139585176145    -0.075874068565     1.007825032230
         H            0.033520305808    -2.128687823855    -0.075875068565     1.007825032230
         H           -3.713056694192     0.005450176145     0.001609931435     1.007825032230
         H           -2.166591694192    -3.289028823855    -0.559887068565     1.007825032230
         H           -2.787217694192    -2.896554823855     1.045890931435     1.007825032230
         H           -3.696721694192    -2.409427823855    -0.390915068565     1.007825032230
         H           -2.787139694192     2.907499176145     1.045881931435     1.007825032230
         H           -2.166631694192     3.299904176145    -0.559958068565     1.007825032230
         H           -3.696748694192     2.420309176145    -0.390838068565     1.007825032230

  Basis Set: AUG-CC-PVTZ
    Blend: AUG-CC-PVTZ
  Basis Set: (AUG-CC-PVTZ AUX)
    Blend: AUG-CC-PVTZ-JKFIT
	 Reference Energy          =    -930.5341741302079299 [Eh]
	 Singles Energy            =      -0.0000000000000000 [Eh]
	 Same-Spin Energy          =      -0.6272730241731193 [Eh]
	 Opposite-Spin Energy      =      -1.8686871625928603 [Eh]
	 Correlation Energy        =      -2.4959601867659797 [Eh]
	 Total Energy              =    -933.0301343169738857 [Eh]

	 ================> DF-SCS-MP2 Energies <==================
	-----------------------------------------------------------
	 SCS Same-Spin Scale       =       0.3333333333333333 [-]
	 SCS Opposite-Spin Scale   =       1.2000000000000000 [-]
	 SCS Same-Spin Energy      =      -0.2090910080577064 [Eh]
	 SCS Opposite-Spin Energy  =      -2.2424245951114323 [Eh]
	 SCS Correlation Energy    =      -2.4515156031691387 [Eh]
	 SCS Total Energy          =    -932.9856897333770576 [Eh]
	-----------------------------------------------------------

  Dipole Moment: [D]
     X:   -10.3015      Y:    -0.3225      Z:    -0.0745     Total:    10.3068

*** Psi4 exiting successfully. Buy a developer a beer!
