                               Psi4 1.4a3.dev225

  ==> Input File <==

--------------------------------------------------------------------------
#psi4
#
memory 32 gb

molecule  {
-1 1
  S        2.0766110     0.0000000     0.0075520
  O        2.3891470     0.0000020     1.4601760
  O        2.4489030    -1.2526260    -0.7015720
  O        2.4489040     1.2526220    -0.7015770
  C        0.2698850     0.0000000    -0.0431290
  C       -1.9149326    -1.2653630    -0.0152938
  C       -1.8281600     1.2204390    -0.0177050
  C       -0.4294560     1.2077840    -0.0326800
  C       -0.4294570    -1.2077850    -0.0326810
  C       -2.5145250     0.0000000     0.0013750
  C       -2.5812260    -2.5268720     0.0200930
  C       -2.5812240     2.5268730     0.0200930
  H        0.1401440     2.1341360    -0.0762120
  H        0.1401420    -2.1341370    -0.0762130
  H       -3.6064350     0.0000010     0.0012720
  H       -2.0599700    -3.2944780    -0.5602250
  H       -2.6805960    -2.9020040     1.0455530
  H       -3.5901000    -2.4148770    -0.3912530
  H       -2.6805180     2.9020500     1.0455440
  H       -2.0600100     3.2944550    -0.5602960
  H       -3.5901270     2.4148600    -0.3911760
units angstrom
no_reorient  #important for SAPT in psi4, default
symmetry c1  #important for SAPT in psi4, default
}

set PROPERTIES_ORIGIN ["COM"]
properties('MP2/aug-cc-pvtz', properties = ['dipole'])
--------------------------------------------------------------------------

    Molecular point group: c1
  Charge       = -1
  Multiplicity = 1
  Basis Set: AUG-CC-PVTZ
    Blend: AUG-CC-PVTZ
  Basis Set: (AUG-CC-PVTZ AUX)
    Blend: AUG-CC-PVTZ-JKFIT

    Orbital Energies [Eh]
    ---------------------

    Doubly Occupied:

       1A    -92.013565     2A    -20.350695     3A    -20.349921
       4A    -20.349317     5A    -11.139781     6A    -11.133819
       7A    -11.131714     8A    -11.130951     9A    -11.123996
      10A    -11.122063    11A    -11.119895    12A    -11.113054
      13A     -8.974251    14A     -6.659973    15A     -6.659178
      16A     -6.659091    17A     -1.269264    18A     -1.125877
      19A     -1.123931    20A     -1.040574    21A     -0.960153
      22A     -0.923484    23A     -0.845001    24A     -0.815571
      25A     -0.722977    26A     -0.679301    27A     -0.623345
      28A     -0.564010    29A     -0.541240    30A     -0.515678
      31A     -0.491451    32A     -0.489258    33A     -0.477616
      34A     -0.462987    35A     -0.461324    36A     -0.456468
      37A     -0.447978    38A     -0.424526    39A     -0.388918
      40A     -0.377186    41A     -0.366153    42A     -0.330917
      43A     -0.329743    44A     -0.295789    45A     -0.289814
      46A     -0.268207    47A     -0.248251    48A     -0.212801
      49A     -0.198272

  @DF-RHF Final Energy:  -930.52199436445437

   => Energetics <=

    Nuclear Repulsion Energy =            812.8075352411650556
    One-Electron Energy =               -2907.0603993954941870
    Two-Electron Energy =                1163.7308697898745322
    Total Energy =                       -930.5219943644544855
  Basis Set: (AUG-CC-PVTZ AUX)
    Blend: AUG-CC-PVTZ-RI
    Molecular point group: c1

    Geometry (in Angstrom), charge = -1, multiplicity = 1:

       Center              X                  Y                   Z               Mass
    ------------   -----------------  -----------------  -----------------  -----------------
         S            1.975573218046     0.002913700393     0.007596615286    31.972071174400
         O            2.288109218046     0.002915700393     1.460220615286    15.994914619570
         O            2.347865218046    -1.249712299607    -0.701527384714    15.994914619570
         O            2.347866218046     1.255535700393    -0.701532384714    15.994914619570
         C            0.168847218046     0.002913700393    -0.043084384714    12.000000000000
         C           -2.015970381954    -1.262449299607    -0.015249184714    12.000000000000
         C           -1.929197781954     1.223352700393    -0.017660384714    12.000000000000
         C           -0.530493781954     1.210697700393    -0.032635384714    12.000000000000
         C           -0.530494781954    -1.204871299607    -0.032636384714    12.000000000000
         C           -2.615562781954     0.002913700393     0.001419615286    12.000000000000
         C           -2.682263781954    -2.523958299607     0.020137615286    12.000000000000
         C           -2.682261781954     2.529786700393     0.020137615286    12.000000000000
         H            0.039106218046     2.137049700393    -0.076167384714     1.007825032230
         H            0.039104218046    -2.131223299607    -0.076168384714     1.007825032230
         H           -3.707472781954     0.002914700393     0.001316615286     1.007825032230
         H           -2.161007781954    -3.291564299607    -0.560180384714     1.007825032230
         H           -2.781633781954    -2.899090299607     1.045597615286     1.007825032230
         H           -3.691137781954    -2.411963299607    -0.391208384714     1.007825032230
         H           -2.781555781954     2.904963700393     1.045588615286     1.007825032230
         H           -2.161047781954     3.297368700393    -0.560251384714     1.007825032230
         H           -3.691164781954     2.417773700393    -0.391131384714     1.007825032230

  Basis Set: AUG-CC-PVTZ
    Blend: AUG-CC-PVTZ
  Basis Set: (AUG-CC-PVTZ AUX)
    Blend: AUG-CC-PVTZ-JKFIT
	 Reference Energy          =    -930.5219943644543719 [Eh]
	 Singles Energy            =      -0.0000000000000000 [Eh]
	 Same-Spin Energy          =      -0.6282754628390441 [Eh]
	 Opposite-Spin Energy      =      -1.8705731483701675 [Eh]
	 Correlation Energy        =      -2.4988486112092119 [Eh]
	 Total Energy              =    -933.0208429756635269 [Eh]

	 ================> DF-SCS-MP2 Energies <==================
	-----------------------------------------------------------
	 SCS Same-Spin Scale       =       0.3333333333333333 [-]
	 SCS Opposite-Spin Scale   =       1.2000000000000000 [-]
	 SCS Same-Spin Energy      =      -0.2094251542796814 [Eh]
	 SCS Opposite-Spin Energy  =      -2.2446877780442009 [Eh]
	 SCS Correlation Energy    =      -2.4541129323238824 [Eh]
	 SCS Total Energy          =    -932.9761072967783093 [Eh]
	-----------------------------------------------------------

  Dipole Moment: [D]
     X:   -10.3595      Y:    -0.1246      Z:    -0.0612     Total:    10.3605

*** Psi4 exiting successfully. Buy a developer a beer!
