                               Psi4 1.4a3.dev225

  ==> Input File <==

--------------------------------------------------------------------------
#psi4
#
memory 32 gb

molecule  {
-1 1
  S        2.0766110     0.0000000     0.0075520
  O        2.3891470     0.0000020     1.4601760
  O        2.4489030    -1.2526260    -0.7015720
  O        2.4489040     1.2526220    -0.7015770
  C        0.2698850     0.0000000    -0.0431290
  C       -1.8281600    -1.2204390    -0.0177060
  C       -1.8281600     1.2204390    -0.0177050
  C       -0.4294560     1.2077840    -0.0326800
  C       -0.4294570    -1.2077850    -0.0326810
  C       -2.5145250     0.0000000     0.0013750
  C       -2.5812260    -2.5268720     0.0200930
  C       -2.5812240     2.5268730     0.0200930
  H        0.1401440     2.1341360    -0.0762120
  H        0.1401420    -2.1341370    -0.0762130
  H       -3.6064350     0.0000010     0.0012720
  H       -2.0599700    -3.2944780    -0.5602250
  H       -2.7941201    -2.9001092     1.0288233
  H       -3.5901000    -2.4148770    -0.3912530
  H       -2.6805180     2.9020500     1.0455440
  H       -2.0600100     3.2944550    -0.5602960
  H       -3.5901270     2.4148600    -0.3911760
units angstrom
no_reorient  #important for SAPT in psi4, default
symmetry c1  #important for SAPT in psi4, default
}

set PROPERTIES_ORIGIN ["COM"]
properties('MP2/aug-cc-pvtz', properties = ['dipole'])
--------------------------------------------------------------------------

    Molecular point group: c1
  Charge       = -1
  Multiplicity = 1
  Basis Set: AUG-CC-PVTZ
    Blend: AUG-CC-PVTZ
  Basis Set: (AUG-CC-PVTZ AUX)
    Blend: AUG-CC-PVTZ-JKFIT

    Orbital Energies [Eh]
    ---------------------

    Doubly Occupied:

       1A    -92.013956     2A    -20.350858     3A    -20.350833
       4A    -20.349962     5A    -11.134983     6A    -11.134662
       7A    -11.132048     8A    -11.131832     9A    -11.123312
      10A    -11.122811    11A    -11.112342    12A    -11.112258
      13A     -8.974674    14A     -6.660390    15A     -6.659602
      16A     -6.659518    17A     -1.269836    18A     -1.126398
      19A     -1.124538    20A     -1.045078    21A     -0.951922
      22A     -0.922353    23A     -0.840817    24A     -0.820934
      25A     -0.730476    26A     -0.676072    27A     -0.625310
      28A     -0.568262    29A     -0.541604    30A     -0.513781
      31A     -0.484400    32A     -0.475563    33A     -0.474882
      34A     -0.463037    35A     -0.461241    36A     -0.453558
      37A     -0.450695    38A     -0.425578    39A     -0.399634
      40A     -0.372845    41A     -0.371684    42A     -0.331427
      43A     -0.330541    44A     -0.296569    45A     -0.290562
      46A     -0.269551    47A     -0.248802    48A     -0.210496
      49A     -0.209150

  @DF-RHF Final Energy:  -930.53441993978993

   => Energetics <=

    Nuclear Repulsion Energy =            813.9352374670236259
    One-Electron Energy =               -2909.3360440587803168
    Two-Electron Energy =                1164.8663866519668773
    Total Energy =                       -930.5344199397900411
  Basis Set: (AUG-CC-PVTZ AUX)
    Blend: AUG-CC-PVTZ-RI
    Molecular point group: c1

    Geometry (in Angstrom), charge = -1, multiplicity = 1:

       Center              X                  Y                   Z               Mass
    ------------   -----------------  -----------------  -----------------  -----------------
         S            1.970563908235    -0.000010180577     0.007844184295    31.972071174400
         O            2.283099908235    -0.000008180577     1.460468184295    15.994914619570
         O            2.342855908235    -1.252636180577    -0.701279815705    15.994914619570
         O            2.342856908235     1.252611819423    -0.701284815705    15.994914619570
         C            0.163837908235    -0.000010180577    -0.042836815705    12.000000000000
         C           -1.934207091765    -1.220449180577    -0.017413815705    12.000000000000
         C           -1.934207091765     1.220428819423    -0.017412815705    12.000000000000
         C           -0.535503091765     1.207773819423    -0.032387815705    12.000000000000
         C           -0.535504091765    -1.207795180577    -0.032388815705    12.000000000000
         C           -2.620572091765    -0.000010180577     0.001667184295    12.000000000000
         C           -2.687273091765    -2.526882180577     0.020385184295    12.000000000000
         C           -2.687271091765     2.526862819423     0.020385184295    12.000000000000
         H            0.034096908235     2.134125819423    -0.075919815705     1.007825032230
         H            0.034094908235    -2.134147180577    -0.075920815705     1.007825032230
         H           -3.712482091765    -0.000009180577     0.001564184295     1.007825032230
         H           -2.166017091765    -3.294488180577    -0.559932815705     1.007825032230
         H           -2.900167191765    -2.900119380577     1.029115484295     1.007825032230
         H           -3.696147091765    -2.414887180577    -0.390960815705     1.007825032230
         H           -2.786565091765     2.902039819423     1.045836184295     1.007825032230
         H           -2.166057091765     3.294444819423    -0.560003815705     1.007825032230
         H           -3.696174091765     2.414849819423    -0.390883815705     1.007825032230

  Basis Set: AUG-CC-PVTZ
    Blend: AUG-CC-PVTZ
  Basis Set: (AUG-CC-PVTZ AUX)
    Blend: AUG-CC-PVTZ-JKFIT
	 Reference Energy          =    -930.5344199397899274 [Eh]
	 Singles Energy            =      -0.0000000000000000 [Eh]
	 Same-Spin Energy          =      -0.6273158298681336 [Eh]
	 Opposite-Spin Energy      =      -1.8686884242568771 [Eh]
	 Correlation Energy        =      -2.4960042541250109 [Eh]
	 Total Energy              =    -933.0304241939148824 [Eh]

	 ================> DF-SCS-MP2 Energies <==================
	-----------------------------------------------------------
	 SCS Same-Spin Scale       =       0.3333333333333333 [-]
	 SCS Opposite-Spin Scale   =       1.2000000000000000 [-]
	 SCS Same-Spin Energy      =      -0.2091052766227112 [Eh]
	 SCS Opposite-Spin Energy  =      -2.2424261091082522 [Eh]
	 SCS Correlation Energy    =      -2.4515313857309633 [Eh]
	 SCS Total Energy          =    -932.9859513255208867 [Eh]
	-----------------------------------------------------------

  Dipole Moment: [D]
     X:   -10.3214      Y:     0.0275      Z:    -0.0672     Total:    10.3216

*** Psi4 exiting successfully. Buy a developer a beer!
