                               Psi4 1.4a3.dev225

  ==> Input File <==

--------------------------------------------------------------------------
#psi4
#
memory 32 gb

molecule  {
-1 1
  S        2.0766110     0.0000000     0.0075520
  O        2.3891470     0.0000020     1.4601760
  O        2.4489030    -1.2526260    -0.7015720
  O        2.4489040     1.2526220    -0.7015770
  C        0.2698850     0.0000000    -0.0431290
  C       -1.8281600    -1.2204390    -0.0177060
  C       -1.8281600     1.2204390    -0.0177050
  C       -0.4294560     1.2077840    -0.0326800
  C       -0.4294570    -1.2077850    -0.0326810
  C       -2.5145250     0.0000000     0.0013750
  C       -2.5812260    -2.5268720     0.0200930
  C       -2.5812240     2.5268730     0.0200930
  H        0.0354701     1.9639027    -0.0682122
  H        0.1401420    -2.1341370    -0.0762130
  H       -3.6064350     0.0000010     0.0012720
  H       -2.0599700    -3.2944780    -0.5602250
  H       -2.6805960    -2.9020040     1.0455530
  H       -3.5901000    -2.4148770    -0.3912530
  H       -2.6805180     2.9020500     1.0455440
  H       -2.0600100     3.2944550    -0.5602960
  H       -3.5901270     2.4148600    -0.3911760
units angstrom
no_reorient  #important for SAPT in psi4, default
symmetry c1  #important for SAPT in psi4, default
}

set PROPERTIES_ORIGIN ["COM"]
properties('MP2/aug-cc-pvtz', properties = ['dipole'])
--------------------------------------------------------------------------

    Molecular point group: c1
  Charge       = -1
  Multiplicity = 1
  Basis Set: AUG-CC-PVTZ
    Blend: AUG-CC-PVTZ
  Basis Set: (AUG-CC-PVTZ AUX)
    Blend: AUG-CC-PVTZ-JKFIT

    Orbital Energies [Eh]
    ---------------------

    Doubly Occupied:

       1A    -92.013810     2A    -20.350856     3A    -20.350639
       4A    -20.349883     5A    -11.134454     6A    -11.133835
       7A    -11.132436     8A    -11.131767     9A    -11.122236
      10A    -11.121641    11A    -11.110895    12A    -11.089249
      13A     -8.974521    14A     -6.660229    15A     -6.659453
      16A     -6.659370    17A     -1.269726    18A     -1.126253
      19A     -1.124452    20A     -1.046089    21A     -0.954883
      22A     -0.924082    23A     -0.842257    24A     -0.828997
      25A     -0.732671    26A     -0.685675    27A     -0.625509
      28A     -0.589008    29A     -0.541337    30A     -0.516473
      31A     -0.485541    32A     -0.479723    33A     -0.475446
      34A     -0.463939    35A     -0.463098    36A     -0.460636
      37A     -0.452948    38A     -0.427345    39A     -0.401881
      40A     -0.376921    41A     -0.371394    42A     -0.331338
      43A     -0.330561    44A     -0.296420    45A     -0.290695
      46A     -0.269121    47A     -0.248686    48A     -0.210000
      49A     -0.208556

  @DF-RHF Final Energy:  -930.50160072763174

   => Energetics <=

    Nuclear Repulsion Energy =            815.2436688989779441
    One-Electron Energy =               -2911.7966702334824731
    Two-Electron Energy =                1166.0514006068729032
    Total Energy =                       -930.5016007276317396
  Basis Set: (AUG-CC-PVTZ AUX)
    Blend: AUG-CC-PVTZ-RI
    Molecular point group: c1

    Geometry (in Angstrom), charge = -1, multiplicity = 1:

       Center              X                  Y                   Z               Mass
    ------------   -----------------  -----------------  -----------------  -----------------
         S            1.970515702073     0.000927384117     0.007709485160    31.972071174400
         O            2.283051702073     0.000929384117     1.460333485160    15.994914619570
         O            2.342807702073    -1.251698615883    -0.701414514840    15.994914619570
         O            2.342808702073     1.253549384117    -0.701419514840    15.994914619570
         C            0.163789702073     0.000927384117    -0.042971514840    12.000000000000
         C           -1.934255297927    -1.219511615883    -0.017548514840    12.000000000000
         C           -1.934255297927     1.221366384117    -0.017547514840    12.000000000000
         C           -0.535551297927     1.208711384117    -0.032522514840    12.000000000000
         C           -0.535552297927    -1.206857615883    -0.032523514840    12.000000000000
         C           -2.620620297927     0.000927384117     0.001532485160    12.000000000000
         C           -2.687321297927    -2.525944615883     0.020250485160    12.000000000000
         C           -2.687319297927     2.527800384117     0.020250485160    12.000000000000
         H           -0.070625197927     1.964830084117    -0.068054714840     1.007825032230
         H            0.034046702073    -2.133209615883    -0.076055514840     1.007825032230
         H           -3.712530297927     0.000928384117     0.001429485160     1.007825032230
         H           -2.166065297927    -3.293550615883    -0.560067514840     1.007825032230
         H           -2.786691297927    -2.901076615883     1.045710485160     1.007825032230
         H           -3.696195297927    -2.413949615883    -0.391095514840     1.007825032230
         H           -2.786613297927     2.902977384117     1.045701485160     1.007825032230
         H           -2.166105297927     3.295382384117    -0.560138514840     1.007825032230
         H           -3.696222297927     2.415787384117    -0.391018514840     1.007825032230

  Basis Set: AUG-CC-PVTZ
    Blend: AUG-CC-PVTZ
  Basis Set: (AUG-CC-PVTZ AUX)
    Blend: AUG-CC-PVTZ-JKFIT
	 Reference Energy          =    -930.5016007276317396 [Eh]
	 Singles Energy            =      -0.0000000000000000 [Eh]
	 Same-Spin Energy          =      -0.6267501330818918 [Eh]
	 Opposite-Spin Energy      =      -1.8678479175861038 [Eh]
	 Correlation Energy        =      -2.4945980506679954 [Eh]
	 Total Energy              =    -932.9961987782996857 [Eh]

	 ================> DF-SCS-MP2 Energies <==================
	-----------------------------------------------------------
	 SCS Same-Spin Scale       =       0.3333333333333333 [-]
	 SCS Opposite-Spin Scale   =       1.2000000000000000 [-]
	 SCS Same-Spin Energy      =      -0.2089167110272973 [Eh]
	 SCS Opposite-Spin Energy  =      -2.2414175011033244 [Eh]
	 SCS Correlation Energy    =      -2.4503342121306217 [Eh]
	 SCS Total Energy          =    -932.9519349397623955 [Eh]
	-----------------------------------------------------------

  Dipole Moment: [D]
     X:   -10.3414      Y:     0.0131      Z:    -0.0618     Total:    10.3416

*** Psi4 exiting successfully. Buy a developer a beer!
