                               Psi4 1.4a3.dev225

  ==> Input File <==

--------------------------------------------------------------------------
#psi4
#
memory 32 gb

molecule  {
-1 1
  S        2.0766110     0.0000000     0.0075520
  O        2.4101809     0.0000021     1.5579388
  O        2.4489030    -1.2526260    -0.7015720
  O        2.4489040     1.2526220    -0.7015770
  C        0.2698850     0.0000000    -0.0431290
  C       -1.8281600    -1.2204390    -0.0177060
  C       -1.8281600     1.2204390    -0.0177050
  C       -0.4294560     1.2077840    -0.0326800
  C       -0.4294570    -1.2077850    -0.0326810
  C       -2.5145250     0.0000000     0.0013750
  C       -2.5812260    -2.5268720     0.0200930
  C       -2.5812240     2.5268730     0.0200930
  H        0.1401440     2.1341360    -0.0762120
  H        0.1401420    -2.1341370    -0.0762130
  H       -3.6064350     0.0000010     0.0012720
  H       -2.0599700    -3.2944780    -0.5602250
  H       -2.6805960    -2.9020040     1.0455530
  H       -3.5901000    -2.4148770    -0.3912530
  H       -2.6805180     2.9020500     1.0455440
  H       -2.0600100     3.2944550    -0.5602960
  H       -3.5901270     2.4148600    -0.3911760
units angstrom
no_reorient  #important for SAPT in psi4, default
symmetry c1  #important for SAPT in psi4, default
}

set PROPERTIES_ORIGIN ["COM"]
properties('MP2/aug-cc-pvtz', properties = ['dipole'])
--------------------------------------------------------------------------

    Molecular point group: c1
  Charge       = -1
  Multiplicity = 1
  Basis Set: AUG-CC-PVTZ
    Blend: AUG-CC-PVTZ
  Basis Set: (AUG-CC-PVTZ AUX)
    Blend: AUG-CC-PVTZ-JKFIT

    Orbital Energies [Eh]
    ---------------------

    Doubly Occupied:

       1A    -92.020778     2A    -20.358732     3A    -20.358709
       4A    -20.349230     5A    -11.136707     6A    -11.136659
       7A    -11.133427     8A    -11.133427     9A    -11.128357
      10A    -11.125102    11A    -11.115184    12A    -11.115119
      13A     -8.981039    14A     -6.666646    15A     -6.665910
      16A     -6.665294    17A     -1.257434    18A     -1.132253
      19A     -1.089494    20A     -1.047430    21A     -0.954147
      22A     -0.925033    23A     -0.842659    24A     -0.822643
      25A     -0.734837    26A     -0.677956    27A     -0.630514
      28A     -0.570260    29A     -0.543706    30A     -0.511409
      31A     -0.486672    32A     -0.476734    33A     -0.476696
      34A     -0.459679    35A     -0.457926    36A     -0.456058
      37A     -0.452532    38A     -0.427884    39A     -0.399298
      40A     -0.374514    41A     -0.372904    42A     -0.325931
      43A     -0.324902    44A     -0.294233    45A     -0.285131
      46A     -0.267050    47A     -0.248233    48A     -0.212804
      49A     -0.210862

  @DF-RHF Final Energy:  -930.51857701698452

   => Energetics <=

    Nuclear Repulsion Energy =            809.4590653288773865
    One-Electron Energy =               -2900.2750100930875305
    Two-Electron Energy =                1160.2973677472255076
    Total Energy =                       -930.5185770169846364
  Basis Set: (AUG-CC-PVTZ AUX)
    Blend: AUG-CC-PVTZ-RI
    Molecular point group: c1

    Geometry (in Angstrom), charge = -1, multiplicity = 1:

       Center              X                  Y                   Z               Mass
    ------------   -----------------  -----------------  -----------------  -----------------
         S            1.968127251537     0.000000131567    -0.000698170046    31.972071174400
         O            2.301697151537     0.000002231567     1.549688629954    15.994914619570
         O            2.340419251537    -1.252625868433    -0.709822170046    15.994914619570
         O            2.340420251537     1.252622131567    -0.709827170046    15.994914619570
         C            0.161401251537     0.000000131567    -0.051379170046    12.000000000000
         C           -1.936643748463    -1.220438868433    -0.025956170046    12.000000000000
         C           -1.936643748463     1.220439131567    -0.025955170046    12.000000000000
         C           -0.537939748463     1.207784131567    -0.040930170046    12.000000000000
         C           -0.537940748463    -1.207784868433    -0.040931170046    12.000000000000
         C           -2.623008748463     0.000000131567    -0.006875170046    12.000000000000
         C           -2.689709748463    -2.526871868433     0.011842829954    12.000000000000
         C           -2.689707748463     2.526873131567     0.011842829954    12.000000000000
         H            0.031660251537     2.134136131567    -0.084462170046     1.007825032230
         H            0.031658251537    -2.134136868433    -0.084463170046     1.007825032230
         H           -3.714918748463     0.000001131567    -0.006978170046     1.007825032230
         H           -2.168453748463    -3.294477868433    -0.568475170046     1.007825032230
         H           -2.789079748463    -2.902003868433     1.037302829954     1.007825032230
         H           -3.698583748463    -2.414876868433    -0.399503170046     1.007825032230
         H           -2.789001748463     2.902050131567     1.037293829954     1.007825032230
         H           -2.168493748463     3.294455131567    -0.568546170046     1.007825032230
         H           -3.698610748463     2.414860131567    -0.399426170046     1.007825032230

  Basis Set: AUG-CC-PVTZ
    Blend: AUG-CC-PVTZ
  Basis Set: (AUG-CC-PVTZ AUX)
    Blend: AUG-CC-PVTZ-JKFIT
	 Reference Energy          =    -930.5185770169845227 [Eh]
	 Singles Energy            =      -0.0000000000000000 [Eh]
	 Same-Spin Energy          =      -0.6289718388514938 [Eh]
	 Opposite-Spin Energy      =      -1.8736223706544295 [Eh]
	 Correlation Energy        =      -2.5025942095059230 [Eh]
	 Total Energy              =    -933.0211712264904236 [Eh]

	 ================> DF-SCS-MP2 Energies <==================
	-----------------------------------------------------------
	 SCS Same-Spin Scale       =       0.3333333333333333 [-]
	 SCS Opposite-Spin Scale   =       1.2000000000000000 [-]
	 SCS Same-Spin Energy      =      -0.2096572796171646 [Eh]
	 SCS Opposite-Spin Energy  =      -2.2483468447853152 [Eh]
	 SCS Correlation Energy    =      -2.4580041244024797 [Eh]
	 SCS Total Energy          =    -932.9765811413869869 [Eh]
	-----------------------------------------------------------

  Dipole Moment: [D]
     X:   -10.6004      Y:     0.0000      Z:    -0.6815     Total:    10.6223

*** Psi4 exiting successfully. Buy a developer a beer!
