                               Psi4 1.4a3.dev225

  ==> Input File <==

--------------------------------------------------------------------------
#psi4
#
memory 32 gb

molecule  {
-1 1
  S        2.0766110     0.0000000     0.0075520
  O        2.3891470     0.0000020     1.4601760
  O        2.4489030    -1.2526260    -0.7015720
  O        2.4989843     1.4211228    -0.7969680
  C        0.2698850     0.0000000    -0.0431290
  C       -1.8281600    -1.2204390    -0.0177060
  C       -1.8281600     1.2204390    -0.0177050
  C       -0.4294560     1.2077840    -0.0326800
  C       -0.4294570    -1.2077850    -0.0326810
  C       -2.5145250     0.0000000     0.0013750
  C       -2.5812260    -2.5268720     0.0200930
  C       -2.5812240     2.5268730     0.0200930
  H        0.1401440     2.1341360    -0.0762120
  H        0.1401420    -2.1341370    -0.0762130
  H       -3.6064350     0.0000010     0.0012720
  H       -2.0599700    -3.2944780    -0.5602250
  H       -2.6805960    -2.9020040     1.0455530
  H       -3.5901000    -2.4148770    -0.3912530
  H       -2.6805180     2.9020500     1.0455440
  H       -2.0600100     3.2944550    -0.5602960
  H       -3.5901270     2.4148600    -0.3911760
units angstrom
no_reorient  #important for SAPT in psi4, default
symmetry c1  #important for SAPT in psi4, default
}

set PROPERTIES_ORIGIN ["COM"]
properties('MP2/aug-cc-pvtz', properties = ['dipole'])
--------------------------------------------------------------------------

    Molecular point group: c1
  Charge       = -1
  Multiplicity = 1
  Basis Set: AUG-CC-PVTZ
    Blend: AUG-CC-PVTZ
  Basis Set: (AUG-CC-PVTZ AUX)
    Blend: AUG-CC-PVTZ-JKFIT

    Orbital Energies [Eh]
    ---------------------

    Doubly Occupied:

       1A    -92.023223     2A    -20.364964     3A    -20.364154
       4A    -20.351935     5A    -11.138556     6A    -11.137511
       7A    -11.135078     8A    -11.133604     9A    -11.132221
      10A    -11.126784    11A    -11.118307    12A    -11.115783
      13A     -8.984246    14A     -6.669564    15A     -6.668810
      16A     -6.668168    17A     -1.253649    18A     -1.135630
      19A     -1.059106    20A     -1.048061    21A     -0.955390
      22A     -0.927050    23A     -0.843880    24A     -0.824009
      25A     -0.739028    26A     -0.679436    27A     -0.635448
      28A     -0.570820    29A     -0.545483    30A     -0.511617
      31A     -0.487683    32A     -0.477659    33A     -0.476889
      34A     -0.459421    35A     -0.456814    36A     -0.456511
      37A     -0.451522    38A     -0.428118    39A     -0.402108
      40A     -0.375943    41A     -0.375156    42A     -0.323213
      43A     -0.317813    44A     -0.300058    45A     -0.269754
      46A     -0.264188    47A     -0.248215    48A     -0.215910
      49A     -0.212044

  @DF-RHF Final Energy:  -930.49365295029111

   => Energetics <=

    Nuclear Repulsion Energy =            805.3457639249520525
    One-Electron Energy =               -2891.9577635449882109
    Two-Electron Energy =                1156.1183466697448239
    Total Energy =                       -930.4936529502911071
  Basis Set: (AUG-CC-PVTZ AUX)
    Blend: AUG-CC-PVTZ-RI
    Molecular point group: c1

    Geometry (in Angstrom), charge = -1, multiplicity = 1:

       Center              X                  Y                   Z               Mass
    ------------   -----------------  -----------------  -----------------  -----------------
         S            1.965616298625    -0.014566125300     0.015999255339    31.972071174400
         O            2.278152298625    -0.014564125300     1.468623255339    15.994914619570
         O            2.337908298625    -1.267192125300    -0.693124744661    15.994914619570
         O            2.387989598625     1.406556674700    -0.788520744661    15.994914619570
         C            0.158890298625    -0.014566125300    -0.034681744661    12.000000000000
         C           -1.939154701375    -1.235005125300    -0.009258744661    12.000000000000
         C           -1.939154701375     1.205872874700    -0.009257744661    12.000000000000
         C           -0.540450701375     1.193217874700    -0.024232744661    12.000000000000
         C           -0.540451701375    -1.222351125300    -0.024233744661    12.000000000000
         C           -2.625519701375    -0.014566125300     0.009822255339    12.000000000000
         C           -2.692220701375    -2.541438125300     0.028540255339    12.000000000000
         C           -2.692218701375     2.512306874700     0.028540255339    12.000000000000
         H            0.029149298625     2.119569874700    -0.067764744661     1.007825032230
         H            0.029147298625    -2.148703125300    -0.067765744661     1.007825032230
         H           -3.717429701375    -0.014565125300     0.009719255339     1.007825032230
         H           -2.170964701375    -3.309044125300    -0.551777744661     1.007825032230
         H           -2.791590701375    -2.916570125300     1.054000255339     1.007825032230
         H           -3.701094701375    -2.429443125300    -0.382805744661     1.007825032230
         H           -2.791512701375     2.887483874700     1.053991255339     1.007825032230
         H           -2.171004701375     3.279888874700    -0.551848744661     1.007825032230
         H           -3.701121701375     2.400293874700    -0.382728744661     1.007825032230

  Basis Set: AUG-CC-PVTZ
    Blend: AUG-CC-PVTZ
  Basis Set: (AUG-CC-PVTZ AUX)
    Blend: AUG-CC-PVTZ-JKFIT
	 Reference Energy          =    -930.4936529502911071 [Eh]
	 Singles Energy            =      -0.0000000000000000 [Eh]
	 Same-Spin Energy          =      -0.6298975650624289 [Eh]
	 Opposite-Spin Energy      =      -1.8775669928410934 [Eh]
	 Correlation Energy        =      -2.5074645579035222 [Eh]
	 Total Energy              =    -933.0011175081946249 [Eh]

	 ================> DF-SCS-MP2 Energies <==================
	-----------------------------------------------------------
	 SCS Same-Spin Scale       =       0.3333333333333333 [-]
	 SCS Opposite-Spin Scale   =       1.2000000000000000 [-]
	 SCS Same-Spin Energy      =      -0.2099658550208096 [Eh]
	 SCS Opposite-Spin Energy  =      -2.2530803914093118 [Eh]
	 SCS Correlation Energy    =      -2.4630462464301215 [Eh]
	 SCS Total Energy          =    -932.9566991967212743 [Eh]
	-----------------------------------------------------------

  Dipole Moment: [D]
     X:   -10.9278      Y:    -1.0151      Z:     0.5393     Total:    10.9880

*** Psi4 exiting successfully. Buy a developer a beer!
