                               Psi4 1.4a3.dev225

  ==> Input File <==

--------------------------------------------------------------------------
#psi4
#
memory 32 gb

molecule  {
-1 1
  S        2.0766110     0.0000000     0.0075520
  O        2.3891470     0.0000020     1.4601760
  O        2.4489030    -1.2526260    -0.7015720
  O        2.4489040     1.2526220    -0.7015770
  C        0.2698850     0.0000000    -0.0431290
  C       -1.7447313    -1.1695692    -0.0200252
  C       -1.8281600     1.2204390    -0.0177050
  C       -0.4294560     1.2077840    -0.0326800
  C       -0.4294570    -1.2077850    -0.0326810
  C       -2.5145250     0.0000000     0.0013750
  C       -2.5812260    -2.5268720     0.0200930
  C       -2.5812240     2.5268730     0.0200930
  H        0.1401440     2.1341360    -0.0762120
  H        0.1401420    -2.1341370    -0.0762130
  H       -3.6064350     0.0000010     0.0012720
  H       -2.0599700    -3.2944780    -0.5602250
  H       -2.6805960    -2.9020040     1.0455530
  H       -3.5901000    -2.4148770    -0.3912530
  H       -2.6805180     2.9020500     1.0455440
  H       -2.0600100     3.2944550    -0.5602960
  H       -3.5901270     2.4148600    -0.3911760
units angstrom
no_reorient  #important for SAPT in psi4, default
symmetry c1  #important for SAPT in psi4, default
}

set PROPERTIES_ORIGIN ["COM"]
properties('MP2/aug-cc-pvtz', properties = ['dipole'])
--------------------------------------------------------------------------

    Molecular point group: c1
  Charge       = -1
  Multiplicity = 1
  Basis Set: AUG-CC-PVTZ
    Blend: AUG-CC-PVTZ
  Basis Set: (AUG-CC-PVTZ AUX)
    Blend: AUG-CC-PVTZ-JKFIT

    Orbital Energies [Eh]
    ---------------------

    Doubly Occupied:

       1A    -92.014254     2A    -20.351776     3A    -20.350940
       4A    -20.350661     5A    -11.135459     6A    -11.132114
       7A    -11.131824     8A    -11.129425     9A    -11.124782
      10A    -11.121809    11A    -11.110757    12A    -11.102644
      13A     -8.975020    14A     -6.660727    15A     -6.659947
      16A     -6.659866    17A     -1.270396    18A     -1.126933
      19A     -1.125119    20A     -1.052229    21A     -0.952264
      22A     -0.917239    23A     -0.838318    24A     -0.823382
      25A     -0.736918    26A     -0.671329    27A     -0.625964
      28A     -0.572240    29A     -0.543043    30A     -0.513453
      31A     -0.483437    32A     -0.470657    33A     -0.469539
      34A     -0.463205    35A     -0.461371    36A     -0.453735
      37A     -0.447664    38A     -0.428666    39A     -0.409362
      40A     -0.378984    41A     -0.354012    42A     -0.331764
      43A     -0.331266    44A     -0.297413    45A     -0.291163
      46A     -0.269738    47A     -0.249355    48A     -0.219990
      49A     -0.208406

  @DF-RHF Final Energy:  -930.52566947089713

   => Energetics <=

    Nuclear Repulsion Energy =            815.4870552510125208
    One-Electron Energy =               -2912.4243319449537921
    Two-Electron Energy =                1166.4116072230442569
    Total Energy =                       -930.5256694708971281
  Basis Set: (AUG-CC-PVTZ AUX)
    Blend: AUG-CC-PVTZ-RI
    Molecular point group: c1

    Geometry (in Angstrom), charge = -1, multiplicity = 1:

       Center              X                  Y                   Z               Mass
    ------------   -----------------  -----------------  -----------------  -----------------
         S            1.964534759079    -0.003299036704     0.007903471725    31.972071174400
         O            2.277070759079    -0.003297036704     1.460527471725    15.994914619570
         O            2.336826759079    -1.255925036704    -0.701220528275    15.994914619570
         O            2.336827759079     1.249322963296    -0.701225528275    15.994914619570
         C            0.157808759079    -0.003299036704    -0.042777528275    12.000000000000
         C           -1.856807540921    -1.172868236704    -0.019673728275    12.000000000000
         C           -1.940236240921     1.217139963296    -0.017353528275    12.000000000000
         C           -0.541532240921     1.204484963296    -0.032328528275    12.000000000000
         C           -0.541533240921    -1.211084036704    -0.032329528275    12.000000000000
         C           -2.626601240921    -0.003299036704     0.001726471725    12.000000000000
         C           -2.693302240921    -2.530171036704     0.020444471725    12.000000000000
         C           -2.693300240921     2.523573963296     0.020444471725    12.000000000000
         H            0.028067759079     2.130836963296    -0.075860528275     1.007825032230
         H            0.028065759079    -2.137436036704    -0.075861528275     1.007825032230
         H           -3.718511240921    -0.003298036704     0.001623471725     1.007825032230
         H           -2.172046240921    -3.297777036704    -0.559873528275     1.007825032230
         H           -2.792672240921    -2.905303036704     1.045904471725     1.007825032230
         H           -3.702176240921    -2.418176036704    -0.390901528275     1.007825032230
         H           -2.792594240921     2.898750963296     1.045895471725     1.007825032230
         H           -2.172086240921     3.291155963296    -0.559944528275     1.007825032230
         H           -3.702203240921     2.411560963296    -0.390824528275     1.007825032230

  Basis Set: AUG-CC-PVTZ
    Blend: AUG-CC-PVTZ
  Basis Set: (AUG-CC-PVTZ AUX)
    Blend: AUG-CC-PVTZ-JKFIT
	 Reference Energy          =    -930.5256694708971281 [Eh]
	 Singles Energy            =      -0.0000000000000000 [Eh]
	 Same-Spin Energy          =      -0.6268329731978641 [Eh]
	 Opposite-Spin Energy      =      -1.8682231593222085 [Eh]
	 Correlation Energy        =      -2.4950561325200726 [Eh]
	 Total Energy              =    -933.0207256034171905 [Eh]

	 ================> DF-SCS-MP2 Energies <==================
	-----------------------------------------------------------
	 SCS Same-Spin Scale       =       0.3333333333333333 [-]
	 SCS Opposite-Spin Scale   =       1.2000000000000000 [-]
	 SCS Same-Spin Energy      =      -0.2089443243992880 [Eh]
	 SCS Opposite-Spin Energy  =      -2.2418677911866500 [Eh]
	 SCS Correlation Energy    =      -2.4508121155859381 [Eh]
	 SCS Total Energy          =    -932.9764815864830325 [Eh]
	-----------------------------------------------------------

  Dipole Moment: [D]
     X:   -10.2116      Y:     0.1477      Z:    -0.0736     Total:    10.2129

*** Psi4 exiting successfully. Buy a developer a beer!
