                               Psi4 1.4a3.dev225

  ==> Input File <==

--------------------------------------------------------------------------
#psi4
#
memory 32 gb

molecule  {
-1 1
  S        2.0766110     0.0000000     0.0075520
  O        2.3891470     0.0000020     1.4601760
  O        2.4489030    -1.2526260    -0.7015720
  O        2.4489040     1.2526220    -0.7015770
  C        0.2698850     0.0000000    -0.0431290
  C       -1.9594413    -1.2855257    -0.0140565
  C       -1.8281600     1.2204390    -0.0177050
  C       -0.4294560     1.2077840    -0.0326800
  C       -0.4294570    -1.2077850    -0.0326810
  C       -2.5145250     0.0000000     0.0013750
  C       -2.5812260    -2.5268720     0.0200930
  C       -2.5812240     2.5268730     0.0200930
  H        0.1401440     2.1341360    -0.0762120
  H        0.1401420    -2.1341370    -0.0762130
  H       -3.6064350     0.0000010     0.0012720
  H       -2.0599700    -3.2944780    -0.5602250
  H       -2.6805960    -2.9020040     1.0455530
  H       -3.5901000    -2.4148770    -0.3912530
  H       -2.6805180     2.9020500     1.0455440
  H       -2.0600100     3.2944550    -0.5602960
  H       -3.5901270     2.4148600    -0.3911760
units angstrom
no_reorient  #important for SAPT in psi4, default
symmetry c1  #important for SAPT in psi4, default
}

set PROPERTIES_ORIGIN ["COM"]
properties('MP2/aug-cc-pvtz', properties = ['dipole'])
--------------------------------------------------------------------------

    Molecular point group: c1
  Charge       = -1
  Multiplicity = 1
  Basis Set: AUG-CC-PVTZ
    Blend: AUG-CC-PVTZ
  Basis Set: (AUG-CC-PVTZ AUX)
    Blend: AUG-CC-PVTZ-JKFIT

    Orbital Energies [Eh]
    ---------------------

    Doubly Occupied:

       1A    -92.013395     2A    -20.350655     3A    -20.349529
       4A    -20.349039     5A    -11.142453     6A    -11.133567
       7A    -11.131619     8A    -11.130349     9A    -11.125116
      10A    -11.123656    11A    -11.121075    12A    -11.113659
      13A     -8.974069    14A     -6.659793    15A     -6.658995
      16A     -6.658906    17A     -1.269025    18A     -1.125679
      19A     -1.123661    20A     -1.039522    21A     -0.966653
      22A     -0.923097    23A     -0.847160    24A     -0.813315
      25A     -0.719548    26A     -0.680900    27A     -0.622658
      28A     -0.562335    29A     -0.541868    30A     -0.519097
      31A     -0.496986    32A     -0.494417    33A     -0.477933
      34A     -0.462879    35A     -0.461410    36A     -0.456908
      37A     -0.447084    38A     -0.423851    39A     -0.390754
      40A     -0.368926    41A     -0.363348    42A     -0.330686
      43A     -0.329359    44A     -0.295486    45A     -0.289435
      46A     -0.267154    47A     -0.248022    48A     -0.214077
      49A     -0.193457

  @DF-RHF Final Energy:  -930.50685459545218

   => Energetics <=

    Nuclear Repulsion Energy =            812.2428023385552933
    One-Electron Energy =               -2905.8941862103406493
    Two-Electron Energy =                1163.1445292763335146
    Total Energy =                       -930.5068545954520687
  Basis Set: (AUG-CC-PVTZ AUX)
    Blend: AUG-CC-PVTZ-RI
    Molecular point group: c1

    Geometry (in Angstrom), charge = -1, multiplicity = 1:

       Center              X                  Y                   Z               Mass
    ------------   -----------------  -----------------  -----------------  -----------------
         S            1.978459843816     0.004221358658     0.007516369804    31.972071174400
         O            2.290995843816     0.004223358658     1.460140369804    15.994914619570
         O            2.350751843816    -1.248404641342    -0.701607630196    15.994914619570
         O            2.350752843816     1.256843358658    -0.701612630196    15.994914619570
         C            0.171733843816     0.004221358658    -0.043164630196    12.000000000000
         C           -2.057592456184    -1.281304341342    -0.014092130196    12.000000000000
         C           -1.926311156184     1.224660358658    -0.017740630196    12.000000000000
         C           -0.527607156184     1.212005358658    -0.032715630196    12.000000000000
         C           -0.527608156184    -1.203563641342    -0.032716630196    12.000000000000
         C           -2.612676156184     0.004221358658     0.001339369804    12.000000000000
         C           -2.679377156184    -2.522650641342     0.020057369804    12.000000000000
         C           -2.679375156184     2.531094358658     0.020057369804    12.000000000000
         H            0.041992843816     2.138357358658    -0.076247630196     1.007825032230
         H            0.041990843816    -2.129915641342    -0.076248630196     1.007825032230
         H           -3.704586156184     0.004222358658     0.001236369804     1.007825032230
         H           -2.158121156184    -3.290256641342    -0.560260630196     1.007825032230
         H           -2.778747156184    -2.897782641342     1.045517369804     1.007825032230
         H           -3.688251156184    -2.410655641342    -0.391288630196     1.007825032230
         H           -2.778669156184     2.906271358658     1.045508369804     1.007825032230
         H           -2.158161156184     3.298676358658    -0.560331630196     1.007825032230
         H           -3.688278156184     2.419081358658    -0.391211630196     1.007825032230

  Basis Set: AUG-CC-PVTZ
    Blend: AUG-CC-PVTZ
  Basis Set: (AUG-CC-PVTZ AUX)
    Blend: AUG-CC-PVTZ-JKFIT
	 Reference Energy          =    -930.5068545954521824 [Eh]
	 Singles Energy            =      -0.0000000000000000 [Eh]
	 Same-Spin Energy          =      -0.6289702735636812 [Eh]
	 Opposite-Spin Energy      =      -1.8720584796782196 [Eh]
	 Correlation Energy        =      -2.5010287532419007 [Eh]
	 Total Energy              =    -933.0078833486941221 [Eh]

	 ================> DF-SCS-MP2 Energies <==================
	-----------------------------------------------------------
	 SCS Same-Spin Scale       =       0.3333333333333333 [-]
	 SCS Opposite-Spin Scale   =       1.2000000000000000 [-]
	 SCS Same-Spin Energy      =      -0.2096567578545604 [Eh]
	 SCS Opposite-Spin Energy  =      -2.2464701756138634 [Eh]
	 SCS Correlation Energy    =      -2.4561269334684237 [Eh]
	 SCS Total Energy          =    -932.9629815289206363 [Eh]
	-----------------------------------------------------------

  Dipole Moment: [D]
     X:   -10.3868      Y:    -0.1833      Z:    -0.0571     Total:    10.3886

*** Psi4 exiting successfully. Buy a developer a beer!
