                               Psi4 1.4a3.dev225

  ==> Input File <==

--------------------------------------------------------------------------
#psi4
#
memory 32 gb

molecule  {
-1 1
  S        2.0766110     0.0000000     0.0075520
  O        2.3849402     0.0000020     1.4406234
  O        2.4489030    -1.2526260    -0.7015720
  O        2.4489040     1.2526220    -0.7015770
  C        0.2698850     0.0000000    -0.0431290
  C       -1.8281600    -1.2204390    -0.0177060
  C       -1.8281600     1.2204390    -0.0177050
  C       -0.4294560     1.2077840    -0.0326800
  C       -0.4294570    -1.2077850    -0.0326810
  C       -2.5145250     0.0000000     0.0013750
  C       -2.5812260    -2.5268720     0.0200930
  C       -2.5812240     2.5268730     0.0200930
  H        0.1401440     2.1341360    -0.0762120
  H        0.1401420    -2.1341370    -0.0762130
  H       -3.6064350     0.0000010     0.0012720
  H       -2.0599700    -3.2944780    -0.5602250
  H       -2.6805960    -2.9020040     1.0455530
  H       -3.5901000    -2.4148770    -0.3912530
  H       -2.6805180     2.9020500     1.0455440
  H       -2.0600100     3.2944550    -0.5602960
  H       -3.5901270     2.4148600    -0.3911760
units angstrom
no_reorient  #important for SAPT in psi4, default
symmetry c1  #important for SAPT in psi4, default
}

set PROPERTIES_ORIGIN ["COM"]
properties('MP2/aug-cc-pvtz', properties = ['dipole'])
--------------------------------------------------------------------------

    Molecular point group: c1
  Charge       = -1
  Multiplicity = 1
  Basis Set: AUG-CC-PVTZ
    Blend: AUG-CC-PVTZ
  Basis Set: (AUG-CC-PVTZ AUX)
    Blend: AUG-CC-PVTZ-JKFIT

    Orbital Energies [Eh]
    ---------------------

    Doubly Occupied:

       1A    -92.011859     2A    -20.350182     3A    -20.349018
       4A    -20.348995     5A    -11.134045     6A    -11.134001
       7A    -11.131571     8A    -11.131570     9A    -11.122071
      10A    -11.121860    11A    -11.111191    12A    -11.111114
      13A     -8.972892    14A     -6.658594    15A     -6.657885
      16A     -6.657792    17A     -1.274149    18A     -1.130689
      19A     -1.125018    20A     -1.044370    21A     -0.951621
      22A     -0.921578    23A     -0.840313    24A     -0.819836
      25A     -0.729174    26A     -0.675038    27A     -0.623494
      28A     -0.567300    29A     -0.540787    30A     -0.514271
      31A     -0.484772    32A     -0.474950    33A     -0.474921
      34A     -0.464286    35A     -0.462592    36A     -0.454529
      37A     -0.449804    38A     -0.426028    39A     -0.399519
      40A     -0.371755    41A     -0.371609    42A     -0.332796
      43A     -0.331579    44A     -0.298695    45A     -0.289554
      46A     -0.269474    47A     -0.248559    48A     -0.209904
      49A     -0.208232

  @DF-RHF Final Energy:  -930.53741233054097

   => Energetics <=

    Nuclear Repulsion Energy =            815.0350618786502537
    One-Electron Energy =               -2911.5732737807534249
    Two-Electron Energy =                1166.0007995715623110
    Total Energy =                       -930.5374123305409739
  Basis Set: (AUG-CC-PVTZ AUX)
    Blend: AUG-CC-PVTZ-RI
    Molecular point group: c1

    Geometry (in Angstrom), charge = -1, multiplicity = 1:

       Center              X                  Y                   Z               Mass
    ------------   -----------------  -----------------  -----------------  -----------------
         S            1.970309215883     0.000000140211     0.009443308600    31.972071174400
         O            2.278638415883     0.000002140211     1.442514708600    15.994914619570
         O            2.342601215883    -1.252625859789    -0.699680691400    15.994914619570
         O            2.342602215883     1.252622140211    -0.699685691400    15.994914619570
         C            0.163583215883     0.000000140211    -0.041237691400    12.000000000000
         C           -1.934461784117    -1.220438859789    -0.015814691400    12.000000000000
         C           -1.934461784117     1.220439140211    -0.015813691400    12.000000000000
         C           -0.535757784117     1.207784140211    -0.030788691400    12.000000000000
         C           -0.535758784117    -1.207784859789    -0.030789691400    12.000000000000
         C           -2.620826784117     0.000000140211     0.003266308600    12.000000000000
         C           -2.687527784117    -2.526871859789     0.021984308600    12.000000000000
         C           -2.687525784117     2.526873140211     0.021984308600    12.000000000000
         H            0.033842215883     2.134136140211    -0.074320691400     1.007825032230
         H            0.033840215883    -2.134136859789    -0.074321691400     1.007825032230
         H           -3.712736784117     0.000001140211     0.003163308600     1.007825032230
         H           -2.166271784117    -3.294477859789    -0.558333691400     1.007825032230
         H           -2.786897784117    -2.902003859789     1.047444308600     1.007825032230
         H           -3.696401784117    -2.414876859789    -0.389361691400     1.007825032230
         H           -2.786819784117     2.902050140211     1.047435308600     1.007825032230
         H           -2.166311784117     3.294455140211    -0.558404691400     1.007825032230
         H           -3.696428784117     2.414860140211    -0.389284691400     1.007825032230

  Basis Set: AUG-CC-PVTZ
    Blend: AUG-CC-PVTZ
  Basis Set: (AUG-CC-PVTZ AUX)
    Blend: AUG-CC-PVTZ-JKFIT
	 Reference Energy          =    -930.5374123305409739 [Eh]
	 Singles Energy            =      -0.0000000000000000 [Eh]
	 Same-Spin Energy          =      -0.6268725530604869 [Eh]
	 Opposite-Spin Energy      =      -1.8675823473731135 [Eh]
	 Correlation Energy        =      -2.4944549004336003 [Eh]
	 Total Energy              =    -933.0318672309746262 [Eh]

	 ================> DF-SCS-MP2 Energies <==================
	-----------------------------------------------------------
	 SCS Same-Spin Scale       =       0.3333333333333333 [-]
	 SCS Opposite-Spin Scale   =       1.2000000000000000 [-]
	 SCS Same-Spin Energy      =      -0.2089575176868290 [Eh]
	 SCS Opposite-Spin Energy  =      -2.2410988168477362 [Eh]
	 SCS Correlation Energy    =      -2.4500563345345650 [Eh]
	 SCS Total Energy          =    -932.9874686650755393 [Eh]
	-----------------------------------------------------------

  Dipole Moment: [D]
     X:   -10.2376      Y:     0.0000      Z:     0.0535     Total:    10.2377

*** Psi4 exiting successfully. Buy a developer a beer!
