                               Psi4 1.4a3.dev225

  ==> Input File <==

--------------------------------------------------------------------------
#psi4
#
memory 32 gb

molecule  {
-1 1
  S        2.0766110     0.0000000     0.0075520
  O        2.3891470     0.0000020     1.4601760
  O        2.4489030    -1.2526260    -0.7015720
  O        2.4489040     1.2526220    -0.7015770
  C        0.2698850     0.0000000    -0.0431290
  C       -1.8281600    -1.2204390    -0.0177060
  C       -1.8338020     1.2197621    -0.0700483
  C       -0.4294560     1.2077840    -0.0326800
  C       -0.4294570    -1.2077850    -0.0326810
  C       -2.5145250     0.0000000     0.0013750
  C       -2.5812260    -2.5268720     0.0200930
  C       -2.5812240     2.5268730     0.0200930
  H        0.1401440     2.1341360    -0.0762120
  H        0.1401420    -2.1341370    -0.0762130
  H       -3.6064350     0.0000010     0.0012720
  H       -2.0599700    -3.2944780    -0.5602250
  H       -2.6805960    -2.9020040     1.0455530
  H       -3.5901000    -2.4148770    -0.3912530
  H       -2.6805180     2.9020500     1.0455440
  H       -2.0600100     3.2944550    -0.5602960
  H       -3.5901270     2.4148600    -0.3911760
units angstrom
no_reorient  #important for SAPT in psi4, default
symmetry c1  #important for SAPT in psi4, default
}

set PROPERTIES_ORIGIN ["COM"]
properties('MP2/aug-cc-pvtz', properties = ['dipole'])
--------------------------------------------------------------------------

    Molecular point group: c1
  Charge       = -1
  Multiplicity = 1
  Basis Set: AUG-CC-PVTZ
    Blend: AUG-CC-PVTZ
  Basis Set: (AUG-CC-PVTZ AUX)
    Blend: AUG-CC-PVTZ-JKFIT

    Orbital Energies [Eh]
    ---------------------

    Doubly Occupied:

       1A    -92.013893     2A    -20.350945     3A    -20.350808
       4A    -20.349793     5A    -11.134678     6A    -11.134491
       7A    -11.131938     8A    -11.131837     9A    -11.123200
      10A    -11.122580    11A    -11.112755    12A    -11.112332
      13A     -8.974620    14A     -6.660334    15A     -6.659548
      16A     -6.659464    17A     -1.269806    18A     -1.126410
      19A     -1.124470    20A     -1.044739    21A     -0.951783
      22A     -0.922374    23A     -0.840882    24A     -0.819928
      25A     -0.729732    26A     -0.675959    27A     -0.624578
      28A     -0.567835    29A     -0.541162    30A     -0.513430
      31A     -0.485331    32A     -0.477217    33A     -0.473357
      34A     -0.463285    35A     -0.461351    36A     -0.454868
      37A     -0.449328    38A     -0.426111    39A     -0.398340
      40A     -0.373937    41A     -0.370631    42A     -0.331370
      43A     -0.330564    44A     -0.296586    45A     -0.290578
      46A     -0.269382    47A     -0.248766    48A     -0.210869
      49A     -0.208249

  @DF-RHF Final Energy:  -930.53426427937688

   => Energetics <=

    Nuclear Repulsion Energy =            813.9620925317509545
    One-Electron Energy =               -2909.3998698380000860
    Two-Electron Energy =                1164.9035130268723606
    Total Energy =                       -930.5342642793768846
  Basis Set: (AUG-CC-PVTZ AUX)
    Blend: AUG-CC-PVTZ-RI
    Molecular point group: c1

    Geometry (in Angstrom), charge = -1, multiplicity = 1:

       Center              X                  Y                   Z               Mass
    ------------   -----------------  -----------------  -----------------  -----------------
         S            1.970311467407     0.000044040774     0.011147800500    31.972071174400
         O            2.282847467407     0.000046040774     1.463771800500    15.994914619570
         O            2.342603467407    -1.252581959226    -0.697976199500    15.994914619570
         O            2.342604467407     1.252666040774    -0.697981199500    15.994914619570
         C            0.163585467407     0.000044040774    -0.039533199500    12.000000000000
         C           -1.934459532593    -1.220394959226    -0.014110199500    12.000000000000
         C           -1.940101532593     1.219806140774    -0.066452499500    12.000000000000
         C           -0.535755532593     1.207828040774    -0.029084199500    12.000000000000
         C           -0.535756532593    -1.207740959226    -0.029085199500    12.000000000000
         C           -2.620824532593     0.000044040774     0.004970800500    12.000000000000
         C           -2.687525532593    -2.526827959226     0.023688800500    12.000000000000
         C           -2.687523532593     2.526917040774     0.023688800500    12.000000000000
         H            0.033844467407     2.134180040774    -0.072616199500     1.007825032230
         H            0.033842467407    -2.134092959226    -0.072617199500     1.007825032230
         H           -3.712734532593     0.000045040774     0.004867800500     1.007825032230
         H           -2.166269532593    -3.294433959226    -0.556629199500     1.007825032230
         H           -2.786895532593    -2.901959959226     1.049148800500     1.007825032230
         H           -3.696399532593    -2.414832959226    -0.387657199500     1.007825032230
         H           -2.786817532593     2.902094040774     1.049139800500     1.007825032230
         H           -2.166309532593     3.294499040774    -0.556700199500     1.007825032230
         H           -3.696426532593     2.414904040774    -0.387580199500     1.007825032230

  Basis Set: AUG-CC-PVTZ
    Blend: AUG-CC-PVTZ
  Basis Set: (AUG-CC-PVTZ AUX)
    Blend: AUG-CC-PVTZ-JKFIT
	 Reference Energy          =    -930.5342642793768846 [Eh]
	 Singles Energy            =      -0.0000000000000000 [Eh]
	 Same-Spin Energy          =      -0.6273549952424244 [Eh]
	 Opposite-Spin Energy      =      -1.8688556917418353 [Eh]
	 Correlation Energy        =      -2.4962106869842597 [Eh]
	 Total Energy              =    -933.0304749663611119 [Eh]

	 ================> DF-SCS-MP2 Energies <==================
	-----------------------------------------------------------
	 SCS Same-Spin Scale       =       0.3333333333333333 [-]
	 SCS Opposite-Spin Scale   =       1.2000000000000000 [-]
	 SCS Same-Spin Energy      =      -0.2091183317474748 [Eh]
	 SCS Opposite-Spin Energy  =      -2.2426268300902024 [Eh]
	 SCS Correlation Energy    =      -2.4517451618376773 [Eh]
	 SCS Total Energy          =    -932.9860094412146054 [Eh]
	-----------------------------------------------------------

  Dipole Moment: [D]
     X:   -10.2847      Y:    -0.0216      Z:    -0.0573     Total:    10.2849

*** Psi4 exiting successfully. Buy a developer a beer!
