                               Psi4 1.4a3.dev225

  ==> Input File <==

--------------------------------------------------------------------------
#psi4
#
memory 32 gb

molecule  {
-1 1
  S        2.0766110     0.0000000     0.0075520
  O        2.3891470     0.0000020     1.4601760
  O        2.4489030    -1.2526260    -0.7015720
  O        2.4489040     1.2526220    -0.7015770
  C        0.2698850     0.0000000    -0.0431290
  C       -1.8281600    -1.2204390    -0.0177060
  C       -1.8196342     1.2265650     0.0870558
  C       -0.4294560     1.2077840    -0.0326800
  C       -0.4294570    -1.2077850    -0.0326810
  C       -2.5145250     0.0000000     0.0013750
  C       -2.5812260    -2.5268720     0.0200930
  C       -2.5812240     2.5268730     0.0200930
  H        0.1401440     2.1341360    -0.0762120
  H        0.1401420    -2.1341370    -0.0762130
  H       -3.6064350     0.0000010     0.0012720
  H       -2.0599700    -3.2944780    -0.5602250
  H       -2.6805960    -2.9020040     1.0455530
  H       -3.5901000    -2.4148770    -0.3912530
  H       -2.6805180     2.9020500     1.0455440
  H       -2.0600100     3.2944550    -0.5602960
  H       -3.5901270     2.4148600    -0.3911760
units angstrom
no_reorient  #important for SAPT in psi4, default
symmetry c1  #important for SAPT in psi4, default
}

set PROPERTIES_ORIGIN ["COM"]
properties('MP2/aug-cc-pvtz', properties = ['dipole'])
--------------------------------------------------------------------------

    Molecular point group: c1
  Charge       = -1
  Multiplicity = 1
  Basis Set: AUG-CC-PVTZ
    Blend: AUG-CC-PVTZ
  Basis Set: (AUG-CC-PVTZ AUX)
    Blend: AUG-CC-PVTZ-JKFIT

    Orbital Energies [Eh]
    ---------------------

    Doubly Occupied:

       1A    -92.013884     2A    -20.350725     3A    -20.350515
       4A    -20.350193     5A    -11.135625     6A    -11.134352
       7A    -11.131927     8A    -11.131876     9A    -11.123845
      10A    -11.123112    11A    -11.111955    12A    -11.111876
      13A     -8.974596    14A     -6.660314    15A     -6.659523
      16A     -6.659438    17A     -1.269743    18A     -1.126215
      19A     -1.124554    20A     -1.044291    21A     -0.952287
      22A     -0.921753    23A     -0.839702    24A     -0.820739
      25A     -0.730183    26A     -0.674451    27A     -0.624949
      28A     -0.567571    29A     -0.540574    30A     -0.514072
      31A     -0.485786    32A     -0.478332    33A     -0.470888
      34A     -0.463105    35A     -0.461146    36A     -0.454732
      37A     -0.450956    38A     -0.426326    39A     -0.400181
      40A     -0.373860    41A     -0.367751    42A     -0.331391
      43A     -0.330295    44A     -0.296163    45A     -0.290343
      46A     -0.269599    47A     -0.248747    48A     -0.209582
      49A     -0.208571

  @DF-RHF Final Energy:  -930.53209901507137

   => Energetics <=

    Nuclear Repulsion Energy =            813.9677871470539685
    One-Electron Energy =               -2909.4145786324224900
    Two-Electron Energy =                1164.9146924702970409
    Total Energy =                       -930.5320990150714806
  Basis Set: (AUG-CC-PVTZ AUX)
    Blend: AUG-CC-PVTZ-RI
    Molecular point group: c1

    Geometry (in Angstrom), charge = -1, multiplicity = 1:

       Center              X                  Y                   Z               Mass
    ------------   -----------------  -----------------  -----------------  -----------------
         S            1.969392610272    -0.000397163450     0.000958764568    31.972071174400
         O            2.281928610272    -0.000395163450     1.453582764568    15.994914619570
         O            2.341684610272    -1.253023163450    -0.708165235432    15.994914619570
         O            2.341685610272     1.252224836550    -0.708170235432    15.994914619570
         C            0.162666610272    -0.000397163450    -0.049722235432    12.000000000000
         C           -1.935378389728    -1.220836163450    -0.024299235432    12.000000000000
         C           -1.926852589728     1.226167836550     0.080462564568    12.000000000000
         C           -0.536674389728     1.207386836550    -0.039273235432    12.000000000000
         C           -0.536675389728    -1.208182163450    -0.039274235432    12.000000000000
         C           -2.621743389728    -0.000397163450    -0.005218235432    12.000000000000
         C           -2.688444389728    -2.527269163450     0.013499764568    12.000000000000
         C           -2.688442389728     2.526475836550     0.013499764568    12.000000000000
         H            0.032925610272     2.133738836550    -0.082805235432     1.007825032230
         H            0.032923610272    -2.134534163450    -0.082806235432     1.007825032230
         H           -3.713653389728    -0.000396163450    -0.005321235432     1.007825032230
         H           -2.167188389728    -3.294875163450    -0.566818235432     1.007825032230
         H           -2.787814389728    -2.902401163450     1.038959764568     1.007825032230
         H           -3.697318389728    -2.415274163450    -0.397846235432     1.007825032230
         H           -2.787736389728     2.901652836550     1.038950764568     1.007825032230
         H           -2.167228389728     3.294057836550    -0.566889235432     1.007825032230
         H           -3.697345389728     2.414462836550    -0.397769235432     1.007825032230

  Basis Set: AUG-CC-PVTZ
    Blend: AUG-CC-PVTZ
  Basis Set: (AUG-CC-PVTZ AUX)
    Blend: AUG-CC-PVTZ-JKFIT
	 Reference Energy          =    -930.5320990150713669 [Eh]
	 Singles Energy            =      -0.0000000000000000 [Eh]
	 Same-Spin Energy          =      -0.6274425619391055 [Eh]
	 Opposite-Spin Energy      =      -1.8690963352700418 [Eh]
	 Correlation Energy        =      -2.4965388972091471 [Eh]
	 Total Energy              =    -933.0286379122804874 [Eh]

	 ================> DF-SCS-MP2 Energies <==================
	-----------------------------------------------------------
	 SCS Same-Spin Scale       =       0.3333333333333333 [-]
	 SCS Opposite-Spin Scale   =       1.2000000000000000 [-]
	 SCS Same-Spin Energy      =      -0.2091475206463685 [Eh]
	 SCS Opposite-Spin Energy  =      -2.2429156023240502 [Eh]
	 SCS Correlation Energy    =      -2.4520631229704186 [Eh]
	 SCS Total Energy          =    -932.9841621380418246 [Eh]
	-----------------------------------------------------------

  Dipole Moment: [D]
     X:   -10.2978      Y:     0.0134      Z:    -0.0888     Total:    10.2982

*** Psi4 exiting successfully. Buy a developer a beer!
