                               Psi4 1.4a3.dev225

  ==> Input File <==

--------------------------------------------------------------------------
#psi4
#
memory 32 gb

molecule  {
-1 1
  S        2.0766110     0.0000000     0.0075520
  O        2.3891470     0.0000020     1.4601760
  O        2.4489030    -1.2526260    -0.7015720
  O        2.4489040     1.2526220    -0.7015770
  C        0.2698850     0.0000000    -0.0431290
  C       -1.8281600    -1.2204390    -0.0177060
  C       -1.8281600     1.2204390    -0.0177050
  C       -0.4794511     1.2082363    -0.0321447
  C       -0.4294570    -1.2077850    -0.0326810
  C       -2.5145250     0.0000000     0.0013750
  C       -2.5812260    -2.5268720     0.0200930
  C       -2.5812240     2.5268730     0.0200930
  H        0.1401440     2.1341360    -0.0762120
  H        0.1401420    -2.1341370    -0.0762130
  H       -3.6064350     0.0000010     0.0012720
  H       -2.0599700    -3.2944780    -0.5602250
  H       -2.6805960    -2.9020040     1.0455530
  H       -3.5901000    -2.4148770    -0.3912530
  H       -2.6805180     2.9020500     1.0455440
  H       -2.0600100     3.2944550    -0.5602960
  H       -3.5901270     2.4148600    -0.3911760
units angstrom
no_reorient  #important for SAPT in psi4, default
symmetry c1  #important for SAPT in psi4, default
}

set PROPERTIES_ORIGIN ["COM"]
properties('MP2/aug-cc-pvtz', properties = ['dipole'])
--------------------------------------------------------------------------

    Molecular point group: c1
  Charge       = -1
  Multiplicity = 1
  Basis Set: AUG-CC-PVTZ
    Blend: AUG-CC-PVTZ
  Basis Set: (AUG-CC-PVTZ AUX)
    Blend: AUG-CC-PVTZ-JKFIT

    Orbital Energies [Eh]
    ---------------------

    Doubly Occupied:

       1A    -92.015516     2A    -20.351957     3A    -20.351544
       4A    -20.350842     5A    -11.134592     6A    -11.131907
       7A    -11.131036     8A    -11.127958     9A    -11.125843
      10A    -11.122050    11A    -11.111584    12A    -11.110685
      13A     -8.976076    14A     -6.661825    15A     -6.661006
      16A     -6.660925    17A     -1.270576    18A     -1.127146
      19A     -1.125315    20A     -1.047863    21A     -0.955448
      22A     -0.918633    23A     -0.840464    24A     -0.821037
      25A     -0.733627    26A     -0.672911    27A     -0.626337
      28A     -0.565411    29A     -0.542227    30A     -0.513782
      31A     -0.485418    32A     -0.475285    33A     -0.473323
      34A     -0.463844    35A     -0.462012    36A     -0.454641
      37A     -0.450070    38A     -0.424978    39A     -0.402259
      40A     -0.372865    41A     -0.364116    42A     -0.331973
      43A     -0.331238    44A     -0.297332    45A     -0.291410
      46A     -0.271751    47A     -0.249543    48A     -0.214797
      49A     -0.206546

  @DF-RHF Final Energy:  -930.53237169725537

   => Energetics <=

    Nuclear Repulsion Energy =            814.0737714709204056
    One-Electron Energy =               -2909.5932377841127163
    Two-Electron Energy =                1164.9870946159371670
    Total Energy =                       -930.5323716972552575
  Basis Set: (AUG-CC-PVTZ AUX)
    Blend: AUG-CC-PVTZ-RI
    Molecular point group: c1

    Geometry (in Angstrom), charge = -1, multiplicity = 1:

       Center              X                  Y                   Z               Mass
    ------------   -----------------  -----------------  -----------------  -----------------
         S            1.973188001690    -0.000029193848     0.007718342227    31.972071174400
         O            2.285724001690    -0.000027193848     1.460342342227    15.994914619570
         O            2.345480001690    -1.252655193848    -0.701405657773    15.994914619570
         O            2.345481001690     1.252592806152    -0.701410657773    15.994914619570
         C            0.166462001690    -0.000029193848    -0.042962657773    12.000000000000
         C           -1.931582998310    -1.220468193848    -0.017539657773    12.000000000000
         C           -1.931582998310     1.220409806152    -0.017538657773    12.000000000000
         C           -0.582874098310     1.208207106152    -0.031978357773    12.000000000000
         C           -0.532879998310    -1.207814193848    -0.032514657773    12.000000000000
         C           -2.617947998310    -0.000029193848     0.001541342227    12.000000000000
         C           -2.684648998310    -2.526901193848     0.020259342227    12.000000000000
         C           -2.684646998310     2.526843806152     0.020259342227    12.000000000000
         H            0.036721001690     2.134106806152    -0.076045657773     1.007825032230
         H            0.036719001690    -2.134166193848    -0.076046657773     1.007825032230
         H           -3.709857998310    -0.000028193848     0.001438342227     1.007825032230
         H           -2.163392998310    -3.294507193848    -0.560058657773     1.007825032230
         H           -2.784018998310    -2.902033193848     1.045719342227     1.007825032230
         H           -3.693522998310    -2.414906193848    -0.391086657773     1.007825032230
         H           -2.783940998310     2.902020806152     1.045710342227     1.007825032230
         H           -2.163432998310     3.294425806152    -0.560129657773     1.007825032230
         H           -3.693549998310     2.414830806152    -0.391009657773     1.007825032230

  Basis Set: AUG-CC-PVTZ
    Blend: AUG-CC-PVTZ
  Basis Set: (AUG-CC-PVTZ AUX)
    Blend: AUG-CC-PVTZ-JKFIT
	 Reference Energy          =    -930.5323716972553711 [Eh]
	 Singles Energy            =      -0.0000000000000000 [Eh]
	 Same-Spin Energy          =      -0.6273171174748668 [Eh]
	 Opposite-Spin Energy      =      -1.8688601391499677 [Eh]
	 Correlation Energy        =      -2.4961772566248346 [Eh]
	 Total Energy              =    -933.0285489538802040 [Eh]

	 ================> DF-SCS-MP2 Energies <==================
	-----------------------------------------------------------
	 SCS Same-Spin Scale       =       0.3333333333333333 [-]
	 SCS Opposite-Spin Scale   =       1.2000000000000000 [-]
	 SCS Same-Spin Energy      =      -0.2091057058249556 [Eh]
	 SCS Opposite-Spin Energy  =      -2.2426321669799614 [Eh]
	 SCS Correlation Energy    =      -2.4517378728049168 [Eh]
	 SCS Total Energy          =    -932.9841095700602409 [Eh]
	-----------------------------------------------------------

  Dipole Moment: [D]
     X:   -10.2521      Y:    -0.0367      Z:    -0.0673     Total:    10.2524

*** Psi4 exiting successfully. Buy a developer a beer!
