                               Psi4 1.4a3.dev225

  ==> Input File <==

--------------------------------------------------------------------------
#psi4
#
memory 32 gb

molecule  {
-1 1
  S        2.0766110     0.0000000     0.0075520
  O        2.3891470     0.0000020     1.4601760
  O        2.4489030    -1.2526260    -0.7015720
  O        2.4489040     1.2526220    -0.7015770
  C        0.2698850     0.0000000    -0.0431290
  C       -1.8281600    -1.2204390    -0.0177060
  C       -1.8281600     1.2204390    -0.0177050
  C       -0.4294560     1.2077840    -0.0326800
  C       -0.4294570    -1.2077850    -0.0326810
  C       -2.5145250     0.0000000     0.0013750
  C       -2.5812260    -2.5268720     0.0200930
  C       -2.5812240     2.5268730     0.0200930
  H        0.2448179     2.3043693    -0.0842118
  H        0.1401420    -2.1341370    -0.0762130
  H       -3.6064350     0.0000010     0.0012720
  H       -2.0599700    -3.2944780    -0.5602250
  H       -2.6805960    -2.9020040     1.0455530
  H       -3.5901000    -2.4148770    -0.3912530
  H       -2.6805180     2.9020500     1.0455440
  H       -2.0600100     3.2944550    -0.5602960
  H       -3.5901270     2.4148600    -0.3911760
units angstrom
no_reorient  #important for SAPT in psi4, default
symmetry c1  #important for SAPT in psi4, default
}

set PROPERTIES_ORIGIN ["COM"]
properties('MP2/aug-cc-pvtz', properties = ['dipole'])
--------------------------------------------------------------------------

    Molecular point group: c1
  Charge       = -1
  Multiplicity = 1
  Basis Set: AUG-CC-PVTZ
    Blend: AUG-CC-PVTZ
  Basis Set: (AUG-CC-PVTZ AUX)
    Blend: AUG-CC-PVTZ-JKFIT

    Orbital Energies [Eh]
    ---------------------

    Doubly Occupied:

       1A    -92.014091     2A    -20.351043     3A    -20.350576
       4A    -20.350034     5A    -11.136156     6A    -11.135089
       7A    -11.132370     8A    -11.131758     9A    -11.131317
      10A    -11.125021    11A    -11.123657    12A    -11.113279
      13A     -8.974809    14A     -6.660539    15A     -6.659727
      16A     -6.659646    17A     -1.269847    18A     -1.126390
      19A     -1.124548    20A     -1.045230    21A     -0.951251
      22A     -0.921990    23A     -0.840588    24A     -0.816267
      25A     -0.729652    26A     -0.671043    27A     -0.624803
      28A     -0.555033    29A     -0.541635    30A     -0.511587
      31A     -0.485108    32A     -0.475201    33A     -0.473432
      34A     -0.463313    35A     -0.461339    36A     -0.454189
      37A     -0.438225    38A     -0.423792    39A     -0.395841
      40A     -0.372797    41A     -0.360100    42A     -0.331365
      43A     -0.330003    44A     -0.296618    45A     -0.289698
      46A     -0.269867    47A     -0.248769    48A     -0.211392
      49A     -0.209475

  @DF-RHF Final Energy:  -930.51298202586167

   => Energetics <=

    Nuclear Repulsion Energy =            813.0966070972751822
    One-Electron Energy =               -2907.6801779983452434
    Two-Electron Energy =                1164.0705888752081592
    Total Energy =                       -930.5129820258616746
  Basis Set: (AUG-CC-PVTZ AUX)
    Blend: AUG-CC-PVTZ-RI
    Molecular point group: c1

    Geometry (in Angstrom), charge = -1, multiplicity = 1:

       Center              X                  Y                   Z               Mass
    ------------   -----------------  -----------------  -----------------  -----------------
         S            1.969375405364    -0.000927103695     0.007796633395    31.972071174400
         O            2.281911405364    -0.000925103695     1.460420633395    15.994914619570
         O            2.341667405364    -1.253553103695    -0.701327366605    15.994914619570
         O            2.341668405364     1.251694896305    -0.701332366605    15.994914619570
         C            0.162649405364    -0.000927103695    -0.042884366605    12.000000000000
         C           -1.935395594636    -1.221366103695    -0.017461366605    12.000000000000
         C           -1.935395594636     1.219511896305    -0.017460366605    12.000000000000
         C           -0.536691594636     1.206856896305    -0.032435366605    12.000000000000
         C           -0.536692594636    -1.208712103695    -0.032436366605    12.000000000000
         C           -2.621760594636    -0.000927103695     0.001619633395    12.000000000000
         C           -2.688461594636    -2.527799103695     0.020337633395    12.000000000000
         C           -2.688459594636     2.525945896305     0.020337633395    12.000000000000
         H            0.137582305364     2.303442196305    -0.083967166605     1.007825032230
         H            0.032906405364    -2.135064103695    -0.075968366605     1.007825032230
         H           -3.713670594636    -0.000926103695     0.001516633395     1.007825032230
         H           -2.167205594636    -3.295405103695    -0.559980366605     1.007825032230
         H           -2.787831594636    -2.902931103695     1.045797633395     1.007825032230
         H           -3.697335594636    -2.415804103695    -0.391008366605     1.007825032230
         H           -2.787753594636     2.901122896305     1.045788633395     1.007825032230
         H           -2.167245594636     3.293527896305    -0.560051366605     1.007825032230
         H           -3.697362594636     2.413932896305    -0.390931366605     1.007825032230

  Basis Set: AUG-CC-PVTZ
    Blend: AUG-CC-PVTZ
  Basis Set: (AUG-CC-PVTZ AUX)
    Blend: AUG-CC-PVTZ-JKFIT
	 Reference Energy          =    -930.5129820258616746 [Eh]
	 Singles Energy            =      -0.0000000000000000 [Eh]
	 Same-Spin Energy          =      -0.6281921860051900 [Eh]
	 Opposite-Spin Energy      =      -1.8711593148007060 [Eh]
	 Correlation Energy        =      -2.4993515008058962 [Eh]
	 Total Energy              =    -933.0123335266675895 [Eh]

	 ================> DF-SCS-MP2 Energies <==================
	-----------------------------------------------------------
	 SCS Same-Spin Scale       =       0.3333333333333333 [-]
	 SCS Opposite-Spin Scale   =       1.2000000000000000 [-]
	 SCS Same-Spin Energy      =      -0.2093973953350633 [Eh]
	 SCS Opposite-Spin Energy  =      -2.2453911777608471 [Eh]
	 SCS Correlation Energy    =      -2.4547885730959105 [Eh]
	 SCS Total Energy          =    -932.9677705989575998 [Eh]
	-----------------------------------------------------------

  Dipole Moment: [D]
     X:   -10.2630      Y:    -0.0596      Z:    -0.0746     Total:    10.2634

*** Psi4 exiting successfully. Buy a developer a beer!
