                               Psi4 1.4a3.dev225

  ==> Input File <==

--------------------------------------------------------------------------
#psi4
#
memory 32 gb

molecule  {
-1 1
  S        2.0766110     0.0000000     0.0075520
  O        2.3891470     0.0000020     1.4601760
  O        2.4489030    -1.2526260    -0.7015720
  O        2.4489040     1.2526220    -0.7015770
  C        0.2698850     0.0000000    -0.0431290
  C       -1.8281600    -1.2204390    -0.0177060
  C       -1.8281600     1.2204390    -0.0177050
  C       -0.4294560     1.2077840    -0.0326800
  C       -0.4294570    -1.2077850    -0.0326810
  C       -2.5145250     0.0000000     0.0013750
  C       -2.5812260    -2.5268720     0.0200930
  C       -2.5812240     2.5268730     0.0200930
  H        0.1401440     2.1341360    -0.0762120
  H        0.1663104    -2.1766953    -0.0782129
  H       -3.6064350     0.0000010     0.0012720
  H       -2.0599700    -3.2944780    -0.5602250
  H       -2.6805960    -2.9020040     1.0455530
  H       -3.5901000    -2.4148770    -0.3912530
  H       -2.6805180     2.9020500     1.0455440
  H       -2.0600100     3.2944550    -0.5602960
  H       -3.5901270     2.4148600    -0.3911760
units angstrom
no_reorient  #important for SAPT in psi4, default
symmetry c1  #important for SAPT in psi4, default
}

set PROPERTIES_ORIGIN ["COM"]
properties('MP2/aug-cc-pvtz', properties = ['dipole'])
--------------------------------------------------------------------------

    Molecular point group: c1
  Charge       = -1
  Multiplicity = 1
  Basis Set: AUG-CC-PVTZ
    Blend: AUG-CC-PVTZ
  Basis Set: (AUG-CC-PVTZ AUX)
    Blend: AUG-CC-PVTZ-JKFIT

    Orbital Energies [Eh]
    ---------------------

    Doubly Occupied:

       1A    -92.013909     2A    -20.350822     3A    -20.350725
       4A    -20.349935     5A    -11.134813     6A    -11.134582
       7A    -11.131981     8A    -11.131752     9A    -11.123639
      10A    -11.122690    11A    -11.117171    12A    -11.112165
      13A     -8.974630    14A     -6.660349    15A     -6.659556
      16A     -6.659473    17A     -1.269779    18A     -1.126335
      19A     -1.124493    20A     -1.044883    21A     -0.951726
      22A     -0.922004    23A     -0.840624    24A     -0.818947
      25A     -0.729860    26A     -0.674002    27A     -0.624657
      28A     -0.563705    29A     -0.541341    30A     -0.512873
      31A     -0.485064    32A     -0.475229    33A     -0.474545
      34A     -0.463219    35A     -0.461291    36A     -0.454304
      37A     -0.447191    38A     -0.425918    39A     -0.398472
      40A     -0.372036    41A     -0.370136    42A     -0.331358
      43A     -0.330410    44A     -0.296516    45A     -0.290351
      46A     -0.269523    47A     -0.248748    48A     -0.210614
      49A     -0.208823

  @DF-RHF Final Energy:  -930.53311203061128

   => Energetics <=

    Nuclear Repulsion Energy =            813.8037191728739117
    One-Electron Energy =               -2909.0993216592314639
    Two-Electron Energy =                1164.7624904557460468
    Total Energy =                       -930.5331120306113917
  Basis Set: (AUG-CC-PVTZ AUX)
    Blend: AUG-CC-PVTZ-RI
    Molecular point group: c1

    Geometry (in Angstrom), charge = -1, multiplicity = 1:

       Center              X                  Y                   Z               Mass
    ------------   -----------------  -----------------  -----------------  -----------------
         S            1.969803017038     0.000231951051     0.007763952534    31.972071174400
         O            2.282339017038     0.000233951051     1.460387952534    15.994914619570
         O            2.342095017038    -1.252394048949    -0.701360047466    15.994914619570
         O            2.342096017038     1.252853951051    -0.701365047466    15.994914619570
         C            0.163077017038     0.000231951051    -0.042917047466    12.000000000000
         C           -1.934967982962    -1.220207048949    -0.017494047466    12.000000000000
         C           -1.934967982962     1.220670951051    -0.017493047466    12.000000000000
         C           -0.536263982962     1.208015951051    -0.032468047466    12.000000000000
         C           -0.536264982962    -1.207553048949    -0.032469047466    12.000000000000
         C           -2.621332982962     0.000231951051     0.001586952534    12.000000000000
         C           -2.688033982962    -2.526640048949     0.020304952534    12.000000000000
         C           -2.688031982962     2.527104951051     0.020304952534    12.000000000000
         H            0.033336017038     2.134367951051    -0.076000047466     1.007825032230
         H            0.059502417038    -2.176463348949    -0.078000947466     1.007825032230
         H           -3.713242982962     0.000232951051     0.001483952534     1.007825032230
         H           -2.166777982962    -3.294246048949    -0.560013047466     1.007825032230
         H           -2.787403982962    -2.901772048949     1.045764952534     1.007825032230
         H           -3.696907982962    -2.414645048949    -0.391041047466     1.007825032230
         H           -2.787325982962     2.902281951051     1.045755952534     1.007825032230
         H           -2.166817982962     3.294686951051    -0.560084047466     1.007825032230
         H           -3.696934982962     2.415091951051    -0.390964047466     1.007825032230

  Basis Set: AUG-CC-PVTZ
    Blend: AUG-CC-PVTZ
  Basis Set: (AUG-CC-PVTZ AUX)
    Blend: AUG-CC-PVTZ-JKFIT
	 Reference Energy          =    -930.5331120306112780 [Eh]
	 Singles Energy            =      -0.0000000000000000 [Eh]
	 Same-Spin Energy          =      -0.6274814632606083 [Eh]
	 Opposite-Spin Energy      =      -1.8691518295778486 [Eh]
	 Correlation Energy        =      -2.4966332928384567 [Eh]
	 Total Energy              =    -933.0297453234497880 [Eh]

	 ================> DF-SCS-MP2 Energies <==================
	-----------------------------------------------------------
	 SCS Same-Spin Scale       =       0.3333333333333333 [-]
	 SCS Opposite-Spin Scale   =       1.2000000000000000 [-]
	 SCS Same-Spin Energy      =      -0.2091604877535361 [Eh]
	 SCS Opposite-Spin Energy  =      -2.2429821954934184 [Eh]
	 SCS Correlation Energy    =      -2.4521426832469544 [Eh]
	 SCS Total Energy          =    -932.9852547138582395 [Eh]
	-----------------------------------------------------------

  Dipole Moment: [D]
     X:   -10.2874      Y:     0.0104      Z:    -0.0696     Total:    10.2877

*** Psi4 exiting successfully. Buy a developer a beer!
