                               Psi4 1.4a3.dev225

  ==> Input File <==

--------------------------------------------------------------------------
#psi4
#
memory 32 gb

molecule  {
-1 1
  S        2.0766110     0.0000000     0.0075520
  O        2.3891470     0.0000020     1.4601760
  O        2.4489030    -1.2526260    -0.7015720
  O        2.4489040     1.2526220    -0.7015770
  C        0.2698850     0.0000000    -0.0431290
  C       -1.8281600    -1.2204390    -0.0177060
  C       -1.8234355     1.2227075     0.0346843
  C       -0.4294560     1.2077840    -0.0326800
  C       -0.4294570    -1.2077850    -0.0326810
  C       -2.5145250     0.0000000     0.0013750
  C       -2.5812260    -2.5268720     0.0200930
  C       -2.5812240     2.5268730     0.0200930
  H        0.1401440     2.1341360    -0.0762120
  H        0.1401420    -2.1341370    -0.0762130
  H       -3.6064350     0.0000010     0.0012720
  H       -2.0599700    -3.2944780    -0.5602250
  H       -2.6805960    -2.9020040     1.0455530
  H       -3.5901000    -2.4148770    -0.3912530
  H       -2.6805180     2.9020500     1.0455440
  H       -2.0600100     3.2944550    -0.5602960
  H       -3.5901270     2.4148600    -0.3911760
units angstrom
no_reorient  #important for SAPT in psi4, default
symmetry c1  #important for SAPT in psi4, default
}

set PROPERTIES_ORIGIN ["COM"]
properties('MP2/aug-cc-pvtz', properties = ['dipole'])
--------------------------------------------------------------------------

    Molecular point group: c1
  Charge       = -1
  Multiplicity = 1
  Basis Set: AUG-CC-PVTZ
    Blend: AUG-CC-PVTZ
  Basis Set: (AUG-CC-PVTZ AUX)
    Blend: AUG-CC-PVTZ-JKFIT

    Orbital Energies [Eh]
    ---------------------

    Doubly Occupied:

       1A    -92.013868     2A    -20.350739     3A    -20.350622
       4A    -20.350049     5A    -11.134805     6A    -11.134439
       7A    -11.131929     8A    -11.131875     9A    -11.123191
      10A    -11.122851    11A    -11.111718    12A    -11.111564
      13A     -8.974583    14A     -6.660300    15A     -6.659511
      16A     -6.659427    17A     -1.269743    18A     -1.126254
      19A     -1.124509    20A     -1.044766    21A     -0.952231
      22A     -0.921974    23A     -0.840326    24A     -0.820602
      25A     -0.730263    26A     -0.675046    27A     -0.624819
      28A     -0.567705    29A     -0.541093    30A     -0.513693
      31A     -0.485247    32A     -0.476933    33A     -0.473054
      34A     -0.463134    35A     -0.461247    36A     -0.454817
      37A     -0.450848    38A     -0.426413    39A     -0.399905
      40A     -0.373088    41A     -0.369998    42A     -0.331363
      43A     -0.330381    44A     -0.296350    45A     -0.290396
      46A     -0.269495    47A     -0.248732    48A     -0.209925
      49A     -0.208862

  @DF-RHF Final Energy:  -930.53498190426899

   => Energetics <=

    Nuclear Repulsion Energy =            814.0628290891218057
    One-Electron Energy =               -2909.6062558190947129
    Two-Electron Energy =                1165.0084448257039185
    Total Energy =                       -930.5349819042689887
  Basis Set: (AUG-CC-PVTZ AUX)
    Blend: AUG-CC-PVTZ-RI
    Molecular point group: c1

    Geometry (in Angstrom), charge = -1, multiplicity = 1:

       Center              X                  Y                   Z               Mass
    ------------   -----------------  -----------------  -----------------  -----------------
         S            1.969639144781    -0.000146984071     0.004355334710    31.972071174400
         O            2.282175144781    -0.000144984071     1.456979334710    15.994914619570
         O            2.341931144781    -1.252772984071    -0.704768665290    15.994914619570
         O            2.341932144781     1.252475015929    -0.704773665290    15.994914619570
         C            0.162913144781    -0.000146984071    -0.046325665290    12.000000000000
         C           -1.935131855219    -1.220585984071    -0.020902665290    12.000000000000
         C           -1.930407355218     1.222560515929     0.031487634710    12.000000000000
         C           -0.536427855219     1.207637015929    -0.035876665290    12.000000000000
         C           -0.536428855219    -1.207931984071    -0.035877665290    12.000000000000
         C           -2.621496855219    -0.000146984071    -0.001821665290    12.000000000000
         C           -2.688197855219    -2.527018984071     0.016896334710    12.000000000000
         C           -2.688195855219     2.526726015929     0.016896334710    12.000000000000
         H            0.033172144781     2.133989015929    -0.079408665290     1.007825032230
         H            0.033170144781    -2.134283984071    -0.079409665290     1.007825032230
         H           -3.713406855218    -0.000145984071    -0.001924665290     1.007825032230
         H           -2.166941855219    -3.294624984071    -0.563421665290     1.007825032230
         H           -2.787567855219    -2.902150984071     1.042356334710     1.007825032230
         H           -3.697071855219    -2.415023984071    -0.394449665290     1.007825032230
         H           -2.787489855218     2.901903015929     1.042347334710     1.007825032230
         H           -2.166981855219     3.294308015929    -0.563492665290     1.007825032230
         H           -3.697098855219     2.414713015929    -0.394372665290     1.007825032230

  Basis Set: AUG-CC-PVTZ
    Blend: AUG-CC-PVTZ
  Basis Set: (AUG-CC-PVTZ AUX)
    Blend: AUG-CC-PVTZ-JKFIT
	 Reference Energy          =    -930.5349819042689887 [Eh]
	 Singles Energy            =      -0.0000000000000000 [Eh]
	 Same-Spin Energy          =      -0.6273074164566724 [Eh]
	 Opposite-Spin Energy      =      -1.8687328229133520 [Eh]
	 Correlation Energy        =      -2.4960402393700245 [Eh]
	 Total Energy              =    -933.0310221436390066 [Eh]

	 ================> DF-SCS-MP2 Energies <==================
	-----------------------------------------------------------
	 SCS Same-Spin Scale       =       0.3333333333333333 [-]
	 SCS Opposite-Spin Scale   =       1.2000000000000000 [-]
	 SCS Same-Spin Energy      =      -0.2091024721522241 [Eh]
	 SCS Opposite-Spin Energy  =      -2.2424793874960223 [Eh]
	 SCS Correlation Energy    =      -2.4515818596482464 [Eh]
	 SCS Total Energy          =    -932.9865637639172746 [Eh]
	-----------------------------------------------------------

  Dipole Moment: [D]
     X:   -10.3014      Y:     0.0116      Z:    -0.0784     Total:    10.3017

*** Psi4 exiting successfully. Buy a developer a beer!
