                               Psi4 1.4a3.dev225

  ==> Input File <==

--------------------------------------------------------------------------
#psi4
#
memory 32 gb

molecule  {
-1 1
  S        2.0766110     0.0000000     0.0075520
  O        2.3891470     0.0000020     1.4601760
  O        2.4489030    -1.2526260    -0.7015720
  O        2.4489040     1.2526220    -0.7015770
  C        0.2698850     0.0000000    -0.0431290
  C       -1.8281600    -1.2204390    -0.0177060
  C       -1.8281600     1.2204390    -0.0177050
  C       -0.6294364     1.2095934    -0.0305389
  C       -0.4294570    -1.2077850    -0.0326810
  C       -2.5145250     0.0000000     0.0013750
  C       -2.5812260    -2.5268720     0.0200930
  C       -2.5812240     2.5268730     0.0200930
  H        0.1401440     2.1341360    -0.0762120
  H        0.1401420    -2.1341370    -0.0762130
  H       -3.6064350     0.0000010     0.0012720
  H       -2.0599700    -3.2944780    -0.5602250
  H       -2.6805960    -2.9020040     1.0455530
  H       -3.5901000    -2.4148770    -0.3912530
  H       -2.6805180     2.9020500     1.0455440
  H       -2.0600100     3.2944550    -0.5602960
  H       -3.5901270     2.4148600    -0.3911760
units angstrom
no_reorient  #important for SAPT in psi4, default
symmetry c1  #important for SAPT in psi4, default
}

set PROPERTIES_ORIGIN ["COM"]
properties('MP2/aug-cc-pvtz', properties = ['dipole'])
--------------------------------------------------------------------------

    Molecular point group: c1
  Charge       = -1
  Multiplicity = 1
  Basis Set: AUG-CC-PVTZ
    Blend: AUG-CC-PVTZ
  Basis Set: (AUG-CC-PVTZ AUX)
    Blend: AUG-CC-PVTZ-JKFIT

    Orbital Energies [Eh]
    ---------------------

    Doubly Occupied:

       1A    -92.019901     2A    -20.355171     3A    -20.353622
       4A    -20.353283     5A    -11.135574     6A    -11.133002
       7A    -11.132223     8A    -11.128558     9A    -11.121382
      10A    -11.110848    11A    -11.106460    12A    -11.102714
      13A     -8.980044    14A     -6.665887    15A     -6.664968
      16A     -6.664893    17A     -1.272772    18A     -1.129430
      19A     -1.127477    20A     -1.062450    21A     -0.968257
      22A     -0.908660    23A     -0.840974    24A     -0.825990
      25A     -0.741976    26A     -0.662784    27A     -0.630809
      28A     -0.561033    29A     -0.543398    30A     -0.514070
      31A     -0.487794    32A     -0.476355    33A     -0.472842
      34A     -0.465655    35A     -0.464008    36A     -0.459288
      37A     -0.444044    38A     -0.421830    39A     -0.406049
      40A     -0.378855    41A     -0.337167    42A     -0.333845
      43A     -0.324964    44A     -0.300450    45A     -0.293920
      46A     -0.276489    47A     -0.251655    48A     -0.236944
      49A     -0.196802

  @DF-RHF Final Energy:  -930.47271086094088

   => Energetics <=

    Nuclear Repulsion Energy =            814.4698525246020608
    One-Electron Energy =               -2910.1899934964803833
    Two-Electron Energy =                1165.2474301109373300
    Total Energy =                       -930.4727108609408788
  Basis Set: (AUG-CC-PVTZ AUX)
    Blend: AUG-CC-PVTZ-RI
    Molecular point group: c1

    Geometry (in Angstrom), charge = -1, multiplicity = 1:

       Center              X                  Y                   Z               Mass
    ------------   -----------------  -----------------  -----------------  -----------------
         S            1.982915345603    -0.000117208996     0.007614197562    31.972071174400
         O            2.295451345603    -0.000115208996     1.460238197562    15.994914619570
         O            2.355207345603    -1.252743208996    -0.701509802438    15.994914619570
         O            2.355208345603     1.252504791004    -0.701514802438    15.994914619570
         C            0.176189345603    -0.000117208996    -0.043066802438    12.000000000000
         C           -1.921855654397    -1.220556208996    -0.017643802438    12.000000000000
         C           -1.921855654397     1.220321791004    -0.017642802438    12.000000000000
         C           -0.723132054397     1.209476191004    -0.030476702438    12.000000000000
         C           -0.523152654397    -1.207902208996    -0.032618802438    12.000000000000
         C           -2.608220654397    -0.000117208996     0.001437197562    12.000000000000
         C           -2.674921654397    -2.526989208996     0.020155197562    12.000000000000
         C           -2.674919654397     2.526755791004     0.020155197562    12.000000000000
         H            0.046448345603     2.134018791004    -0.076149802438     1.007825032230
         H            0.046446345603    -2.134254208996    -0.076150802438     1.007825032230
         H           -3.700130654397    -0.000116208996     0.001334197562     1.007825032230
         H           -2.153665654397    -3.294595208996    -0.560162802438     1.007825032230
         H           -2.774291654397    -2.902121208996     1.045615197562     1.007825032230
         H           -3.683795654397    -2.414994208996    -0.391190802438     1.007825032230
         H           -2.774213654397     2.901932791004     1.045606197562     1.007825032230
         H           -2.153705654397     3.294337791004    -0.560233802438     1.007825032230
         H           -3.683822654397     2.414742791004    -0.391113802438     1.007825032230

  Basis Set: AUG-CC-PVTZ
    Blend: AUG-CC-PVTZ
  Basis Set: (AUG-CC-PVTZ AUX)
    Blend: AUG-CC-PVTZ-JKFIT
	 Reference Energy          =    -930.4727108609408788 [Eh]
	 Singles Energy            =      -0.0000000000000000 [Eh]
	 Same-Spin Energy          =      -0.6270931730844126 [Eh]
	 Opposite-Spin Energy      =      -1.8707798144765557 [Eh]
	 Correlation Energy        =      -2.4978729875609682 [Eh]
	 Total Energy              =    -932.9705838485018603 [Eh]

	 ================> DF-SCS-MP2 Energies <==================
	-----------------------------------------------------------
	 SCS Same-Spin Scale       =       0.3333333333333333 [-]
	 SCS Opposite-Spin Scale   =       1.2000000000000000 [-]
	 SCS Same-Spin Energy      =      -0.2090310576948042 [Eh]
	 SCS Opposite-Spin Energy  =      -2.2449357773718668 [Eh]
	 SCS Correlation Energy    =      -2.4539668350666708 [Eh]
	 SCS Total Energy          =    -932.9266776960075731 [Eh]
	-----------------------------------------------------------

  Dipole Moment: [D]
     X:   -10.1270      Y:    -0.1787      Z:    -0.0666     Total:    10.1288

*** Psi4 exiting successfully. Buy a developer a beer!
