                               Psi4 1.4a3.dev225

  ==> Input File <==

--------------------------------------------------------------------------
#psi4
#
memory 32 gb

molecule  {
-1 1
  S        2.0766110     0.0000000     0.0075520
  O        2.3891470     0.0000020     1.4601760
  O        2.4489030    -1.2526260    -0.7015720
  O        2.4489040     1.2526220    -0.7015770
  C        0.2698850     0.0000000    -0.0431290
  C       -1.8281600    -1.2204390    -0.0177060
  C       -1.8281600     1.2204390    -0.0177050
  C       -0.4294560     1.2077840    -0.0326800
  C       -0.5294472    -1.2086896    -0.0316105
  C       -2.5145250     0.0000000     0.0013750
  C       -2.5812260    -2.5268720     0.0200930
  C       -2.5812240     2.5268730     0.0200930
  H        0.1401440     2.1341360    -0.0762120
  H        0.1401420    -2.1341370    -0.0762130
  H       -3.6064350     0.0000010     0.0012720
  H       -2.0599700    -3.2944780    -0.5602250
  H       -2.6805960    -2.9020040     1.0455530
  H       -3.5901000    -2.4148770    -0.3912530
  H       -2.6805180     2.9020500     1.0455440
  H       -2.0600100     3.2944550    -0.5602960
  H       -3.5901270     2.4148600    -0.3911760
units angstrom
no_reorient  #important for SAPT in psi4, default
symmetry c1  #important for SAPT in psi4, default
}

set PROPERTIES_ORIGIN ["COM"]
properties('MP2/aug-cc-pvtz', properties = ['dipole'])
--------------------------------------------------------------------------

    Molecular point group: c1
  Charge       = -1
  Multiplicity = 1
  Basis Set: AUG-CC-PVTZ
    Blend: AUG-CC-PVTZ
  Basis Set: (AUG-CC-PVTZ AUX)
    Blend: AUG-CC-PVTZ-JKFIT

    Orbital Energies [Eh]
    ---------------------

    Doubly Occupied:

       1A    -92.017087     2A    -20.353100     3A    -20.352300
       4A    -20.351727     5A    -11.134809     6A    -11.131963
       7A    -11.130089     8A    -11.128392     9A    -11.122040
      10A    -11.120456    11A    -11.111322    12A    -11.109084
      13A     -8.977498    14A     -6.663280    15A     -6.662427
      16A     -6.662348    17A     -1.271365    18A     -1.127959
      19A     -1.126105    20A     -1.051638    21A     -0.959348
      22A     -0.915161    23A     -0.840367    24A     -0.822275
      25A     -0.736885    26A     -0.669855    27A     -0.628028
      28A     -0.563372    29A     -0.543090    30A     -0.514001
      31A     -0.485916    32A     -0.475436    33A     -0.472375
      34A     -0.464475    35A     -0.462723    36A     -0.456394
      37A     -0.447953    38A     -0.423586    39A     -0.404226
      40A     -0.374294    41A     -0.354306    42A     -0.332553
      43A     -0.331772    44A     -0.298273    45A     -0.292315
      46A     -0.273714    47A     -0.250315    48A     -0.221583
      49A     -0.202988

  @DF-RHF Final Energy:  -930.52174631978630

   => Energetics <=

    Nuclear Repulsion Energy =            814.1419131189622931
    One-Electron Energy =               -2909.6821783936325119
    Two-Electron Energy =                1165.0185189548840299
    Total Energy =                       -930.5217463197861889
  Basis Set: (AUG-CC-PVTZ AUX)
    Blend: AUG-CC-PVTZ-RI
    Molecular point group: c1

    Geometry (in Angstrom), charge = -1, multiplicity = 1:

       Center              X                  Y                   Z               Mass
    ------------   -----------------  -----------------  -----------------  -----------------
         S            1.976430449661     0.000058808329     0.007683631662    31.972071174400
         O            2.288966449661     0.000060808329     1.460307631662    15.994914619570
         O            2.348722449661    -1.252567191671    -0.701440368338    15.994914619570
         O            2.348723449661     1.252680808329    -0.701445368338    15.994914619570
         C            0.169704449661     0.000058808329    -0.042997368338    12.000000000000
         C           -1.928340550339    -1.220380191671    -0.017574368338    12.000000000000
         C           -1.928340550339     1.220497808329    -0.017573368338    12.000000000000
         C           -0.529636550339     1.207842808329    -0.032548368338    12.000000000000
         C           -0.629627750339    -1.208630791671    -0.031478868338    12.000000000000
         C           -2.614705550339     0.000058808329     0.001506631662    12.000000000000
         C           -2.681406550339    -2.526813191671     0.020224631662    12.000000000000
         C           -2.681404550339     2.526931808329     0.020224631662    12.000000000000
         H            0.039963449661     2.134194808329    -0.076080368338     1.007825032230
         H            0.039961449661    -2.134078191671    -0.076081368338     1.007825032230
         H           -3.706615550339     0.000059808329     0.001403631662     1.007825032230
         H           -2.160150550339    -3.294419191671    -0.560093368338     1.007825032230
         H           -2.780776550339    -2.901945191671     1.045684631662     1.007825032230
         H           -3.690280550339    -2.414818191671    -0.391121368338     1.007825032230
         H           -2.780698550339     2.902108808329     1.045675631662     1.007825032230
         H           -2.160190550339     3.294513808329    -0.560164368338     1.007825032230
         H           -3.690307550339     2.414918808329    -0.391044368338     1.007825032230

  Basis Set: AUG-CC-PVTZ
    Blend: AUG-CC-PVTZ
  Basis Set: (AUG-CC-PVTZ AUX)
    Blend: AUG-CC-PVTZ-JKFIT
	 Reference Energy          =    -930.5217463197863026 [Eh]
	 Singles Energy            =      -0.0000000000000000 [Eh]
	 Same-Spin Energy          =      -0.6272776134596534 [Eh]
	 Opposite-Spin Energy      =      -1.8692913138546068 [Eh]
	 Correlation Energy        =      -2.4965689273142599 [Eh]
	 Total Energy              =    -933.0183152471005315 [Eh]

	 ================> DF-SCS-MP2 Energies <==================
	-----------------------------------------------------------
	 SCS Same-Spin Scale       =       0.3333333333333333 [-]
	 SCS Opposite-Spin Scale   =       1.2000000000000000 [-]
	 SCS Same-Spin Energy      =      -0.2090925378198845 [Eh]
	 SCS Opposite-Spin Energy  =      -2.2431495766255281 [Eh]
	 SCS Correlation Energy    =      -2.4522421144454123 [Eh]
	 SCS Total Energy          =    -932.9739884342317282 [Eh]
	-----------------------------------------------------------

  Dipole Moment: [D]
     X:   -10.2070      Y:     0.0788      Z:    -0.0669     Total:    10.2076

*** Psi4 exiting successfully. Buy a developer a beer!
