                               Psi4 1.4a3.dev225

  ==> Input File <==

--------------------------------------------------------------------------
#psi4
#
memory 32 gb

molecule  {
-1 1
  S        2.0766110     0.0000000     0.0075520
  O        2.3891470     0.0000020     1.4601760
  O        2.4489030    -1.2526260    -0.7015720
  O        2.4614241     1.2947472    -0.7254247
  C        0.2698850     0.0000000    -0.0431290
  C       -1.8281600    -1.2204390    -0.0177060
  C       -1.8281600     1.2204390    -0.0177050
  C       -0.4294560     1.2077840    -0.0326800
  C       -0.4294570    -1.2077850    -0.0326810
  C       -2.5145250     0.0000000     0.0013750
  C       -2.5812260    -2.5268720     0.0200930
  C       -2.5812240     2.5268730     0.0200930
  H        0.1401440     2.1341360    -0.0762120
  H        0.1401420    -2.1341370    -0.0762130
  H       -3.6064350     0.0000010     0.0012720
  H       -2.0599700    -3.2944780    -0.5602250
  H       -2.6805960    -2.9020040     1.0455530
  H       -3.5901000    -2.4148770    -0.3912530
  H       -2.6805180     2.9020500     1.0455440
  H       -2.0600100     3.2944550    -0.5602960
  H       -3.5901270     2.4148600    -0.3911760
units angstrom
no_reorient  #important for SAPT in psi4, default
symmetry c1  #important for SAPT in psi4, default
}

set PROPERTIES_ORIGIN ["COM"]
properties('MP2/aug-cc-pvtz', properties = ['dipole'])
--------------------------------------------------------------------------

    Molecular point group: c1
  Charge       = -1
  Multiplicity = 1
  Basis Set: AUG-CC-PVTZ
    Blend: AUG-CC-PVTZ
  Basis Set: (AUG-CC-PVTZ AUX)
    Blend: AUG-CC-PVTZ-JKFIT

    Orbital Energies [Eh]
    ---------------------

    Doubly Occupied:

       1A    -92.018046     2A    -20.354937     3A    -20.354096
       4A    -20.350398     5A    -11.135636     6A    -11.135310
       7A    -11.132799     8A    -11.132367     9A    -11.125897
      10A    -11.123645    11A    -11.113700    12A    -11.112922
      13A     -8.978333    14A     -6.664014    15A     -6.663203
      16A     -6.662926    17A     -1.261928    18A     -1.128095
      19A     -1.109162    20A     -1.046083    21A     -0.952993
      22A     -0.923543    23A     -0.841601    24A     -0.821355
      25A     -0.732431    26A     -0.676618    27A     -0.627608
      28A     -0.568554    29A     -0.542433    30A     -0.512322
      31A     -0.485791    32A     -0.475936    33A     -0.475580
      34A     -0.461019    35A     -0.458903    36A     -0.455419
      37A     -0.451038    38A     -0.426865    39A     -0.399850
      40A     -0.373251    41A     -0.372717    42A     -0.328021
      43A     -0.326916    44A     -0.297362    45A     -0.285514
      46A     -0.269440    47A     -0.249067    48A     -0.211945
      49A     -0.209646

  @DF-RHF Final Energy:  -930.52856907038210

   => Energetics <=

    Nuclear Repulsion Energy =            811.7314223724897602
    One-Electron Energy =               -2904.8855112215665031
    Two-Electron Energy =                1162.6255197786945246
    Total Energy =                       -930.5285690703822183
  Basis Set: (AUG-CC-PVTZ AUX)
    Blend: AUG-CC-PVTZ-RI
    Molecular point group: c1

    Geometry (in Angstrom), charge = -1, multiplicity = 1:

       Center              X                  Y                   Z               Mass
    ------------   -----------------  -----------------  -----------------  -----------------
         S            1.968863237784    -0.003641426167     0.009814603971    31.972071174400
         O            2.281399237784    -0.003639426167     1.462438603971    15.994914619570
         O            2.341155237784    -1.256267426167    -0.699309396029    15.994914619570
         O            2.353676337784     1.291105773833    -0.723162096029    15.994914619570
         C            0.162137237784    -0.003641426167    -0.040866396029    12.000000000000
         C           -1.935907762216    -1.224080426167    -0.015443396029    12.000000000000
         C           -1.935907762216     1.216797573833    -0.015442396029    12.000000000000
         C           -0.537203762216     1.204142573833    -0.030417396029    12.000000000000
         C           -0.537204762216    -1.211426426167    -0.030418396029    12.000000000000
         C           -2.622272762216    -0.003641426167     0.003637603971    12.000000000000
         C           -2.688973762216    -2.530513426167     0.022355603971    12.000000000000
         C           -2.688971762216     2.523231573833     0.022355603971    12.000000000000
         H            0.032396237784     2.130494573833    -0.073949396029     1.007825032230
         H            0.032394237784    -2.137778426167    -0.073950396029     1.007825032230
         H           -3.714182762216    -0.003640426167     0.003534603971     1.007825032230
         H           -2.167717762216    -3.298119426167    -0.557962396029     1.007825032230
         H           -2.788343762216    -2.905645426167     1.047815603971     1.007825032230
         H           -3.697847762216    -2.418518426167    -0.388990396029     1.007825032230
         H           -2.788265762216     2.898408573833     1.047806603971     1.007825032230
         H           -2.167757762216     3.290813573833    -0.558033396029     1.007825032230
         H           -3.697874762216     2.411218573833    -0.388913396029     1.007825032230

  Basis Set: AUG-CC-PVTZ
    Blend: AUG-CC-PVTZ
  Basis Set: (AUG-CC-PVTZ AUX)
    Blend: AUG-CC-PVTZ-JKFIT
	 Reference Energy          =    -930.5285690703821047 [Eh]
	 Singles Energy            =      -0.0000000000000000 [Eh]
	 Same-Spin Energy          =      -0.6282097322557638 [Eh]
	 Opposite-Spin Energy      =      -1.8712429810350959 [Eh]
	 Correlation Energy        =      -2.4994527132908599 [Eh]
	 Total Energy              =    -933.0280217836730117 [Eh]

	 ================> DF-SCS-MP2 Energies <==================
	-----------------------------------------------------------
	 SCS Same-Spin Scale       =       0.3333333333333333 [-]
	 SCS Opposite-Spin Scale   =       1.2000000000000000 [-]
	 SCS Same-Spin Energy      =      -0.2094032440852546 [Eh]
	 SCS Opposite-Spin Energy  =      -2.2454915772421149 [Eh]
	 SCS Correlation Energy    =      -2.4548948213273696 [Eh]
	 SCS Total Energy          =    -932.9834638917094480 [Eh]
	-----------------------------------------------------------

  Dipole Moment: [D]
     X:   -10.4512      Y:    -0.2481      Z:     0.0807     Total:    10.4545

*** Psi4 exiting successfully. Buy a developer a beer!
