                               Psi4 1.4a3.dev225

  ==> Input File <==

--------------------------------------------------------------------------
#psi4
#
memory 32 gb

molecule  {
-1 1
  S        2.0766110     0.0000000     0.0075520
  O        2.3891470     0.0000020     1.4601760
  O        2.4489030    -1.2526260    -0.7015720
  O        2.4489040     1.2526220    -0.7015770
  C        0.2698850     0.0000000    -0.0431290
  C       -1.8281600    -1.2204390    -0.0177060
  C       -1.8281600     1.2204390    -0.0177050
  C       -0.4294560     1.2077840    -0.0326800
  C       -0.4294570    -1.2077850    -0.0326810
  C       -2.5145250     0.0000000     0.0013750
  C       -2.5812260    -2.5268720     0.0200930
  C       -2.5812240     2.5268730     0.0200930
  H        0.1296766     2.1171127    -0.0754120
  H        0.1401420    -2.1341370    -0.0762130
  H       -3.6064350     0.0000010     0.0012720
  H       -2.0599700    -3.2944780    -0.5602250
  H       -2.6805960    -2.9020040     1.0455530
  H       -3.5901000    -2.4148770    -0.3912530
  H       -2.6805180     2.9020500     1.0455440
  H       -2.0600100     3.2944550    -0.5602960
  H       -3.5901270     2.4148600    -0.3911760
units angstrom
no_reorient  #important for SAPT in psi4, default
symmetry c1  #important for SAPT in psi4, default
}

set PROPERTIES_ORIGIN ["COM"]
properties('MP2/aug-cc-pvtz', properties = ['dipole'])
--------------------------------------------------------------------------

    Molecular point group: c1
  Charge       = -1
  Multiplicity = 1
  Basis Set: AUG-CC-PVTZ
    Blend: AUG-CC-PVTZ
  Basis Set: (AUG-CC-PVTZ AUX)
    Blend: AUG-CC-PVTZ-JKFIT

    Orbital Energies [Eh]
    ---------------------

    Doubly Occupied:

       1A    -92.013858     2A    -20.350784     3A    -20.350744
       4A    -20.349909     5A    -11.134465     6A    -11.134370
       7A    -11.131953     8A    -11.131868     9A    -11.123074
      10A    -11.122326    11A    -11.111738    12A    -11.109659
      13A     -8.974578    14A     -6.660292    15A     -6.659506
      16A     -6.659423    17A     -1.269758    18A     -1.126312
      19A     -1.124476    20A     -1.044954    21A     -0.952229
      22A     -0.922283    23A     -0.840779    24A     -0.820964
      25A     -0.730250    26A     -0.676266    27A     -0.624724
      28A     -0.569605    29A     -0.541276    30A     -0.513748
      31A     -0.485117    32A     -0.475514    33A     -0.475269
      34A     -0.463189    35A     -0.461328    36A     -0.455351
      37A     -0.451214    38A     -0.426479    39A     -0.399619
      40A     -0.372919    41A     -0.371774    42A     -0.331355
      43A     -0.330488    44A     -0.296482    45A     -0.290515
      46A     -0.269385    47A     -0.248734    48A     -0.210347
      49A     -0.208653

  @DF-RHF Final Energy:  -930.53587973460287

   => Energetics <=

    Nuclear Repulsion Energy =            814.1675351506764855
    One-Electron Energy =               -2909.8070266824711325
    Two-Electron Energy =                1165.1036117971916610
    Total Energy =                       -930.5358797346029860
  Basis Set: (AUG-CC-PVTZ AUX)
    Blend: AUG-CC-PVTZ-RI
    Molecular point group: c1

    Geometry (in Angstrom), charge = -1, multiplicity = 1:

       Center              X                  Y                   Z               Mass
    ------------   -----------------  -----------------  -----------------  -----------------
         S            1.970002568608     0.000092864438     0.007748701757    31.972071174400
         O            2.282538568608     0.000094864438     1.460372701757    15.994914619570
         O            2.342294568608    -1.252533135562    -0.701375298243    15.994914619570
         O            2.342295568608     1.252714864438    -0.701380298243    15.994914619570
         C            0.163276568608     0.000092864438    -0.042932298243    12.000000000000
         C           -1.934768431392    -1.220346135562    -0.017509298243    12.000000000000
         C           -1.934768431392     1.220531864438    -0.017508298243    12.000000000000
         C           -0.536064431392     1.207876864438    -0.032483298243    12.000000000000
         C           -0.536065431392    -1.207692135562    -0.032484298243    12.000000000000
         C           -2.621133431392     0.000092864438     0.001571701757    12.000000000000
         C           -2.687834431392    -2.526779135562     0.020289701757    12.000000000000
         C           -2.687832431392     2.526965864438     0.020289701757    12.000000000000
         H            0.023068168608     2.117205564438    -0.075215298243     1.007825032230
         H            0.033533568608    -2.134044135562    -0.076016298243     1.007825032230
         H           -3.713043431392     0.000093864438     0.001468701757     1.007825032230
         H           -2.166578431392    -3.294385135562    -0.560028298243     1.007825032230
         H           -2.787204431392    -2.901911135562     1.045749701757     1.007825032230
         H           -3.696708431392    -2.414784135562    -0.391056298243     1.007825032230
         H           -2.787126431392     2.902142864438     1.045740701757     1.007825032230
         H           -2.166618431392     3.294547864438    -0.560099298243     1.007825032230
         H           -3.696735431392     2.414952864438    -0.390979298243     1.007825032230

  Basis Set: AUG-CC-PVTZ
    Blend: AUG-CC-PVTZ
  Basis Set: (AUG-CC-PVTZ AUX)
    Blend: AUG-CC-PVTZ-JKFIT
	 Reference Energy          =    -930.5358797346028723 [Eh]
	 Singles Energy            =      -0.0000000000000000 [Eh]
	 Same-Spin Energy          =      -0.6272049353990250 [Eh]
	 Opposite-Spin Energy      =      -1.8684924200396904 [Eh]
	 Correlation Energy        =      -2.4956973554387156 [Eh]
	 Total Energy              =    -933.0315770900415373 [Eh]

	 ================> DF-SCS-MP2 Energies <==================
	-----------------------------------------------------------
	 SCS Same-Spin Scale       =       0.3333333333333333 [-]
	 SCS Opposite-Spin Scale   =       1.2000000000000000 [-]
	 SCS Same-Spin Energy      =      -0.2090683117996750 [Eh]
	 SCS Opposite-Spin Energy  =      -2.2421909040476282 [Eh]
	 SCS Correlation Energy    =      -2.4512592158473030 [Eh]
	 SCS Total Energy          =    -932.9871389504502304 [Eh]
	-----------------------------------------------------------

  Dipole Moment: [D]
     X:   -10.3010      Y:     0.0034      Z:    -0.0673     Total:    10.3012

*** Psi4 exiting successfully. Buy a developer a beer!
