                               Psi4 1.4a3.dev225

  ==> Input File <==

--------------------------------------------------------------------------
#psi4
#
memory 32 gb

molecule  {
-1 1
  S        2.0766110     0.0000000     0.0075520
  O        2.3891470     0.0000020     1.4601760
  O        2.4489030    -1.2526260    -0.7015720
  O        2.4489040     1.2526220    -0.7015770
  C        0.2908275    -0.0123824    -0.0443321
  C       -1.8281600    -1.2204390    -0.0177060
  C       -1.8281600     1.2204390    -0.0177050
  C       -0.4294560     1.2077840    -0.0326800
  C       -0.4294570    -1.2077850    -0.0326810
  C       -2.5145250     0.0000000     0.0013750
  C       -2.5812260    -2.5268720     0.0200930
  C       -2.5812240     2.5268730     0.0200930
  H        0.1401440     2.1341360    -0.0762120
  H        0.1401420    -2.1341370    -0.0762130
  H       -3.6064350     0.0000010     0.0012720
  H       -2.0599700    -3.2944780    -0.5602250
  H       -2.6805960    -2.9020040     1.0455530
  H       -3.5901000    -2.4148770    -0.3912530
  H       -2.6805180     2.9020500     1.0455440
  H       -2.0600100     3.2944550    -0.5602960
  H       -3.5901270     2.4148600    -0.3911760
units angstrom
no_reorient  #important for SAPT in psi4, default
symmetry c1  #important for SAPT in psi4, default
}

set PROPERTIES_ORIGIN ["COM"]
properties('MP2/aug-cc-pvtz', properties = ['dipole'])
--------------------------------------------------------------------------

    Molecular point group: c1
  Charge       = -1
  Multiplicity = 1
  Basis Set: AUG-CC-PVTZ
    Blend: AUG-CC-PVTZ
  Basis Set: (AUG-CC-PVTZ AUX)
    Blend: AUG-CC-PVTZ-JKFIT

    Orbital Energies [Eh]
    ---------------------

    Doubly Occupied:

       1A    -92.013990     2A    -20.351176     3A    -20.350130
       4A    -20.350004     5A    -11.134814     6A    -11.134349
       7A    -11.132131     8A    -11.131956     9A    -11.124908
      10A    -11.123011    11A    -11.114527    12A    -11.112354
      13A     -8.974891    14A     -6.660657    15A     -6.659819
      16A     -6.659735    17A     -1.270552    18A     -1.126529
      19A     -1.124731    20A     -1.043577    21A     -0.951897
      22A     -0.921530    23A     -0.841002    24A     -0.819092
      25A     -0.733912    26A     -0.675094    27A     -0.625211
      28A     -0.566949    29A     -0.540528    30A     -0.515474
      31A     -0.485106    32A     -0.475323    33A     -0.475126
      34A     -0.463702    35A     -0.461608    36A     -0.454819
      37A     -0.449464    38A     -0.425447    39A     -0.399812
      40A     -0.370763    41A     -0.370039    42A     -0.331495
      43A     -0.330618    44A     -0.296924    45A     -0.290505
      46A     -0.272772    47A     -0.248751    48A     -0.210191
      49A     -0.207376

  @DF-RHF Final Energy:  -930.53455137626827

   => Energetics <=

    Nuclear Repulsion Energy =            814.1513297727011604
    One-Electron Energy =               -2909.7630212649601162
    Two-Electron Energy =                1165.0771401159906873
    Total Energy =                       -930.5345513762683822
  Basis Set: (AUG-CC-PVTZ AUX)
    Blend: AUG-CC-PVTZ-RI
    Molecular point group: c1

    Geometry (in Angstrom), charge = -1, multiplicity = 1:

       Center              X                  Y                   Z               Mass
    ------------   -----------------  -----------------  -----------------  -----------------
         S            1.968587321279     0.000803204667     0.007831086707    31.972071174400
         O            2.281123321279     0.000805204667     1.460455086707    15.994914619570
         O            2.340879321279    -1.251822795333    -0.701292913293    15.994914619570
         O            2.340880321279     1.253425204667    -0.701297913293    15.994914619570
         C            0.182803821279    -0.011579195333    -0.044053013293    12.000000000000
         C           -1.936183678721    -1.219635795333    -0.017426913293    12.000000000000
         C           -1.936183678721     1.221242204667    -0.017425913293    12.000000000000
         C           -0.537479678721     1.208587204667    -0.032400913293    12.000000000000
         C           -0.537480678721    -1.206981795333    -0.032401913293    12.000000000000
         C           -2.622548678721     0.000803204667     0.001654086707    12.000000000000
         C           -2.689249678721    -2.526068795333     0.020372086707    12.000000000000
         C           -2.689247678721     2.527676204667     0.020372086707    12.000000000000
         H            0.032120321279     2.134939204667    -0.075932913293     1.007825032230
         H            0.032118321279    -2.133333795333    -0.075933913293     1.007825032230
         H           -3.714458678721     0.000804204667     0.001551086707     1.007825032230
         H           -2.167993678721    -3.293674795333    -0.559945913293     1.007825032230
         H           -2.788619678721    -2.901200795333     1.045832086707     1.007825032230
         H           -3.698123678721    -2.414073795333    -0.390973913293     1.007825032230
         H           -2.788541678721     2.902853204667     1.045823086707     1.007825032230
         H           -2.168033678721     3.295258204667    -0.560016913293     1.007825032230
         H           -3.698150678721     2.415663204667    -0.390896913293     1.007825032230

  Basis Set: AUG-CC-PVTZ
    Blend: AUG-CC-PVTZ
  Basis Set: (AUG-CC-PVTZ AUX)
    Blend: AUG-CC-PVTZ-JKFIT
	 Reference Energy          =    -930.5345513762682685 [Eh]
	 Singles Energy            =      -0.0000000000000000 [Eh]
	 Same-Spin Energy          =      -0.6273752146174505 [Eh]
	 Opposite-Spin Energy      =      -1.8689116311852920 [Eh]
	 Correlation Energy        =      -2.4962868458027425 [Eh]
	 Total Energy              =    -933.0308382220709973 [Eh]

	 ================> DF-SCS-MP2 Energies <==================
	-----------------------------------------------------------
	 SCS Same-Spin Scale       =       0.3333333333333333 [-]
	 SCS Opposite-Spin Scale   =       1.2000000000000000 [-]
	 SCS Same-Spin Energy      =      -0.2091250715391502 [Eh]
	 SCS Opposite-Spin Energy  =      -2.2426939574223503 [Eh]
	 SCS Correlation Energy    =      -2.4518190289615003 [Eh]
	 SCS Total Energy          =    -932.9863704052297635 [Eh]
	-----------------------------------------------------------

  Dipole Moment: [D]
     X:   -10.3090      Y:     0.0056      Z:    -0.0645     Total:    10.3092

*** Psi4 exiting successfully. Buy a developer a beer!
