                               Psi4 1.4a3.dev225

  ==> Input File <==

--------------------------------------------------------------------------
#psi4
#
memory 32 gb

molecule  {
-1 1
  S        2.0766110     0.0000000     0.0075520
  O        2.3891470     0.0000020     1.4601760
  O        2.4489030    -1.2526260    -0.7015720
  O        2.4489040     1.2526220    -0.7015770
  C        0.2273673     0.0236574    -0.0407136
  C       -1.8281600    -1.2204390    -0.0177060
  C       -1.8281600     1.2204390    -0.0177050
  C       -0.4294560     1.2077840    -0.0326800
  C       -0.4294570    -1.2077850    -0.0326810
  C       -2.5145250     0.0000000     0.0013750
  C       -2.5812260    -2.5268720     0.0200930
  C       -2.5812240     2.5268730     0.0200930
  H        0.1401440     2.1341360    -0.0762120
  H        0.1401420    -2.1341370    -0.0762130
  H       -3.6064350     0.0000010     0.0012720
  H       -2.0599700    -3.2944780    -0.5602250
  H       -2.6805960    -2.9020040     1.0455530
  H       -3.5901000    -2.4148770    -0.3912530
  H       -2.6805180     2.9020500     1.0455440
  H       -2.0600100     3.2944550    -0.5602960
  H       -3.5901270     2.4148600    -0.3911760
units angstrom
no_reorient  #important for SAPT in psi4, default
symmetry c1  #important for SAPT in psi4, default
}

set PROPERTIES_ORIGIN ["COM"]
properties('MP2/aug-cc-pvtz', properties = ['dipole'])
--------------------------------------------------------------------------

    Molecular point group: c1
  Charge       = -1
  Multiplicity = 1
  Basis Set: AUG-CC-PVTZ
    Blend: AUG-CC-PVTZ
  Basis Set: (AUG-CC-PVTZ AUX)
    Blend: AUG-CC-PVTZ-JKFIT

    Orbital Energies [Eh]
    ---------------------

    Doubly Occupied:

       1A    -92.013258     2A    -20.351883     3A    -20.349937
       4A    -20.349664     5A    -11.134841     6A    -11.133914
       7A    -11.131810     8A    -11.131450     9A    -11.121322
      10A    -11.119739    11A    -11.111071    12A    -11.106394
      13A     -8.973715    14A     -6.659336    15A     -6.658629
      16A     -6.658546    17A     -1.268199    18A     -1.125922
      19A     -1.123809    20A     -1.048012    21A     -0.952655
      22A     -0.923717    23A     -0.840286    24A     -0.822876
      25A     -0.722861    26A     -0.676558    27A     -0.623551
      28A     -0.569572    29A     -0.542901    30A     -0.509365
      31A     -0.485145    32A     -0.475367    33A     -0.475120
      34A     -0.462183    35A     -0.460660    36A     -0.454946
      37A     -0.452445    38A     -0.427932    39A     -0.398407
      40A     -0.375992    41A     -0.374310    42A     -0.331065
      43A     -0.329979    44A     -0.295609    45A     -0.290319
      46A     -0.261615    47A     -0.248636    48A     -0.214730
      49A     -0.207723

  @DF-RHF Final Energy:  -930.53394525653198

   => Energetics <=

    Nuclear Repulsion Energy =            813.9119551845108163
    One-Electron Energy =               -2909.3358467640291565
    Two-Electron Energy =                1164.8899463229865887
    Total Energy =                       -930.5339452565319789
  Basis Set: (AUG-CC-PVTZ AUX)
    Blend: AUG-CC-PVTZ-RI
    Molecular point group: c1

    Geometry (in Angstrom), charge = -1, multiplicity = 1:

       Center              X                  Y                   Z               Mass
    ------------   -----------------  -----------------  -----------------  -----------------
         S            1.972703052555    -0.001534167924     0.007596407749    31.972071174400
         O            2.285239052555    -0.001532167924     1.460220407749    15.994914619570
         O            2.344995052555    -1.254160167924    -0.701527592251    15.994914619570
         O            2.344996052555     1.251087832076    -0.701532592251    15.994914619570
         C            0.123459352555     0.022123232076    -0.040669192251    12.000000000000
         C           -1.932067947445    -1.221973167924    -0.017661592251    12.000000000000
         C           -1.932067947445     1.218904832076    -0.017660592251    12.000000000000
         C           -0.533363947445     1.206249832076    -0.032635592251    12.000000000000
         C           -0.533364947445    -1.209319167924    -0.032636592251    12.000000000000
         C           -2.618432947445    -0.001534167924     0.001419407749    12.000000000000
         C           -2.685133947445    -2.528406167924     0.020137407749    12.000000000000
         C           -2.685131947445     2.525338832076     0.020137407749    12.000000000000
         H            0.036236052555     2.132601832076    -0.076167592251     1.007825032230
         H            0.036234052555    -2.135671167924    -0.076168592251     1.007825032230
         H           -3.710342947445    -0.001533167924     0.001316407749     1.007825032230
         H           -2.163877947445    -3.296012167924    -0.560180592251     1.007825032230
         H           -2.784503947445    -2.903538167924     1.045597407749     1.007825032230
         H           -3.694007947445    -2.416411167924    -0.391208592251     1.007825032230
         H           -2.784425947445     2.900515832076     1.045588407749     1.007825032230
         H           -2.163917947445     3.292920832076    -0.560251592251     1.007825032230
         H           -3.694034947445     2.413325832076    -0.391131592251     1.007825032230

  Basis Set: AUG-CC-PVTZ
    Blend: AUG-CC-PVTZ
  Basis Set: (AUG-CC-PVTZ AUX)
    Blend: AUG-CC-PVTZ-JKFIT
	 Reference Energy          =    -930.5339452565319789 [Eh]
	 Singles Energy            =      -0.0000000000000000 [Eh]
	 Same-Spin Energy          =      -0.6272192794591838 [Eh]
	 Opposite-Spin Energy      =      -1.8684808937710724 [Eh]
	 Correlation Energy        =      -2.4957001732302562 [Eh]
	 Total Energy              =    -933.0296454297622404 [Eh]

	 ================> DF-SCS-MP2 Energies <==================
	-----------------------------------------------------------
	 SCS Same-Spin Scale       =       0.3333333333333333 [-]
	 SCS Opposite-Spin Scale   =       1.2000000000000000 [-]
	 SCS Same-Spin Energy      =      -0.2090730931530612 [Eh]
	 SCS Opposite-Spin Energy  =      -2.2421770725252870 [Eh]
	 SCS Correlation Energy    =      -2.4512501656783483 [Eh]
	 SCS Total Energy          =    -932.9851954222103814 [Eh]
	-----------------------------------------------------------

  Dipole Moment: [D]
     X:   -10.2727      Y:    -0.0115      Z:    -0.0748     Total:    10.2730

*** Psi4 exiting successfully. Buy a developer a beer!
