                               Psi4 1.4a3.dev225

  ==> Input File <==

--------------------------------------------------------------------------
#psi4
#
memory 32 gb

molecule  {
-1 1
  S        2.0766110     0.0000000     0.0075520
  O        2.3891470     0.0000020     1.4601760
  O        2.4489030    -1.2526260    -0.7015720
  O        2.4489040     1.2526220    -0.7015770
  C        0.2698850     0.0000000    -0.0431290
  C       -1.8281600    -1.2204390    -0.0177060
  C       -1.8281600     1.2204390    -0.0177050
  C       -0.4294560     1.2077840    -0.0326800
  C       -0.4294570    -1.2077850    -0.0326810
  C       -2.5145250     0.0000000     0.0013750
  C       -2.5812260    -2.5268720     0.0200930
  C       -2.5812240     2.5268730     0.0200930
  H        0.1401440     2.1341360    -0.0762120
  H        0.1401420    -2.1341370    -0.0762130
  H       -3.6064350     0.0000010     0.0012720
  H       -2.0599700    -3.2944780    -0.5602250
  H       -2.6715330    -2.8677902     0.9520261
  H       -3.5901000    -2.4148770    -0.3912530
  H       -2.6805180     2.9020500     1.0455440
  H       -2.0600100     3.2944550    -0.5602960
  H       -3.5901270     2.4148600    -0.3911760
units angstrom
no_reorient  #important for SAPT in psi4, default
symmetry c1  #important for SAPT in psi4, default
}

set PROPERTIES_ORIGIN ["COM"]
properties('MP2/aug-cc-pvtz', properties = ['dipole'])
--------------------------------------------------------------------------

    Molecular point group: c1
  Charge       = -1
  Multiplicity = 1
  Basis Set: AUG-CC-PVTZ
    Blend: AUG-CC-PVTZ
  Basis Set: (AUG-CC-PVTZ AUX)
    Blend: AUG-CC-PVTZ-JKFIT

    Orbital Energies [Eh]
    ---------------------

    Doubly Occupied:

       1A    -92.013665     2A    -20.350586     3A    -20.350562
       4A    -20.349745     5A    -11.134171     6A    -11.133777
       7A    -11.131663     8A    -11.122933     9A    -11.121913
      10A    -11.119349    11A    -11.111429    12A    -11.111348
      13A     -8.974388    14A     -6.660101    15A     -6.659315
      16A     -6.659232    17A     -1.269576    18A     -1.126128
      19A     -1.124306    20A     -1.044795    21A     -0.953977
      22A     -0.923007    23A     -0.845550    24A     -0.822697
      25A     -0.729978    26A     -0.677044    27A     -0.624869
      28A     -0.567984    29A     -0.540777    30A     -0.513259
      31A     -0.499595    32A     -0.479400    33A     -0.474580
      34A     -0.463164    35A     -0.461090    36A     -0.454189
      37A     -0.449843    38A     -0.425760    39A     -0.398876
      40A     -0.373158    41A     -0.371613    42A     -0.331184
      43A     -0.330319    44A     -0.296401    45A     -0.290282
      46A     -0.269187    47A     -0.248561    48A     -0.210216
      49A     -0.208749

  @DF-RHF Final Energy:  -930.52978072831706

   => Energetics <=

    Nuclear Repulsion Energy =            814.5390789769504636
    One-Electron Energy =               -2910.5291344202091750
    Two-Electron Energy =                1165.4602747149417610
    Total Energy =                       -930.5297807283170641
  Basis Set: (AUG-CC-PVTZ AUX)
    Blend: AUG-CC-PVTZ-RI
    Molecular point group: c1

    Geometry (in Angstrom), charge = -1, multiplicity = 1:

       Center              X                  Y                   Z               Mass
    ------------   -----------------  -----------------  -----------------  -----------------
         S            1.969896188456    -0.000186218965     0.008262491028    31.972071174400
         O            2.282432188456    -0.000184218965     1.460886491028    15.994914619570
         O            2.342188188456    -1.252812218965    -0.700861508972    15.994914619570
         O            2.342189188456     1.252435781035    -0.700866508972    15.994914619570
         C            0.163170188456    -0.000186218965    -0.042418508972    12.000000000000
         C           -1.934874811544    -1.220625218965    -0.016995508972    12.000000000000
         C           -1.934874811544     1.220252781035    -0.016994508972    12.000000000000
         C           -0.536170811544     1.207597781035    -0.031969508972    12.000000000000
         C           -0.536171811544    -1.207971218965    -0.031970508972    12.000000000000
         C           -2.621239811544    -0.000186218965     0.002085491028    12.000000000000
         C           -2.687940811544    -2.527058218965     0.020803491028    12.000000000000
         C           -2.687938811544     2.526686781035     0.020803491028    12.000000000000
         H            0.033429188456     2.133949781035    -0.075501508972     1.007825032230
         H            0.033427188456    -2.134323218965    -0.075502508972     1.007825032230
         H           -3.713149811544    -0.000185218965     0.001982491028     1.007825032230
         H           -2.166684811544    -3.294664218965    -0.559514508972     1.007825032230
         H           -2.778247811544    -2.867976418965     0.952736591028     1.007825032230
         H           -3.696814811544    -2.415063218965    -0.390542508972     1.007825032230
         H           -2.787232811544     2.901863781035     1.046254491028     1.007825032230
         H           -2.166724811544     3.294268781035    -0.559585508972     1.007825032230
         H           -3.696841811544     2.414673781035    -0.390465508972     1.007825032230

  Basis Set: AUG-CC-PVTZ
    Blend: AUG-CC-PVTZ
  Basis Set: (AUG-CC-PVTZ AUX)
    Blend: AUG-CC-PVTZ-JKFIT
	 Reference Energy          =    -930.5297807283170641 [Eh]
	 Singles Energy            =      -0.0000000000000000 [Eh]
	 Same-Spin Energy          =      -0.6273212416113499 [Eh]
	 Opposite-Spin Energy      =      -1.8682008058589745 [Eh]
	 Correlation Energy        =      -2.4955220474703244 [Eh]
	 Total Energy              =    -933.0253027757873951 [Eh]

	 ================> DF-SCS-MP2 Energies <==================
	-----------------------------------------------------------
	 SCS Same-Spin Scale       =       0.3333333333333333 [-]
	 SCS Opposite-Spin Scale   =       1.2000000000000000 [-]
	 SCS Same-Spin Energy      =      -0.2091070805371166 [Eh]
	 SCS Opposite-Spin Energy  =      -2.2418409670307695 [Eh]
	 SCS Correlation Energy    =      -2.4509480475678860 [Eh]
	 SCS Total Energy          =    -932.9807287758849270 [Eh]
	-----------------------------------------------------------

  Dipole Moment: [D]
     X:   -10.3246      Y:    -0.0490      Z:    -0.0300     Total:    10.3248

*** Psi4 exiting successfully. Buy a developer a beer!
