                               Psi4 1.4a3.dev225

  ==> Input File <==

--------------------------------------------------------------------------
#psi4
#
memory 32 gb

molecule  {
-1 1
  S        2.0766110     0.0000000     0.0075520
  O        2.3891470     0.0000020     1.4601760
  O        2.4489030    -1.2526260    -0.7015720
  O        2.4489040     1.2526220    -0.7015770
  C        0.2698850     0.0000000    -0.0431290
  C       -1.8281600    -1.2204390    -0.0177060
  C       -1.8167608     1.2320067     0.1393458
  C       -0.4294560     1.2077840    -0.0326800
  C       -0.4294570    -1.2077850    -0.0326810
  C       -2.5145250     0.0000000     0.0013750
  C       -2.5812260    -2.5268720     0.0200930
  C       -2.5812240     2.5268730     0.0200930
  H        0.1401440     2.1341360    -0.0762120
  H        0.1401420    -2.1341370    -0.0762130
  H       -3.6064350     0.0000010     0.0012720
  H       -2.0599700    -3.2944780    -0.5602250
  H       -2.6805960    -2.9020040     1.0455530
  H       -3.5901000    -2.4148770    -0.3912530
  H       -2.6805180     2.9020500     1.0455440
  H       -2.0600100     3.2944550    -0.5602960
  H       -3.5901270     2.4148600    -0.3911760
units angstrom
no_reorient  #important for SAPT in psi4, default
symmetry c1  #important for SAPT in psi4, default
}

set PROPERTIES_ORIGIN ["COM"]
properties('MP2/aug-cc-pvtz', properties = ['dipole'])
--------------------------------------------------------------------------

    Molecular point group: c1
  Charge       = -1
  Multiplicity = 1
  Basis Set: AUG-CC-PVTZ
    Blend: AUG-CC-PVTZ
  Basis Set: (AUG-CC-PVTZ AUX)
    Blend: AUG-CC-PVTZ-JKFIT

    Orbital Energies [Eh]
    ---------------------

    Doubly Occupied:

       1A    -92.013925     2A    -20.350729     3A    -20.350448
       4A    -20.350347     5A    -11.136930     6A    -11.134235
       7A    -11.131902     8A    -11.131873     9A    -11.125375
      10A    -11.122991    11A    -11.112925    12A    -11.112448
      13A     -8.974632    14A     -6.660353    15A     -6.659559
      16A     -6.659473    17A     -1.269768    18A     -1.126206
      19A     -1.124619    20A     -1.043510    21A     -0.952225
      22A     -0.921532    23A     -0.838868    24A     -0.820739
      25A     -0.729891    26A     -0.673769    27A     -0.625089
      28A     -0.567406    29A     -0.539750    30A     -0.514633
      31A     -0.486703    32A     -0.479335    33A     -0.468903
      34A     -0.463111    35A     -0.461003    36A     -0.454609
      37A     -0.450518    38A     -0.426087    39A     -0.400169
      40A     -0.374315    41A     -0.365299    42A     -0.331441
      43A     -0.330214    44A     -0.295936    45A     -0.290319
      46A     -0.269739    47A     -0.248786    48A     -0.209374
      49A     -0.207859

  @DF-RHF Final Energy:  -930.52702326825624

   => Energetics <=

    Nuclear Repulsion Energy =            813.7775600332677186
    One-Electron Energy =               -2909.0294330188676213
    Two-Electron Energy =                1164.7248497173438864
    Total Energy =                       -930.5270232682562437
  Basis Set: (AUG-CC-PVTZ AUX)
    Blend: AUG-CC-PVTZ-RI
    Molecular point group: c1

    Geometry (in Angstrom), charge = -1, multiplicity = 1:

       Center              X                  Y                   Z               Mass
    ------------   -----------------  -----------------  -----------------  -----------------
         S            1.969206255009    -0.000750086619    -0.002432519866    31.972071174400
         O            2.281742255009    -0.000748086619     1.450191480134    15.994914619570
         O            2.341498255009    -1.253376086619    -0.711556519866    15.994914619570
         O            2.341499255009     1.251871913381    -0.711561519866    15.994914619570
         C            0.162480255009    -0.000750086619    -0.053113519866    12.000000000000
         C           -1.935564744991    -1.221189086619    -0.027690519866    12.000000000000
         C           -1.924165544991     1.231256613381     0.129361280134    12.000000000000
         C           -0.536860744991     1.207033913381    -0.042664519866    12.000000000000
         C           -0.536861744991    -1.208535086619    -0.042665519866    12.000000000000
         C           -2.621929744991    -0.000750086619    -0.008609519866    12.000000000000
         C           -2.688630744991    -2.527622086619     0.010108480134    12.000000000000
         C           -2.688628744991     2.526122913381     0.010108480134    12.000000000000
         H            0.032739255009     2.133385913381    -0.086196519866     1.007825032230
         H            0.032737255009    -2.134887086619    -0.086197519866     1.007825032230
         H           -3.713839744991    -0.000749086619    -0.008712519866     1.007825032230
         H           -2.167374744991    -3.295228086619    -0.570209519866     1.007825032230
         H           -2.788000744991    -2.902754086619     1.035568480134     1.007825032230
         H           -3.697504744991    -2.415627086619    -0.401237519866     1.007825032230
         H           -2.787922744991     2.901299913381     1.035559480134     1.007825032230
         H           -2.167414744991     3.293704913381    -0.570280519866     1.007825032230
         H           -3.697531744991     2.414109913381    -0.401160519866     1.007825032230

  Basis Set: AUG-CC-PVTZ
    Blend: AUG-CC-PVTZ
  Basis Set: (AUG-CC-PVTZ AUX)
    Blend: AUG-CC-PVTZ-JKFIT
	 Reference Energy          =    -930.5270232682562437 [Eh]
	 Singles Energy            =      -0.0000000000000000 [Eh]
	 Same-Spin Energy          =      -0.6276855959062305 [Eh]
	 Opposite-Spin Energy      =      -1.8697570926980525 [Eh]
	 Correlation Energy        =      -2.4974426886042829 [Eh]
	 Total Energy              =    -933.0244659568605812 [Eh]

	 ================> DF-SCS-MP2 Energies <==================
	-----------------------------------------------------------
	 SCS Same-Spin Scale       =       0.3333333333333333 [-]
	 SCS Opposite-Spin Scale   =       1.2000000000000000 [-]
	 SCS Same-Spin Energy      =      -0.2092285319687435 [Eh]
	 SCS Opposite-Spin Energy  =      -2.2437085112376627 [Eh]
	 SCS Correlation Energy    =      -2.4529370432064064 [Eh]
	 SCS Total Energy          =    -932.9799603114626052 [Eh]
	-----------------------------------------------------------

  Dipole Moment: [D]
     X:   -10.2862      Y:     0.0051      Z:    -0.0996     Total:    10.2866

*** Psi4 exiting successfully. Buy a developer a beer!
