                               Psi4 1.4a3.dev225

  ==> Input File <==

--------------------------------------------------------------------------
#psi4
#
memory 32 gb

molecule  {
-1 1
  S        2.0766110     0.0000000     0.0075520
  O        2.4081737     0.0479879     1.4551564
  O        2.4489030    -1.2526260    -0.7015720
  O        2.4489040     1.2526220    -0.7015770
  C        0.2698850     0.0000000    -0.0431290
  C       -1.8281600    -1.2204390    -0.0177060
  C       -1.8281600     1.2204390    -0.0177050
  C       -0.4294560     1.2077840    -0.0326800
  C       -0.4294570    -1.2077850    -0.0326810
  C       -2.5145250     0.0000000     0.0013750
  C       -2.5812260    -2.5268720     0.0200930
  C       -2.5812240     2.5268730     0.0200930
  H        0.1401440     2.1341360    -0.0762120
  H        0.1401420    -2.1341370    -0.0762130
  H       -3.6064350     0.0000010     0.0012720
  H       -2.0599700    -3.2944780    -0.5602250
  H       -2.6805960    -2.9020040     1.0455530
  H       -3.5901000    -2.4148770    -0.3912530
  H       -2.6805180     2.9020500     1.0455440
  H       -2.0600100     3.2944550    -0.5602960
  H       -3.5901270     2.4148600    -0.3911760
units angstrom
no_reorient  #important for SAPT in psi4, default
symmetry c1  #important for SAPT in psi4, default
}

set PROPERTIES_ORIGIN ["COM"]
properties('MP2/aug-cc-pvtz', properties = ['dipole'])
--------------------------------------------------------------------------

    Molecular point group: c1
  Charge       = -1
  Multiplicity = 1
  Basis Set: AUG-CC-PVTZ
    Blend: AUG-CC-PVTZ
  Basis Set: (AUG-CC-PVTZ AUX)
    Blend: AUG-CC-PVTZ-JKFIT

    Orbital Energies [Eh]
    ---------------------

    Doubly Occupied:

       1A    -92.013461     2A    -20.352877     3A    -20.349411
       4A    -20.347075     5A    -11.134949     6A    -11.134847
       7A    -11.132304     8A    -11.132102     9A    -11.123937
      10A    -11.122978    11A    -11.112547    12A    -11.112346
      13A     -8.974212    14A     -6.659925    15A     -6.659153
      16A     -6.659040    17A     -1.269374    18A     -1.127693
      19A     -1.121516    20A     -1.045414    21A     -0.952466
      22A     -0.922714    23A     -0.841105    24A     -0.820751
      25A     -0.730636    26A     -0.675983    27A     -0.624791
      28A     -0.568141    29A     -0.541706    30A     -0.513333
      31A     -0.485418    32A     -0.475572    33A     -0.475511
      34A     -0.463125    35A     -0.460460    36A     -0.455149
      37A     -0.450700    38A     -0.426685    39A     -0.399652
      40A     -0.372672    41A     -0.372112    42A     -0.331650
      43A     -0.329064    44A     -0.296204    45A     -0.289281
      46A     -0.269932    47A     -0.247735    48A     -0.211037
      49A     -0.209093

  @DF-RHF Final Energy:  -930.53552475320430

   => Energetics <=

    Nuclear Repulsion Energy =            813.9057027543361755
    One-Electron Energy =               -2909.2867825050561805
    Two-Electron Energy =                1164.8455549975155918
    Total Energy =                       -930.5355247532042995
  Basis Set: (AUG-CC-PVTZ AUX)
    Blend: AUG-CC-PVTZ-RI
    Molecular point group: c1

    Geometry (in Angstrom), charge = -1, multiplicity = 1:

       Center              X                  Y                   Z               Mass
    ------------   -----------------  -----------------  -----------------  -----------------
         S            1.968300766489    -0.004148061816     0.008186984970    31.972071174400
         O            2.299863466489     0.043839838184     1.455791384970    15.994914619570
         O            2.340592766489    -1.256774061816    -0.700937015030    15.994914619570
         O            2.340593766489     1.248473938184    -0.700942015030    15.994914619570
         C            0.161574766489    -0.004148061816    -0.042494015030    12.000000000000
         C           -1.936470233511    -1.224587061816    -0.017071015030    12.000000000000
         C           -1.936470233511     1.216290938184    -0.017070015030    12.000000000000
         C           -0.537766233511     1.203635938184    -0.032045015030    12.000000000000
         C           -0.537767233511    -1.211933061816    -0.032046015030    12.000000000000
         C           -2.622835233511    -0.004148061816     0.002009984970    12.000000000000
         C           -2.689536233511    -2.531020061816     0.020727984970    12.000000000000
         C           -2.689534233511     2.522724938184     0.020727984970    12.000000000000
         H            0.031833766489     2.129987938184    -0.075577015030     1.007825032230
         H            0.031831766489    -2.138285061816    -0.075578015030     1.007825032230
         H           -3.714745233511    -0.004147061816     0.001906984970     1.007825032230
         H           -2.168280233511    -3.298626061816    -0.559590015030     1.007825032230
         H           -2.788906233511    -2.906152061816     1.046187984970     1.007825032230
         H           -3.698410233511    -2.419025061816    -0.390618015030     1.007825032230
         H           -2.788828233511     2.897901938184     1.046178984970     1.007825032230
         H           -2.168320233511     3.290306938184    -0.559661015030     1.007825032230
         H           -3.698437233511     2.410711938184    -0.390541015030     1.007825032230

  Basis Set: AUG-CC-PVTZ
    Blend: AUG-CC-PVTZ
  Basis Set: (AUG-CC-PVTZ AUX)
    Blend: AUG-CC-PVTZ-JKFIT
	 Reference Energy          =    -930.5355247532042995 [Eh]
	 Singles Energy            =      -0.0000000000000000 [Eh]
	 Same-Spin Energy          =      -0.6272399986708718 [Eh]
	 Opposite-Spin Energy      =      -1.8685799635810010 [Eh]
	 Correlation Energy        =      -2.4958199622518729 [Eh]
	 Total Energy              =    -933.0313447154561572 [Eh]

	 ================> DF-SCS-MP2 Energies <==================
	-----------------------------------------------------------
	 SCS Same-Spin Scale       =       0.3333333333333333 [-]
	 SCS Opposite-Spin Scale   =       1.2000000000000000 [-]
	 SCS Same-Spin Energy      =      -0.2090799995569572 [Eh]
	 SCS Opposite-Spin Energy  =      -2.2422959562972009 [Eh]
	 SCS Correlation Energy    =      -2.4513759558541581 [Eh]
	 SCS Total Energy          =    -932.9869007090584319 [Eh]
	-----------------------------------------------------------

  Dipole Moment: [D]
     X:   -10.3698      Y:    -0.1096      Z:    -0.0593     Total:    10.3706

*** Psi4 exiting successfully. Buy a developer a beer!
