                               Psi4 1.4a3.dev225

  ==> Input File <==

--------------------------------------------------------------------------
#psi4
#
memory 32 gb

molecule  {
-1 1
  S        2.0766110     0.0000000     0.0075520
  O        2.3891470     0.0000020     1.4601760
  O        2.4489030    -1.2526260    -0.7015720
  O        2.4489040     1.2526220    -0.7015770
  C        0.2698850     0.0000000    -0.0431290
  C       -1.7860019    -1.1957325    -0.0188780
  C       -1.8281600     1.2204390    -0.0177050
  C       -0.4294560     1.2077840    -0.0326800
  C       -0.4294570    -1.2077850    -0.0326810
  C       -2.5145250     0.0000000     0.0013750
  C       -2.5812260    -2.5268720     0.0200930
  C       -2.5812240     2.5268730     0.0200930
  H        0.1401440     2.1341360    -0.0762120
  H        0.1401420    -2.1341370    -0.0762130
  H       -3.6064350     0.0000010     0.0012720
  H       -2.0599700    -3.2944780    -0.5602250
  H       -2.6805960    -2.9020040     1.0455530
  H       -3.5901000    -2.4148770    -0.3912530
  H       -2.6805180     2.9020500     1.0455440
  H       -2.0600100     3.2944550    -0.5602960
  H       -3.5901270     2.4148600    -0.3911760
units angstrom
no_reorient  #important for SAPT in psi4, default
symmetry c1  #important for SAPT in psi4, default
}

set PROPERTIES_ORIGIN ["COM"]
properties('MP2/aug-cc-pvtz', properties = ['dipole'])
--------------------------------------------------------------------------

    Molecular point group: c1
  Charge       = -1
  Multiplicity = 1
  Basis Set: AUG-CC-PVTZ
    Blend: AUG-CC-PVTZ
  Basis Set: (AUG-CC-PVTZ AUX)
    Blend: AUG-CC-PVTZ-JKFIT

    Orbital Energies [Eh]
    ---------------------

    Doubly Occupied:

       1A    -92.014043     2A    -20.351244     3A    -20.350831
       4A    -20.350262     5A    -11.134929     6A    -11.132264
       7A    -11.131995     8A    -11.131673     9A    -11.123945
      10A    -11.121986    11A    -11.111281    12A    -11.107311
      13A     -8.974785    14A     -6.660496    15A     -6.659712
      16A     -6.659630    17A     -1.270055    18A     -1.126596
      19A     -1.124782    20A     -1.048184    21A     -0.951213
      22A     -0.920057    23A     -0.839036    24A     -0.822342
      25A     -0.733600    26A     -0.673475    27A     -0.625339
      28A     -0.569925    29A     -0.541952    30A     -0.513338
      31A     -0.483863    32A     -0.472914    33A     -0.470689
      34A     -0.463201    35A     -0.461328    36A     -0.454043
      37A     -0.450300    38A     -0.427487    39A     -0.405065
      40A     -0.375194    41A     -0.364085    42A     -0.331578
      43A     -0.330852    44A     -0.296917    45A     -0.290804
      46A     -0.269693    47A     -0.249023    48A     -0.214283
      49A     -0.209318

  @DF-RHF Final Energy:  -930.53376430942876

   => Energetics <=

    Nuclear Repulsion Energy =            814.7524578949660281
    One-Electron Energy =               -2910.9786153279792416
    Two-Electron Energy =                1165.6923931235844520
    Total Energy =                       -930.5337643094287614
  Basis Set: (AUG-CC-PVTZ AUX)
    Blend: AUG-CC-PVTZ-RI
    Molecular point group: c1

    Geometry (in Angstrom), charge = -1, multiplicity = 1:

       Center              X                  Y                   Z               Mass
    ------------   -----------------  -----------------  -----------------  -----------------
         S            1.967211376853    -0.001602207635     0.007829069707    31.972071174400
         O            2.279747376853    -0.001600207635     1.460453069707    15.994914619570
         O            2.339503376853    -1.254228207635    -0.701294930293    15.994914619570
         O            2.339504376853     1.251019792365    -0.701299930293    15.994914619570
         C            0.160485376853    -0.001602207635    -0.042851930293    12.000000000000
         C           -1.895401523147    -1.197334707635    -0.018600930293    12.000000000000
         C           -1.937559623147     1.218836792365    -0.017427930293    12.000000000000
         C           -0.538855623147     1.206181792365    -0.032402930293    12.000000000000
         C           -0.538856623147    -1.209387207635    -0.032403930293    12.000000000000
         C           -2.623924623147    -0.001602207635     0.001652069707    12.000000000000
         C           -2.690625623147    -2.528474207635     0.020370069707    12.000000000000
         C           -2.690623623147     2.525270792365     0.020370069707    12.000000000000
         H            0.030744376853     2.132533792365    -0.075934930293     1.007825032230
         H            0.030742376853    -2.135739207635    -0.075935930293     1.007825032230
         H           -3.715834623147    -0.001601207635     0.001549069707     1.007825032230
         H           -2.169369623147    -3.296080207635    -0.559947930293     1.007825032230
         H           -2.789995623147    -2.903606207635     1.045830069707     1.007825032230
         H           -3.699499623147    -2.416479207635    -0.390975930293     1.007825032230
         H           -2.789917623147     2.900447792365     1.045821069707     1.007825032230
         H           -2.169409623147     3.292852792365    -0.560018930293     1.007825032230
         H           -3.699526623147     2.413257792365    -0.390898930293     1.007825032230

  Basis Set: AUG-CC-PVTZ
    Blend: AUG-CC-PVTZ
  Basis Set: (AUG-CC-PVTZ AUX)
    Blend: AUG-CC-PVTZ-JKFIT
	 Reference Energy          =    -930.5337643094287614 [Eh]
	 Singles Energy            =      -0.0000000000000000 [Eh]
	 Same-Spin Energy          =      -0.6269833565549621 [Eh]
	 Opposite-Spin Energy      =      -1.8682542657836545 [Eh]
	 Correlation Energy        =      -2.4952376223386166 [Eh]
	 Total Energy              =    -933.0290019317674250 [Eh]

	 ================> DF-SCS-MP2 Energies <==================
	-----------------------------------------------------------
	 SCS Same-Spin Scale       =       0.3333333333333333 [-]
	 SCS Opposite-Spin Scale   =       1.2000000000000000 [-]
	 SCS Same-Spin Energy      =      -0.2089944521849874 [Eh]
	 SCS Opposite-Spin Energy  =      -2.2419051189403851 [Eh]
	 SCS Correlation Energy    =      -2.4508995711253725 [Eh]
	 SCS Total Energy          =    -932.9846638805540806 [Eh]
	-----------------------------------------------------------

  Dipole Moment: [D]
     X:   -10.2582      Y:     0.0697      Z:    -0.0709     Total:    10.2587

*** Psi4 exiting successfully. Buy a developer a beer!
