                               Psi4 1.4a3.dev225

  ==> Input File <==

--------------------------------------------------------------------------
#psi4
#
memory 32 gb

molecule  {
-1 1
  S        2.0766110     0.0000000     0.0075520
  O        2.3794894    -0.0239946     1.4620224
  O        2.4489030    -1.2526260    -0.7015720
  O        2.4489040     1.2526220    -0.7015770
  C        0.2698850     0.0000000    -0.0431290
  C       -1.8281600    -1.2204390    -0.0177060
  C       -1.8281600     1.2204390    -0.0177050
  C       -0.4294560     1.2077840    -0.0326800
  C       -0.4294570    -1.2077850    -0.0326810
  C       -2.5145250     0.0000000     0.0013750
  C       -2.5812260    -2.5268720     0.0200930
  C       -2.5812240     2.5268730     0.0200930
  H        0.1401440     2.1341360    -0.0762120
  H        0.1401420    -2.1341370    -0.0762130
  H       -3.6064350     0.0000010     0.0012720
  H       -2.0599700    -3.2944780    -0.5602250
  H       -2.6805960    -2.9020040     1.0455530
  H       -3.5901000    -2.4148770    -0.3912530
  H       -2.6805180     2.9020500     1.0455440
  H       -2.0600100     3.2944550    -0.5602960
  H       -3.5901270     2.4148600    -0.3911760
units angstrom
no_reorient  #important for SAPT in psi4, default
symmetry c1  #important for SAPT in psi4, default
}

set PROPERTIES_ORIGIN ["COM"]
properties('MP2/aug-cc-pvtz', properties = ['dipole'])
--------------------------------------------------------------------------

    Molecular point group: c1
  Charge       = -1
  Multiplicity = 1
  Basis Set: AUG-CC-PVTZ
    Blend: AUG-CC-PVTZ
  Basis Set: (AUG-CC-PVTZ AUX)
    Blend: AUG-CC-PVTZ-JKFIT

    Orbital Energies [Eh]
    ---------------------

    Doubly Occupied:

       1A    -92.014059     2A    -20.352573     3A    -20.350128
       4A    -20.349693     5A    -11.134311     6A    -11.134247
       7A    -11.131790     8A    -11.131689     9A    -11.122865
      10A    -11.122143    11A    -11.111612    12A    -11.111493
      13A     -8.974770    14A     -6.660486    15A     -6.659704
      16A     -6.659606    17A     -1.269971    18A     -1.127419
      19A     -1.124084    20A     -1.044663    21A     -0.951857
      22A     -0.921914    23A     -0.840527    24A     -0.820114
      25A     -0.729853    26A     -0.675329    27A     -0.624653
      28A     -0.567619    29A     -0.541078    30A     -0.513551
      31A     -0.484934    32A     -0.475105    33A     -0.475030
      34A     -0.463538    35A     -0.461395    36A     -0.454702
      37A     -0.450073    38A     -0.426162    39A     -0.399128
      40A     -0.372007    41A     -0.371695    42A     -0.331841
      43A     -0.330558    44A     -0.296980    45A     -0.290662
      46A     -0.269145    47A     -0.249076    48A     -0.210099
      49A     -0.208471

  @DF-RHF Final Energy:  -930.53552272809998

   => Energetics <=

    Nuclear Repulsion Energy =            814.1468840802376690
    One-Electron Energy =               -2909.7760136138640519
    Two-Electron Energy =                1165.0936068055264059
    Total Energy =                       -930.5355227280999770
  Basis Set: (AUG-CC-PVTZ AUX)
    Blend: AUG-CC-PVTZ-RI
    Molecular point group: c1

    Geometry (in Angstrom), charge = -1, multiplicity = 1:

       Center              X                  Y                   Z               Mass
    ------------   -----------------  -----------------  -----------------  -----------------
         S            1.970780417207     0.002074556754     0.007593444886    31.972071174400
         O            2.273658817207    -0.021920043246     1.462063844886    15.994914619570
         O            2.343072417207    -1.250551443246    -0.701530555114    15.994914619570
         O            2.343073417207     1.254696556754    -0.701535555114    15.994914619570
         C            0.164054417207     0.002074556754    -0.043087555114    12.000000000000
         C           -1.933990582793    -1.218364443246    -0.017664555114    12.000000000000
         C           -1.933990582793     1.222513556754    -0.017663555114    12.000000000000
         C           -0.535286582793     1.209858556754    -0.032638555114    12.000000000000
         C           -0.535287582793    -1.205710443246    -0.032639555114    12.000000000000
         C           -2.620355582793     0.002074556754     0.001416444886    12.000000000000
         C           -2.687056582793    -2.524797443246     0.020134444886    12.000000000000
         C           -2.687054582793     2.528947556754     0.020134444886    12.000000000000
         H            0.034313417207     2.136210556754    -0.076170555114     1.007825032230
         H            0.034311417207    -2.132062443246    -0.076171555114     1.007825032230
         H           -3.712265582793     0.002075556754     0.001313444886     1.007825032230
         H           -2.165800582793    -3.292403443246    -0.560183555114     1.007825032230
         H           -2.786426582793    -2.899929443246     1.045594444886     1.007825032230
         H           -3.695930582793    -2.412802443246    -0.391211555114     1.007825032230
         H           -2.786348582793     2.904124556754     1.045585444886     1.007825032230
         H           -2.165840582793     3.296529556754    -0.560254555114     1.007825032230
         H           -3.695957582793     2.416934556754    -0.391134555114     1.007825032230

  Basis Set: AUG-CC-PVTZ
    Blend: AUG-CC-PVTZ
  Basis Set: (AUG-CC-PVTZ AUX)
    Blend: AUG-CC-PVTZ-JKFIT
	 Reference Energy          =    -930.5355227280999770 [Eh]
	 Singles Energy            =      -0.0000000000000000 [Eh]
	 Same-Spin Energy          =      -0.6273117459543498 [Eh]
	 Opposite-Spin Energy      =      -1.8687233821998093 [Eh]
	 Correlation Energy        =      -2.4960351281541593 [Eh]
	 Total Energy              =    -933.0315578562541532 [Eh]

	 ================> DF-SCS-MP2 Energies <==================
	-----------------------------------------------------------
	 SCS Same-Spin Scale       =       0.3333333333333333 [-]
	 SCS Opposite-Spin Scale   =       1.2000000000000000 [-]
	 SCS Same-Spin Energy      =      -0.2091039153181166 [Eh]
	 SCS Opposite-Spin Energy  =      -2.2424680586397709 [Eh]
	 SCS Correlation Energy    =      -2.4515719739578876 [Eh]
	 SCS Total Energy          =    -932.9870947020579024 [Eh]
	-----------------------------------------------------------

  Dipole Moment: [D]
     X:   -10.2600      Y:     0.0546      Z:    -0.0709     Total:    10.2604

*** Psi4 exiting successfully. Buy a developer a beer!
