                               Psi4 1.4a3.dev225

  ==> Input File <==

--------------------------------------------------------------------------
#psi4
#
memory 32 gb

molecule  {
-1 1
  S        2.0766110     0.0000000     0.0075520
  O        2.3891470     0.0000020     1.4601760
  O        2.4489030    -1.2526260    -0.7015720
  O        2.4363839     1.2104968    -0.6777293
  C        0.2698850     0.0000000    -0.0431290
  C       -1.8281600    -1.2204390    -0.0177060
  C       -1.8281600     1.2204390    -0.0177050
  C       -0.4294560     1.2077840    -0.0326800
  C       -0.4294570    -1.2077850    -0.0326810
  C       -2.5145250     0.0000000     0.0013750
  C       -2.5812260    -2.5268720     0.0200930
  C       -2.5812240     2.5268730     0.0200930
  H        0.1401440     2.1341360    -0.0762120
  H        0.1401420    -2.1341370    -0.0762130
  H       -3.6064350     0.0000010     0.0012720
  H       -2.0599700    -3.2944780    -0.5602250
  H       -2.6805960    -2.9020040     1.0455530
  H       -3.5901000    -2.4148770    -0.3912530
  H       -2.6805180     2.9020500     1.0455440
  H       -2.0600100     3.2944550    -0.5602960
  H       -3.5901270     2.4148600    -0.3911760
units angstrom
no_reorient  #important for SAPT in psi4, default
symmetry c1  #important for SAPT in psi4, default
}

set PROPERTIES_ORIGIN ["COM"]
properties('MP2/aug-cc-pvtz', properties = ['dipole'])
--------------------------------------------------------------------------

    Molecular point group: c1
  Charge       = -1
  Multiplicity = 1
  Basis Set: AUG-CC-PVTZ
    Blend: AUG-CC-PVTZ
  Basis Set: (AUG-CC-PVTZ AUX)
    Blend: AUG-CC-PVTZ-JKFIT

    Orbital Energies [Eh]
    ---------------------

    Doubly Occupied:

       1A    -92.008368     2A    -20.351332     3A    -20.346297
       4A    -20.345439     5A    -11.133646     6A    -11.133286
       7A    -11.131408     8A    -11.130947     9A    -11.121154
      10A    -11.120317    11A    -11.110758    12A    -11.109905
      13A     -8.970039    14A     -6.655749    15A     -6.655294
      16A     -6.654802    17A     -1.282379    18A     -1.140111
      19A     -1.121585    20A     -1.043678    21A     -0.951093
      22A     -0.920772    23A     -0.839810    24A     -0.819261
      25A     -0.727844    26A     -0.674450    27A     -0.621749
      28A     -0.567133    29A     -0.540139    30A     -0.515519
      31A     -0.484428    32A     -0.474922    33A     -0.474553
      34A     -0.466721    35A     -0.464633    36A     -0.454233
      37A     -0.449377    38A     -0.425750    39A     -0.399071
      40A     -0.371175    41A     -0.370992    42A     -0.334917
      43A     -0.334387    44A     -0.298937    45A     -0.291668
      46A     -0.268485    47A     -0.247831    48A     -0.208864
      49A     -0.207629

  @DF-RHF Final Energy:  -930.53851215337545

   => Energetics <=

    Nuclear Repulsion Energy =            816.5066200884006093
    One-Electron Energy =               -2914.5445870335174732
    Two-Electron Energy =                1167.4994547917413001
    Total Energy =                       -930.5385121533754500
  Basis Set: (AUG-CC-PVTZ AUX)
    Blend: AUG-CC-PVTZ-RI
    Molecular point group: c1

    Geometry (in Angstrom), charge = -1, multiplicity = 1:

       Center              X                  Y                   Z               Mass
    ------------   -----------------  -----------------  -----------------  -----------------
         S            1.971027869653     0.003641706589     0.005691514584    31.972071174400
         O            2.283563869653     0.003643706589     1.458315514584    15.994914619570
         O            2.343319869653    -1.248984293411    -0.703432485416    15.994914619570
         O            2.330800769653     1.214138506589    -0.679589785416    15.994914619570
         C            0.164301869653     0.003641706589    -0.044989485416    12.000000000000
         C           -1.933743130347    -1.216797293411    -0.019566485416    12.000000000000
         C           -1.933743130347     1.224080706589    -0.019565485416    12.000000000000
         C           -0.535039130347     1.211425706589    -0.034540485416    12.000000000000
         C           -0.535040130347    -1.204143293411    -0.034541485416    12.000000000000
         C           -2.620108130347     0.003641706589    -0.000485485416    12.000000000000
         C           -2.686809130347    -2.523230293411     0.018232514584    12.000000000000
         C           -2.686807130347     2.530514706589     0.018232514584    12.000000000000
         H            0.034560869653     2.137777706589    -0.078072485416     1.007825032230
         H            0.034558869653    -2.130495293411    -0.078073485416     1.007825032230
         H           -3.712018130347     0.003642706589    -0.000588485416     1.007825032230
         H           -2.165553130347    -3.290836293411    -0.562085485416     1.007825032230
         H           -2.786179130347    -2.898362293411     1.043692514584     1.007825032230
         H           -3.695683130347    -2.411235293411    -0.393113485416     1.007825032230
         H           -2.786101130347     2.905691706589     1.043683514584     1.007825032230
         H           -2.165593130347     3.298096706589    -0.562156485416     1.007825032230
         H           -3.695710130347     2.418501706589    -0.393036485416     1.007825032230

  Basis Set: AUG-CC-PVTZ
    Blend: AUG-CC-PVTZ
  Basis Set: (AUG-CC-PVTZ AUX)
    Blend: AUG-CC-PVTZ-JKFIT
	 Reference Energy          =    -930.5385121533754500 [Eh]
	 Singles Energy            =      -0.0000000000000000 [Eh]
	 Same-Spin Energy          =      -0.6262350396143879 [Eh]
	 Opposite-Spin Energy      =      -1.8659481420990176 [Eh]
	 Correlation Energy        =      -2.4921831817134055 [Eh]
	 Total Energy              =    -933.0306953350888080 [Eh]

	 ================> DF-SCS-MP2 Energies <==================
	-----------------------------------------------------------
	 SCS Same-Spin Scale       =       0.3333333333333333 [-]
	 SCS Opposite-Spin Scale   =       1.2000000000000000 [-]
	 SCS Same-Spin Energy      =      -0.2087450132047959 [Eh]
	 SCS Opposite-Spin Energy  =      -2.2391377705188211 [Eh]
	 SCS Correlation Energy    =      -2.4478827837236170 [Eh]
	 SCS Total Energy          =    -932.9863949370990213 [Eh]
	-----------------------------------------------------------

  Dipole Moment: [D]
     X:   -10.1437      Y:     0.2467      Z:    -0.2159     Total:    10.1490

*** Psi4 exiting successfully. Buy a developer a beer!
