                               Psi4 1.4a3.dev225

  ==> Input File <==

--------------------------------------------------------------------------
#psi4
#
memory 32 gb

molecule  {
-1 1
  S        2.0766110     0.0000000     0.0075520
  O        2.3996640     0.0000021     1.5090574
  O        2.4489030    -1.2526260    -0.7015720
  O        2.4489040     1.2526220    -0.7015770
  C        0.2698850     0.0000000    -0.0431290
  C       -1.8281600    -1.2204390    -0.0177060
  C       -1.8281600     1.2204390    -0.0177050
  C       -0.4294560     1.2077840    -0.0326800
  C       -0.4294570    -1.2077850    -0.0326810
  C       -2.5145250     0.0000000     0.0013750
  C       -2.5812260    -2.5268720     0.0200930
  C       -2.5812240     2.5268730     0.0200930
  H        0.1401440     2.1341360    -0.0762120
  H        0.1401420    -2.1341370    -0.0762130
  H       -3.6064350     0.0000010     0.0012720
  H       -2.0599700    -3.2944780    -0.5602250
  H       -2.6805960    -2.9020040     1.0455530
  H       -3.5901000    -2.4148770    -0.3912530
  H       -2.6805180     2.9020500     1.0455440
  H       -2.0600100     3.2944550    -0.5602960
  H       -3.5901270     2.4148600    -0.3911760
units angstrom
no_reorient  #important for SAPT in psi4, default
symmetry c1  #important for SAPT in psi4, default
}

set PROPERTIES_ORIGIN ["COM"]
properties('MP2/aug-cc-pvtz', properties = ['dipole'])
--------------------------------------------------------------------------

    Molecular point group: c1
  Charge       = -1
  Multiplicity = 1
  Basis Set: AUG-CC-PVTZ
    Blend: AUG-CC-PVTZ
  Basis Set: (AUG-CC-PVTZ AUX)
    Blend: AUG-CC-PVTZ-JKFIT

    Orbital Energies [Eh]
    ---------------------

    Doubly Occupied:

       1A    -92.017966     2A    -20.354947     3A    -20.354924
       4A    -20.349402     5A    -11.135641     6A    -11.135594
       7A    -11.132685     8A    -11.132685     9A    -11.125925
      10A    -11.123798    11A    -11.113588    12A    -11.113518
      13A     -8.978255    14A     -6.663947    15A     -6.663188
      16A     -6.662775    17A     -1.261949    18A     -1.129422
      19A     -1.107442    20A     -1.046229    21A     -0.953135
      22A     -0.923652    23A     -0.841718    24A     -0.821522
      25A     -0.732487    26A     -0.676789    27A     -0.627659
      28A     -0.569042    29A     -0.542527    30A     -0.512122
      31A     -0.485900    32A     -0.476017    33A     -0.475932
      34A     -0.461004    35A     -0.459100    36A     -0.455584
      37A     -0.451450    38A     -0.427117    39A     -0.399122
      40A     -0.373393    41A     -0.372383    42A     -0.328230
      43A     -0.327633    44A     -0.292532    45A     -0.290862
      46A     -0.268652    47A     -0.248740    48A     -0.211644
      49A     -0.209810

  @DF-RHF Final Energy:  -930.52860840827793

   => Energetics <=

    Nuclear Repulsion Energy =            811.7063948949104315
    One-Electron Energy =               -2904.8307233242849179
    Two-Electron Energy =                1162.5957200210966676
    Total Energy =                       -930.5286084082779325
  Basis Set: (AUG-CC-PVTZ AUX)
    Blend: AUG-CC-PVTZ-RI
    Molecular point group: c1

    Geometry (in Angstrom), charge = -1, multiplicity = 1:

       Center              X                  Y                   Z               Mass
    ------------   -----------------  -----------------  -----------------  -----------------
         S            1.969036398306     0.000000131567     0.003527444616    31.972071174400
         O            2.292089398306     0.000002231567     1.505032844616    15.994914619570
         O            2.341328398306    -1.252625868433    -0.705596555384    15.994914619570
         O            2.341329398306     1.252622131567    -0.705601555384    15.994914619570
         C            0.162310398306     0.000000131567    -0.047153555384    12.000000000000
         C           -1.935734601694    -1.220438868433    -0.021730555384    12.000000000000
         C           -1.935734601694     1.220439131567    -0.021729555384    12.000000000000
         C           -0.537030601694     1.207784131567    -0.036704555384    12.000000000000
         C           -0.537031601694    -1.207784868433    -0.036705555384    12.000000000000
         C           -2.622099601694     0.000000131567    -0.002649555384    12.000000000000
         C           -2.688800601694    -2.526871868433     0.016068444616    12.000000000000
         C           -2.688798601694     2.526873131567     0.016068444616    12.000000000000
         H            0.032569398306     2.134136131567    -0.080236555384     1.007825032230
         H            0.032567398306    -2.134136868433    -0.080237555384     1.007825032230
         H           -3.714009601694     0.000001131567    -0.002752555384     1.007825032230
         H           -2.167544601694    -3.294477868433    -0.564249555384     1.007825032230
         H           -2.788170601694    -2.902003868433     1.041528444616     1.007825032230
         H           -3.697674601694    -2.414876868433    -0.395277555384     1.007825032230
         H           -2.788092601694     2.902050131567     1.041519444616     1.007825032230
         H           -2.167584601694     3.294455131567    -0.564320555384     1.007825032230
         H           -3.697701601694     2.414860131567    -0.395200555384     1.007825032230

  Basis Set: AUG-CC-PVTZ
    Blend: AUG-CC-PVTZ
  Basis Set: (AUG-CC-PVTZ AUX)
    Blend: AUG-CC-PVTZ-JKFIT
	 Reference Energy          =    -930.5286084082779325 [Eh]
	 Singles Energy            =      -0.0000000000000000 [Eh]
	 Same-Spin Energy          =      -0.6282072965733065 [Eh]
	 Opposite-Spin Energy      =      -1.8712451136512218 [Eh]
	 Correlation Energy        =      -2.4994524102245284 [Eh]
	 Total Energy              =    -933.0280608185024676 [Eh]

	 ================> DF-SCS-MP2 Energies <==================
	-----------------------------------------------------------
	 SCS Same-Spin Scale       =       0.3333333333333333 [-]
	 SCS Opposite-Spin Scale   =       1.2000000000000000 [-]
	 SCS Same-Spin Energy      =      -0.2094024321911022 [Eh]
	 SCS Opposite-Spin Energy  =      -2.2454941363814660 [Eh]
	 SCS Correlation Energy    =      -2.4548965685725683 [Eh]
	 SCS Total Energy          =    -932.9835049768505542 [Eh]
	-----------------------------------------------------------

  Dipole Moment: [D]
     X:   -10.4471      Y:     0.0000      Z:    -0.3730     Total:    10.4537

*** Psi4 exiting successfully. Buy a developer a beer!
