                               Psi4 1.4a3.dev225

  ==> Input File <==

--------------------------------------------------------------------------
#psi4
#
memory 32 gb

molecule  {
-1 1
  S        2.0755544    -0.0630591     0.0059526
  O        2.3891470     0.0000020     1.4601760
  O        2.4489030    -1.2526260    -0.7015720
  O        2.4489040     1.2526220    -0.7015770
  C        0.2698850     0.0000000    -0.0431290
  C       -1.8281600    -1.2204390    -0.0177060
  C       -1.8281600     1.2204390    -0.0177050
  C       -0.4294560     1.2077840    -0.0326800
  C       -0.4294570    -1.2077850    -0.0326810
  C       -2.5145250     0.0000000     0.0013750
  C       -2.5812260    -2.5268720     0.0200930
  C       -2.5812240     2.5268730     0.0200930
  H        0.1401440     2.1341360    -0.0762120
  H        0.1401420    -2.1341370    -0.0762130
  H       -3.6064350     0.0000010     0.0012720
  H       -2.0599700    -3.2944780    -0.5602250
  H       -2.6805960    -2.9020040     1.0455530
  H       -3.5901000    -2.4148770    -0.3912530
  H       -2.6805180     2.9020500     1.0455440
  H       -2.0600100     3.2944550    -0.5602960
  H       -3.5901270     2.4148600    -0.3911760
units angstrom
no_reorient  #important for SAPT in psi4, default
symmetry c1  #important for SAPT in psi4, default
}

set PROPERTIES_ORIGIN ["COM"]
properties('MP2/aug-cc-pvtz', properties = ['dipole'])
--------------------------------------------------------------------------

    Molecular point group: c1
  Charge       = -1
  Multiplicity = 1
  Basis Set: AUG-CC-PVTZ
    Blend: AUG-CC-PVTZ
  Basis Set: (AUG-CC-PVTZ AUX)
    Blend: AUG-CC-PVTZ-JKFIT

    Orbital Energies [Eh]
    ---------------------

    Doubly Occupied:

       1A    -92.012914     2A    -20.364730     3A    -20.349475
       4A    -20.337133     5A    -11.134703     6A    -11.134392
       7A    -11.132329     8A    -11.131544     9A    -11.123414
      10A    -11.122474    11A    -11.112168    12A    -11.111692
      13A     -8.974180    14A     -6.659853    15A     -6.659339
      16A     -6.658736    17A     -1.278202    18A     -1.144468
      19A     -1.098934    20A     -1.044925    21A     -0.952122
      22A     -0.922273    23A     -0.840781    24A     -0.820408
      25A     -0.730322    26A     -0.675625    27A     -0.625062
      28A     -0.568121    29A     -0.541405    30A     -0.515356
      31A     -0.485213    32A     -0.475608    33A     -0.475239
      34A     -0.466692    35A     -0.462134    36A     -0.454935
      37A     -0.450209    38A     -0.426490    39A     -0.399991
      40A     -0.372430    41A     -0.372200    42A     -0.334106
      43A     -0.330022    44A     -0.304211    45A     -0.281596
      46A     -0.264900    47A     -0.245030    48A     -0.210502
      49A     -0.208363

  @DF-RHF Final Energy:  -930.52954917059913

   => Energetics <=

    Nuclear Repulsion Energy =            814.1097407073472141
    One-Electron Energy =               -2909.6846797331413654
    Two-Electron Energy =                1165.0453898551952534
    Total Energy =                       -930.5295491705990116
  Basis Set: (AUG-CC-PVTZ AUX)
    Blend: AUG-CC-PVTZ-RI
    Molecular point group: c1

    Geometry (in Angstrom), charge = -1, multiplicity = 1:

       Center              X                  Y                   Z               Mass
    ------------   -----------------  -----------------  -----------------  -----------------
         S            1.969071530567    -0.052162564048     0.006430030100    31.972071174400
         O            2.282664130567     0.010898535952     1.460653430100    15.994914619570
         O            2.342420130567    -1.241729464048    -0.701094569900    15.994914619570
         O            2.342421130567     1.263518535952    -0.701099569900    15.994914619570
         C            0.163402130567     0.010896535952    -0.042651569900    12.000000000000
         C           -1.934642869433    -1.209542464048    -0.017228569900    12.000000000000
         C           -1.934642869433     1.231335535952    -0.017227569900    12.000000000000
         C           -0.535938869433     1.218680535952    -0.032202569900    12.000000000000
         C           -0.535939869433    -1.196888464048    -0.032203569900    12.000000000000
         C           -2.621007869433     0.010896535952     0.001852430100    12.000000000000
         C           -2.687708869433    -2.515975464048     0.020570430100    12.000000000000
         C           -2.687706869433     2.537769535952     0.020570430100    12.000000000000
         H            0.033661130567     2.145032535952    -0.075734569900     1.007825032230
         H            0.033659130567    -2.123240464048    -0.075735569900     1.007825032230
         H           -3.712917869433     0.010897535952     0.001749430100     1.007825032230
         H           -2.166452869433    -3.283581464048    -0.559747569900     1.007825032230
         H           -2.787078869433    -2.891107464048     1.046030430100     1.007825032230
         H           -3.696582869433    -2.403980464048    -0.390775569900     1.007825032230
         H           -2.787000869433     2.912946535952     1.046021430100     1.007825032230
         H           -2.166492869433     3.305351535952    -0.559818569900     1.007825032230
         H           -3.696609869433     2.425756535952    -0.390698569900     1.007825032230

  Basis Set: AUG-CC-PVTZ
    Blend: AUG-CC-PVTZ
  Basis Set: (AUG-CC-PVTZ AUX)
    Blend: AUG-CC-PVTZ-JKFIT
	 Reference Energy          =    -930.5295491705991253 [Eh]
	 Singles Energy            =      -0.0000000000000000 [Eh]
	 Same-Spin Energy          =      -0.6272545454406283 [Eh]
	 Opposite-Spin Energy      =      -1.8687711528302406 [Eh]
	 Correlation Energy        =      -2.4960256982708691 [Eh]
	 Total Energy              =    -933.0255748688699668 [Eh]

	 ================> DF-SCS-MP2 Energies <==================
	-----------------------------------------------------------
	 SCS Same-Spin Scale       =       0.3333333333333333 [-]
	 SCS Opposite-Spin Scale   =       1.2000000000000000 [-]
	 SCS Same-Spin Energy      =      -0.2090848484802094 [Eh]
	 SCS Opposite-Spin Energy  =      -2.2425253833962886 [Eh]
	 SCS Correlation Energy    =      -2.4516102318764981 [Eh]
	 SCS Total Energy          =    -932.9811594024756687 [Eh]
	-----------------------------------------------------------

  Dipole Moment: [D]
     X:   -10.3158      Y:    -0.6445      Z:    -0.0772     Total:    10.3362

*** Psi4 exiting successfully. Buy a developer a beer!
