                               Psi4 1.4a3.dev225

  ==> Input File <==

--------------------------------------------------------------------------
#psi4
#
memory 32 gb

molecule  {
-1 1
  S        2.0766110     0.0000000     0.0075520
  O        2.3891470     0.0000020     1.4601760
  O        2.4489030    -1.2526260    -0.7015720
  O        2.4489040     1.2526220    -0.7015770
  C        0.2698850     0.0000000    -0.0431290
  C       -1.8281600    -1.2204390    -0.0177060
  C       -1.8281600     1.2204390    -0.0177050
  C       -0.4294560     1.2077840    -0.0326800
  C       -0.4294570    -1.2077850    -0.0326810
  C       -2.5145250     0.0000000     0.0013750
  C       -2.5812260    -2.5268720     0.0200930
  C       -2.5812240     2.5268730     0.0200930
  H        0.1401440     2.1341360    -0.0762120
  H        0.1401420    -2.1341370    -0.0762130
  H       -3.6064350     0.0000010     0.0012720
  H       -2.0599700    -3.2944780    -0.5602250
  H       -2.6424508    -2.9017220     1.0486384
  H       -3.5901000    -2.4148770    -0.3912530
  H       -2.6805180     2.9020500     1.0455440
  H       -2.0600100     3.2944550    -0.5602960
  H       -3.5901270     2.4148600    -0.3911760
units angstrom
no_reorient  #important for SAPT in psi4, default
symmetry c1  #important for SAPT in psi4, default
}

set PROPERTIES_ORIGIN ["COM"]
properties('MP2/aug-cc-pvtz', properties = ['dipole'])
--------------------------------------------------------------------------

    Molecular point group: c1
  Charge       = -1
  Multiplicity = 1
  Basis Set: AUG-CC-PVTZ
    Blend: AUG-CC-PVTZ
  Basis Set: (AUG-CC-PVTZ AUX)
    Blend: AUG-CC-PVTZ-JKFIT

    Orbital Energies [Eh]
    ---------------------

    Doubly Occupied:

       1A    -92.013843     2A    -20.350751     3A    -20.350728
       4A    -20.349900     5A    -11.134438     6A    -11.134358
       7A    -11.131944     8A    -11.131844     9A    -11.123196
      10A    -11.122281    11A    -11.111728    12A    -11.111654
      13A     -8.974564    14A     -6.660279    15A     -6.659491
      16A     -6.659408    17A     -1.269740    18A     -1.126292
      19A     -1.124461    20A     -1.044869    21A     -0.952145
      22A     -0.922138    23A     -0.840737    24A     -0.820155
      25A     -0.730002    26A     -0.675392    27A     -0.624508
      28A     -0.567643    29A     -0.541316    30A     -0.513419
      31A     -0.485614    32A     -0.475823    33A     -0.475162
      34A     -0.463300    35A     -0.461196    36A     -0.454641
      37A     -0.450010    38A     -0.426454    39A     -0.399196
      40A     -0.372106    41A     -0.371652    42A     -0.331332
      43A     -0.330443    44A     -0.296456    45A     -0.290445
      46A     -0.269381    47A     -0.248717    48A     -0.210383
      49A     -0.208493

  @DF-RHF Final Energy:  -930.53557788702312

   => Energetics <=

    Nuclear Repulsion Energy =            814.1071258544793636
    One-Electron Energy =               -2909.6973524914060363
    Two-Electron Energy =                1165.0546487499034356
    Total Energy =                       -930.5355778870232371
  Basis Set: (AUG-CC-PVTZ AUX)
    Blend: AUG-CC-PVTZ-RI
    Molecular point group: c1

    Geometry (in Angstrom), charge = -1, multiplicity = 1:

       Center              X                  Y                   Z               Mass
    ------------   -----------------  -----------------  -----------------  -----------------
         S            1.969737780596    -0.000001395815     0.007736253410    31.972071174400
         O            2.282273780596     0.000000604185     1.460360253410    15.994914619570
         O            2.342029780596    -1.252627395815    -0.701387746590    15.994914619570
         O            2.342030780596     1.252620604185    -0.701392746590    15.994914619570
         C            0.163011780596    -0.000001395815    -0.042944746590    12.000000000000
         C           -1.935033219404    -1.220440395815    -0.017521746590    12.000000000000
         C           -1.935033219404     1.220437604185    -0.017520746590    12.000000000000
         C           -0.536329219404     1.207782604185    -0.032495746590    12.000000000000
         C           -0.536330219404    -1.207786395815    -0.032496746590    12.000000000000
         C           -2.621398219404    -0.000001395815     0.001559253410    12.000000000000
         C           -2.688099219404    -2.526873395815     0.020277253410    12.000000000000
         C           -2.688097219404     2.526871604185     0.020277253410    12.000000000000
         H            0.033270780596     2.134134604185    -0.076027746590     1.007825032230
         H            0.033268780596    -2.134138395815    -0.076028746590     1.007825032230
         H           -3.713308219404    -0.000000395815     0.001456253410     1.007825032230
         H           -2.166843219404    -3.294479395815    -0.560040746590     1.007825032230
         H           -2.749324019404    -2.901723395815     1.048822653410     1.007825032230
         H           -3.696973219404    -2.414878395815    -0.391068746590     1.007825032230
         H           -2.787391219404     2.902048604185     1.045728253410     1.007825032230
         H           -2.166883219404     3.294453604185    -0.560111746590     1.007825032230
         H           -3.697000219404     2.414858604185    -0.390991746590     1.007825032230

  Basis Set: AUG-CC-PVTZ
    Blend: AUG-CC-PVTZ
  Basis Set: (AUG-CC-PVTZ AUX)
    Blend: AUG-CC-PVTZ-JKFIT
	 Reference Energy          =    -930.5355778870231234 [Eh]
	 Singles Energy            =      -0.0000000000000000 [Eh]
	 Same-Spin Energy          =      -0.6272952947188850 [Eh]
	 Opposite-Spin Energy      =      -1.8686863418748043 [Eh]
	 Correlation Energy        =      -2.4959816365936893 [Eh]
	 Total Energy              =    -933.0315595236168065 [Eh]

	 ================> DF-SCS-MP2 Energies <==================
	-----------------------------------------------------------
	 SCS Same-Spin Scale       =       0.3333333333333333 [-]
	 SCS Opposite-Spin Scale   =       1.2000000000000000 [-]
	 SCS Same-Spin Energy      =      -0.2090984315729617 [Eh]
	 SCS Opposite-Spin Energy  =      -2.2424236102497650 [Eh]
	 SCS Correlation Energy    =      -2.4515220418227268 [Eh]
	 SCS Total Energy          =    -932.9870999288458506 [Eh]
	-----------------------------------------------------------

  Dipole Moment: [D]
     X:   -10.2900      Y:    -0.0096      Z:    -0.0696     Total:    10.2903

*** Psi4 exiting successfully. Buy a developer a beer!
