                               Psi4 1.4a3.dev225

  ==> Input File <==

--------------------------------------------------------------------------
#psi4
#
memory 32 gb

molecule  {
-1 1
  S        2.0766110     0.0000000     0.0075520
  O        2.3891470     0.0000020     1.4601760
  O        2.4489030    -1.2526260    -0.7015720
  O        2.4489040     1.2526220    -0.7015770
  C        0.2698850     0.0000000    -0.0431290
  C       -1.8281600    -1.2204390    -0.0177060
  C       -1.8281600     1.2204390    -0.0177050
  C       -0.4294560     1.2077840    -0.0326800
  C       -0.4294570    -1.2077850    -0.0326810
  C       -2.5145250     0.0000000     0.0013750
  C       -2.5812260    -2.5268720     0.0200930
  C       -2.5812240     2.5268730     0.0200930
  H        0.1401440     2.1341360    -0.0762120
  H        0.0878051    -2.0490203    -0.0722131
  H       -3.6064350     0.0000010     0.0012720
  H       -2.0599700    -3.2944780    -0.5602250
  H       -2.6805960    -2.9020040     1.0455530
  H       -3.5901000    -2.4148770    -0.3912530
  H       -2.6805180     2.9020500     1.0455440
  H       -2.0600100     3.2944550    -0.5602960
  H       -3.5901270     2.4148600    -0.3911760
units angstrom
no_reorient  #important for SAPT in psi4, default
symmetry c1  #important for SAPT in psi4, default
}

set PROPERTIES_ORIGIN ["COM"]
properties('MP2/aug-cc-pvtz', properties = ['dipole'])
--------------------------------------------------------------------------

    Molecular point group: c1
  Charge       = -1
  Multiplicity = 1
  Basis Set: AUG-CC-PVTZ
    Blend: AUG-CC-PVTZ
  Basis Set: (AUG-CC-PVTZ AUX)
    Blend: AUG-CC-PVTZ-JKFIT

    Orbital Energies [Eh]
    ---------------------

    Doubly Occupied:

       1A    -92.013823     2A    -20.350826     3A    -20.350685
       4A    -20.349890     5A    -11.134403     6A    -11.134026
       7A    -11.132175     8A    -11.131790     9A    -11.122593
      10A    -11.121977    11A    -11.111317    12A    -11.100611
      13A     -8.974540    14A     -6.660250    15A     -6.659470
      16A     -6.659387    17A     -1.269741    18A     -1.126287
      19A     -1.124462    20A     -1.045264    21A     -0.953113
      22A     -0.922869    23A     -0.841150    24A     -0.824027
      25A     -0.731021    26A     -0.679766    27A     -0.624943
      28A     -0.577723    29A     -0.541260    30A     -0.514910
      31A     -0.485243    32A     -0.477115    33A     -0.475336
      34A     -0.463167    35A     -0.461622    36A     -0.458721
      37A     -0.452694    38A     -0.426928    39A     -0.400741
      40A     -0.375105    41A     -0.371553    42A     -0.331350
      43A     -0.330537    44A     -0.296451    45A     -0.290630
      46A     -0.269249    47A     -0.248714    48A     -0.210125
      49A     -0.208555

  @DF-RHF Final Energy:  -930.53010921697944

   => Energetics <=

    Nuclear Repulsion Energy =            814.6172048088643578
    One-Electron Energy =               -2910.6583569414651720
    Two-Electron Energy =                1165.5110429156216014
    Total Energy =                       -930.5301092169793264
  Basis Set: (AUG-CC-PVTZ AUX)
    Blend: AUG-CC-PVTZ-RI
    Molecular point group: c1

    Geometry (in Angstrom), charge = -1, multiplicity = 1:

       Center              X                  Y                   Z               Mass
    ------------   -----------------  -----------------  -----------------  -----------------
         S            1.970230627623    -0.000463482014     0.007731272219    31.972071174400
         O            2.282766627623    -0.000461482014     1.460355272219    15.994914619570
         O            2.342522627623    -1.253089482014    -0.701392727781    15.994914619570
         O            2.342523627623     1.252158517986    -0.701397727781    15.994914619570
         C            0.163504627623    -0.000463482014    -0.042949727781    12.000000000000
         C           -1.934540372377    -1.220902482014    -0.017526727781    12.000000000000
         C           -1.934540372377     1.219975517986    -0.017525727781    12.000000000000
         C           -0.535836372377     1.207320517986    -0.032500727781    12.000000000000
         C           -0.535837372377    -1.208248482014    -0.032501727781    12.000000000000
         C           -2.620905372377    -0.000463482014     0.001554272219    12.000000000000
         C           -2.687606372377    -2.527335482014     0.020272272219    12.000000000000
         C           -2.687604372377     2.526409517986     0.020272272219    12.000000000000
         H            0.033763627623     2.133672517986    -0.076032727781     1.007825032230
         H           -0.018575272377    -2.049483782014    -0.072033827781     1.007825032230
         H           -3.712815372377    -0.000462482014     0.001451272219     1.007825032230
         H           -2.166350372377    -3.294941482014    -0.560045727781     1.007825032230
         H           -2.786976372377    -2.902467482014     1.045732272219     1.007825032230
         H           -3.696480372377    -2.415340482014    -0.391073727781     1.007825032230
         H           -2.786898372377     2.901586517986     1.045723272219     1.007825032230
         H           -2.166390372377     3.293991517986    -0.560116727781     1.007825032230
         H           -3.696507372377     2.414396517986    -0.390996727781     1.007825032230

  Basis Set: AUG-CC-PVTZ
    Blend: AUG-CC-PVTZ
  Basis Set: (AUG-CC-PVTZ AUX)
    Blend: AUG-CC-PVTZ-JKFIT
	 Reference Energy          =    -930.5301092169794401 [Eh]
	 Singles Energy            =      -0.0000000000000000 [Eh]
	 Same-Spin Energy          =      -0.6269508603186419 [Eh]
	 Opposite-Spin Energy      =      -1.8680127403979179 [Eh]
	 Correlation Energy        =      -2.4949636007165599 [Eh]
	 Total Energy              =    -933.0250728176960138 [Eh]

	 ================> DF-SCS-MP2 Energies <==================
	-----------------------------------------------------------
	 SCS Same-Spin Scale       =       0.3333333333333333 [-]
	 SCS Opposite-Spin Scale   =       1.2000000000000000 [-]
	 SCS Same-Spin Energy      =      -0.2089836201062140 [Eh]
	 SCS Opposite-Spin Energy  =      -2.2416152884775014 [Eh]
	 SCS Correlation Energy    =      -2.4505989085837152 [Eh]
	 SCS Total Energy          =    -932.9807081255631829 [Eh]
	-----------------------------------------------------------

  Dipole Moment: [D]
     X:   -10.3180      Y:    -0.0121      Z:    -0.0648     Total:    10.3182

*** Psi4 exiting successfully. Buy a developer a beer!
