                               Psi4 1.3.2 release

  ==> Input File <==

--------------------------------------------------------------------------
#psi4
#
memory 32 gb

molecule  {
0 1
  N        0.6335420    -0.4278790    -0.2728430
  C       -1.7313700    -0.5561300    -0.6201830
  C       -0.4830900     0.2151130    -0.2797610
  C        1.8471620     0.3055680     0.0922530
  C       -2.6435280    -0.7283840     0.5986220
  C       -0.6342490     1.6914685     0.0167413
  C        3.0183950    -0.6607510     0.1713530
  H       -1.4212120    -1.5322710    -1.0024030
  H       -2.2765240    -0.0356590    -1.4187580
  H        2.0539910     1.0846830    -0.6562090
  H        1.7201950     0.8226000     1.0546610
  H       -3.5369580    -1.3025810     0.3373160
  H       -2.9717700     0.2361610     0.9972690
  H       -2.1143980    -1.2633090     1.3922570
  H       -0.4113830     1.8596200     1.1216760
  H       -1.6576830     2.0281380    -0.1274070
  H        0.0520880     2.2919400    -0.5220660
  H        3.9433710    -0.1376200     0.4335950
  H        2.8252920    -1.4268740     0.9259980
  H        3.1589730    -1.1612340    -0.7893850
units angstrom
no_reorient  #important for SAPT in psi4, default
symmetry c1  #important for SAPT in psi4, default
}

set PROPERTIES_ORIGIN ["COM"]
properties('MP2/aug-cc-pvtz', properties = ['dipole'])
--------------------------------------------------------------------------

    Molecular point group: c1
  Charge       = 0
  Multiplicity = 1
  Basis Set: AUG-CC-PVTZ
    Blend: AUG-CC-PVTZ
  Basis Set: (AUG-CC-PVTZ AUX)
    Blend: AUG-CC-PVTZ-JKFIT

    Orbital Energies [Eh]
    ---------------------

    Doubly Occupied:

       1A    -15.538469     2A    -11.275959     3A    -11.242010
       4A    -11.232193     5A    -11.223642     6A    -11.219983
       7A    -11.202316     8A     -1.217285     9A     -1.059312
      10A     -0.998311    11A     -0.972059    12A     -0.877357
      13A     -0.817063    14A     -0.709167    15A     -0.653468
      16A     -0.626857    17A     -0.615891    18A     -0.590428
      19A     -0.571099    20A     -0.558208    21A     -0.533463
      22A     -0.515881    23A     -0.511158    24A     -0.492790
      25A     -0.485030    26A     -0.477445    27A     -0.385803
      28A     -0.379583

  @DF-RHF Final Energy:  -289.31172146883341

   => Energetics <=

    Nuclear Repulsion Energy =            307.5361858718979420
    One-Electron Energy =                -999.7313556923411397
    Two-Electron Energy =                 402.8834483516097862
    Total Energy =                       -289.3117214688334116
  Basis Set: (AUG-CC-PVTZ AUX)
    Blend: AUG-CC-PVTZ-RI
    Molecular point group: c1

    Geometry (in Angstrom), charge = 0, multiplicity = 1:

       Center              X                  Y                   Z               Mass
    ------------   -----------------  -----------------  -----------------  -----------------
         N            0.626374025758    -0.414620705353    -0.249512885102    14.003074004430
         C           -1.738537974242    -0.542871705353    -0.596852885102    12.000000000000
         C           -0.490257974242     0.228371294647    -0.256430885102    12.000000000000
         C            1.839994025758     0.318826294647     0.115583114898    12.000000000000
         C           -2.650695974242    -0.715125705353     0.621952114898    12.000000000000
         C           -0.641416974242     1.704726794647     0.040071414898    12.000000000000
         C            3.011227025758    -0.647492705353     0.194683114898    12.000000000000
         H           -1.428379974242    -1.519012705353    -0.979072885102     1.007825032230
         H           -2.283691974242    -0.022400705353    -1.395427885102     1.007825032230
         H            2.046823025758     1.097941294647    -0.632878885102     1.007825032230
         H            1.713027025758     0.835858294647     1.077991114898     1.007825032230
         H           -3.544125974242    -1.289322705353     0.360646114898     1.007825032230
         H           -2.978937974242     0.249419294647     1.020599114898     1.007825032230
         H           -2.121565974242    -1.250050705353     1.415587114898     1.007825032230
         H           -0.418550974242     1.872878294647     1.145006114898     1.007825032230
         H           -1.664850974242     2.041396294647    -0.104076885102     1.007825032230
         H            0.044920025758     2.305198294647    -0.498735885102     1.007825032230
         H            3.936203025758    -0.124361705353     0.456925114898     1.007825032230
         H            2.818124025758    -1.413615705353     0.949328114898     1.007825032230
         H            3.151805025758    -1.147975705353    -0.766054885102     1.007825032230

  Basis Set: AUG-CC-PVTZ
    Blend: AUG-CC-PVTZ
  Basis Set: (AUG-CC-PVTZ AUX)
    Blend: AUG-CC-PVTZ-JKFIT
	 Reference Energy          =    -289.3117214688334116 [Eh]
	 Singles Energy            =      -0.0000000000000000 [Eh]
	 Same-Spin Energy          =      -0.3063601492976625 [Eh]
	 Opposite-Spin Energy      =      -1.0923279527597460 [Eh]
	 Correlation Energy        =      -1.3986881020574085 [Eh]
	 Total Energy              =    -290.7104095708908176 [Eh]

	 ================> DF-SCS-MP2 Energies <==================
	-----------------------------------------------------------
	 SCS Same-Spin Scale       =       0.3333333333333333 [-]
	 SCS Opposite-Spin Scale   =       1.2000000000000000 [-]
	 SCS Same-Spin Energy      =      -0.1021200497658875 [Eh]
	 SCS Opposite-Spin Energy  =      -1.3107935433116953 [Eh]
	 SCS Correlation Energy    =      -1.4129135930775827 [Eh]
	 SCS Total Energy          =    -290.7246350619109876 [Eh]
	-----------------------------------------------------------

  Dipole Moment: [D]
     X:    -0.8242      Y:     1.7665      Z:     0.3567     Total:     1.9817

*** Psi4 exiting successfully. Buy a developer a beer!
