                               Psi4 1.3.2 release

  ==> Input File <==

--------------------------------------------------------------------------
#psi4
#
memory 32 gb

molecule  {
0 1
  N        0.6335420    -0.4278790    -0.2728430
  C       -1.7313700    -0.5561300    -0.6201830
  C       -0.4830900     0.2151130    -0.2797610
  C        1.8471620     0.3055680     0.0922530
  C       -2.6435280    -0.7283840     0.5986220
  C       -0.6278000     1.7030919    -0.0314594
  C        3.0183950    -0.6607510     0.1713530
  H       -1.4212120    -1.5322710    -1.0024030
  H       -2.2765240    -0.0356590    -1.4187580
  H        2.0539910     1.0846830    -0.6562090
  H        1.7201950     0.8226000     1.0546610
  H       -3.5369580    -1.3025810     0.3373160
  H       -2.9717700     0.2361610     0.9972690
  H       -2.1143980    -1.2633090     1.3922570
  H       -0.4113830     1.8596200     1.1216760
  H       -1.6576830     2.0281380    -0.1274070
  H        0.0520880     2.2919400    -0.5220660
  H        3.9433710    -0.1376200     0.4335950
  H        2.8252920    -1.4268740     0.9259980
  H        3.1589730    -1.1612340    -0.7893850
units angstrom
no_reorient  #important for SAPT in psi4, default
symmetry c1  #important for SAPT in psi4, default
}

set PROPERTIES_ORIGIN ["COM"]
properties('MP2/aug-cc-pvtz', properties = ['dipole'])
--------------------------------------------------------------------------

    Molecular point group: c1
  Charge       = 0
  Multiplicity = 1
  Basis Set: AUG-CC-PVTZ
    Blend: AUG-CC-PVTZ
  Basis Set: (AUG-CC-PVTZ AUX)
    Blend: AUG-CC-PVTZ-JKFIT

    Orbital Energies [Eh]
    ---------------------

    Doubly Occupied:

       1A    -15.538282     2A    -11.276619     3A    -11.242006
       4A    -11.233419     5A    -11.223846     6A    -11.220121
       7A    -11.202288     8A     -1.217255     9A     -1.059334
      10A     -0.998508    11A     -0.972718    12A     -0.877565
      13A     -0.817084    14A     -0.710316    15A     -0.656872
      16A     -0.626494    17A     -0.615654    18A     -0.590587
      19A     -0.572897    20A     -0.559149    21A     -0.530359
      22A     -0.516308    23A     -0.510119    24A     -0.492542
      25A     -0.483555    26A     -0.477177    27A     -0.386886
      28A     -0.377711

  @DF-RHF Final Energy:  -289.30469829443030

   => Energetics <=

    Nuclear Repulsion Energy =            307.4496421604560510
    One-Electron Energy =                -999.5373407656707059
    Two-Electron Energy =                 402.7830003107843595
    Total Energy =                       -289.3046982944302954
  Basis Set: (AUG-CC-PVTZ AUX)
    Blend: AUG-CC-PVTZ-RI
    Molecular point group: c1

    Geometry (in Angstrom), charge = 0, multiplicity = 1:

       Center              X                  Y                   Z               Mass
    ------------   -----------------  -----------------  -----------------  -----------------
         N            0.625593155402    -0.416028112469    -0.243676554234    14.003074004430
         C           -1.739318844598    -0.544279112469    -0.591016554234    12.000000000000
         C           -0.491038844598     0.226963887531    -0.250594554234    12.000000000000
         C            1.839213155402     0.317418887531     0.121419445766    12.000000000000
         C           -2.651476844598    -0.716533112469     0.627788445766    12.000000000000
         C           -0.635748844598     1.714942787531    -0.002292954234    12.000000000000
         C            3.010446155402    -0.648900112469     0.200519445766    12.000000000000
         H           -1.429160844598    -1.520420112469    -0.973236554234     1.007825032230
         H           -2.284472844598    -0.023808112469    -1.389591554234     1.007825032230
         H            2.046042155402     1.096533887531    -0.627042554234     1.007825032230
         H            1.712246155402     0.834450887531     1.083827445766     1.007825032230
         H           -3.544906844598    -1.290730112469     0.366482445766     1.007825032230
         H           -2.979718844598     0.248011887531     1.026435445766     1.007825032230
         H           -2.122346844598    -1.251458112469     1.421423445766     1.007825032230
         H           -0.419331844598     1.871470887531     1.150842445766     1.007825032230
         H           -1.665631844598     2.039988887531    -0.098240554234     1.007825032230
         H            0.044139155402     2.303790887531    -0.492899554234     1.007825032230
         H            3.935422155402    -0.125769112469     0.462761445766     1.007825032230
         H            2.817343155402    -1.415023112469     0.955164445766     1.007825032230
         H            3.151024155402    -1.149383112469    -0.760218554234     1.007825032230

  Basis Set: AUG-CC-PVTZ
    Blend: AUG-CC-PVTZ
  Basis Set: (AUG-CC-PVTZ AUX)
    Blend: AUG-CC-PVTZ-JKFIT
	 Reference Energy          =    -289.3046982944302954 [Eh]
	 Singles Energy            =      -0.0000000000000000 [Eh]
	 Same-Spin Energy          =      -0.3064482566145629 [Eh]
	 Opposite-Spin Energy      =      -1.0925982274964023 [Eh]
	 Correlation Energy        =      -1.3990464841109653 [Eh]
	 Total Energy              =    -290.7037447785412496 [Eh]

	 ================> DF-SCS-MP2 Energies <==================
	-----------------------------------------------------------
	 SCS Same-Spin Scale       =       0.3333333333333333 [-]
	 SCS Opposite-Spin Scale   =       1.2000000000000000 [-]
	 SCS Same-Spin Energy      =      -0.1021494188715210 [Eh]
	 SCS Opposite-Spin Energy  =      -1.3111178729956827 [Eh]
	 SCS Correlation Energy    =      -1.4132672918672038 [Eh]
	 SCS Total Energy          =    -290.7179655862975096 [Eh]
	-----------------------------------------------------------

  Dipole Moment: [D]
     X:    -0.8284      Y:     1.7666      Z:     0.3310     Total:     1.9791

*** Psi4 exiting successfully. Buy a developer a beer!
