                               Psi4 1.3.2 release

  ==> Input File <==

--------------------------------------------------------------------------
#psi4
#
memory 32 gb

molecule  {
0 1
  N        0.6335420    -0.4278790    -0.2728430
  C       -1.7313700    -0.5561300    -0.6201830
  C       -0.4830900     0.2151130    -0.2797610
  C        1.8471620     0.3055680     0.0922530
  C       -2.6435280    -0.7283840     0.5986220
  C       -0.6213510     1.7147154    -0.0796600
  C        3.0183950    -0.6607510     0.1713530
  H       -1.4212120    -1.5322710    -1.0024030
  H       -2.2765240    -0.0356590    -1.4187580
  H        2.0539910     1.0846830    -0.6562090
  H        1.7201950     0.8226000     1.0546610
  H       -3.5369580    -1.3025810     0.3373160
  H       -2.9717700     0.2361610     0.9972690
  H       -2.1143980    -1.2633090     1.3922570
  H       -0.4113830     1.8596200     1.1216760
  H       -1.6576830     2.0281380    -0.1274070
  H        0.0520880     2.2919400    -0.5220660
  H        3.9433710    -0.1376200     0.4335950
  H        2.8252920    -1.4268740     0.9259980
  H        3.1589730    -1.1612340    -0.7893850
units angstrom
no_reorient  #important for SAPT in psi4, default
symmetry c1  #important for SAPT in psi4, default
}

set PROPERTIES_ORIGIN ["COM"]
properties('MP2/aug-cc-pvtz', properties = ['dipole'])
--------------------------------------------------------------------------

    Molecular point group: c1
  Charge       = 0
  Multiplicity = 1
  Basis Set: AUG-CC-PVTZ
    Blend: AUG-CC-PVTZ
  Basis Set: (AUG-CC-PVTZ AUX)
    Blend: AUG-CC-PVTZ-JKFIT

    Orbital Energies [Eh]
    ---------------------

    Doubly Occupied:

       1A    -15.538121     2A    -11.277677     3A    -11.242025
       4A    -11.235336     5A    -11.224173     6A    -11.220299
       7A    -11.202266     8A     -1.217251     9A     -1.059391
      10A     -0.998781    11A     -0.973701    12A     -0.877950
      13A     -0.817138    14A     -0.712141    15A     -0.661392
      16A     -0.626326    17A     -0.615263    18A     -0.590710
      19A     -0.578369    20A     -0.557006    21A     -0.527277
      22A     -0.516479    23A     -0.508168    24A     -0.492346
      25A     -0.481897    26A     -0.475970    27A     -0.388101
      28A     -0.375477

  @DF-RHF Final Energy:  -289.29322662535867

   => Energetics <=

    Nuclear Repulsion Energy =            307.3418792160191515
    One-Electron Energy =                -999.2881526744405392
    Two-Electron Energy =                 402.6530468330627173
    Total Energy =                       -289.2932266253586704
  Basis Set: (AUG-CC-PVTZ AUX)
    Blend: AUG-CC-PVTZ-RI
    Molecular point group: c1

    Geometry (in Angstrom), charge = 0, multiplicity = 1:

       Center              X                  Y                   Z               Mass
    ------------   -----------------  -----------------  -----------------  -----------------
         N            0.624812285046    -0.417435531694    -0.237840235475    14.003074004430
         C           -1.740099714954    -0.545686531694    -0.585180235475    12.000000000000
         C           -0.491819714954     0.225556468306    -0.244758235475    12.000000000000
         C            1.838432285046     0.316011468306     0.127255764525    12.000000000000
         C           -2.652257714954    -0.717940531694     0.633624764525    12.000000000000
         C           -0.630080714954     1.725158868306    -0.044657235475    12.000000000000
         C            3.009665285046    -0.650307531694     0.206355764525    12.000000000000
         H           -1.429941714954    -1.521827531694    -0.967400235475     1.007825032230
         H           -2.285253714954    -0.025215531694    -1.383755235475     1.007825032230
         H            2.045261285046     1.095126468306    -0.621206235475     1.007825032230
         H            1.711465285046     0.833043468306     1.089663764525     1.007825032230
         H           -3.545687714954    -1.292137531694     0.372318764525     1.007825032230
         H           -2.980499714954     0.246604468306     1.032271764525     1.007825032230
         H           -2.123127714954    -1.252865531694     1.427259764525     1.007825032230
         H           -0.420112714954     1.870063468306     1.156678764525     1.007825032230
         H           -1.666412714954     2.038581468306    -0.092404235475     1.007825032230
         H            0.043358285046     2.302383468306    -0.487063235475     1.007825032230
         H            3.934641285046    -0.127176531694     0.468597764525     1.007825032230
         H            2.816562285046    -1.416430531694     0.961000764525     1.007825032230
         H            3.150243285046    -1.150790531694    -0.754382235475     1.007825032230

  Basis Set: AUG-CC-PVTZ
    Blend: AUG-CC-PVTZ
  Basis Set: (AUG-CC-PVTZ AUX)
    Blend: AUG-CC-PVTZ-JKFIT
	 Reference Energy          =    -289.2932266253586704 [Eh]
	 Singles Energy            =      -0.0000000000000000 [Eh]
	 Same-Spin Energy          =      -0.3066075163865043 [Eh]
	 Opposite-Spin Energy      =      -1.0931003318102128 [Eh]
	 Correlation Energy        =      -1.3997078481967171 [Eh]
	 Total Energy              =    -290.6929344735553968 [Eh]

	 ================> DF-SCS-MP2 Energies <==================
	-----------------------------------------------------------
	 SCS Same-Spin Scale       =       0.3333333333333333 [-]
	 SCS Opposite-Spin Scale   =       1.2000000000000000 [-]
	 SCS Same-Spin Energy      =      -0.1022025054621681 [Eh]
	 SCS Opposite-Spin Energy  =      -1.3117203981722554 [Eh]
	 SCS Correlation Energy    =      -1.4139229036344234 [Eh]
	 SCS Total Energy          =    -290.7071495289931136 [Eh]
	-----------------------------------------------------------

  Dipole Moment: [D]
     X:    -0.8343      Y:     1.7612      Z:     0.3045     Total:     1.9725

*** Psi4 exiting successfully. Buy a developer a beer!
