                               Psi4 1.3.2 release

  ==> Input File <==

--------------------------------------------------------------------------
#psi4
#
memory 32 gb

molecule  {
0 1
  N        0.6335420    -0.4278790    -0.2728430
  C       -1.7313700    -0.5561300    -0.6201830
  C       -0.4830900     0.2151130    -0.2797610
  C        1.8471620     0.3055680     0.0922530
  C       -2.6435280    -0.7283840     0.5986220
  C       -0.6084530     1.7379623    -0.1760614
  C        3.0183950    -0.6607510     0.1713530
  H       -1.4212120    -1.5322710    -1.0024030
  H       -2.2765240    -0.0356590    -1.4187580
  H        2.0539910     1.0846830    -0.6562090
  H        1.7201950     0.8226000     1.0546610
  H       -3.5369580    -1.3025810     0.3373160
  H       -2.9717700     0.2361610     0.9972690
  H       -2.1143980    -1.2633090     1.3922570
  H       -0.4113830     1.8596200     1.1216760
  H       -1.6576830     2.0281380    -0.1274070
  H        0.0520880     2.2919400    -0.5220660
  H        3.9433710    -0.1376200     0.4335950
  H        2.8252920    -1.4268740     0.9259980
  H        3.1589730    -1.1612340    -0.7893850
units angstrom
no_reorient  #important for SAPT in psi4, default
symmetry c1  #important for SAPT in psi4, default
}

set PROPERTIES_ORIGIN ["COM"]
properties('MP2/aug-cc-pvtz', properties = ['dipole'])
--------------------------------------------------------------------------

    Molecular point group: c1
  Charge       = 0
  Multiplicity = 1
  Basis Set: AUG-CC-PVTZ
    Blend: AUG-CC-PVTZ
  Basis Set: (AUG-CC-PVTZ AUX)
    Blend: AUG-CC-PVTZ-JKFIT

    Orbital Energies [Eh]
    ---------------------

    Doubly Occupied:

       1A    -15.537872     2A    -11.280885     3A    -11.242134
       4A    -11.241172     5A    -11.225151     6A    -11.220758
       7A    -11.202247     8A     -1.217306     9A     -1.059595
      10A     -0.999596    11A     -0.976578    12A     -0.879205
      13A     -0.817341    14A     -0.718286    15A     -0.671164
      16A     -0.626180    17A     -0.614342    18A     -0.592405
      19A     -0.585823    20A     -0.554148    21A     -0.523930
      22A     -0.516416    23A     -0.503027    24A     -0.492092
      25A     -0.480602    26A     -0.467285    27A     -0.390331
      28A     -0.370418

  @DF-RHF Final Energy:  -289.25780816156862

   => Energetics <=

    Nuclear Repulsion Energy =            307.0601513906387368
    One-Electron Energy =                -998.6233418331001985
    Two-Electron Energy =                 402.3053822808928999
    Total Energy =                       -289.2578081615686187
  Basis Set: (AUG-CC-PVTZ AUX)
    Blend: AUG-CC-PVTZ-RI
    Molecular point group: c1

    Geometry (in Angstrom), charge = 0, multiplicity = 1:

       Center              X                  Y                   Z               Mass
    ------------   -----------------  -----------------  -----------------  -----------------
         N            0.623250544334    -0.420250358036    -0.226167573740    14.003074004430
         C           -1.741661455666    -0.548501358036    -0.573507573740    12.000000000000
         C           -0.493381455666     0.222741641964    -0.233085573740    12.000000000000
         C            1.836870544334     0.313196641964     0.138928426260    12.000000000000
         C           -2.653819455666    -0.720755358036     0.645297426260    12.000000000000
         C           -0.618744455666     1.745590941964    -0.129385973740    12.000000000000
         C            3.008103544334    -0.653122358036     0.218028426260    12.000000000000
         H           -1.431503455666    -1.524642358036    -0.955727573740     1.007825032230
         H           -2.286815455666    -0.028030358036    -1.372082573740     1.007825032230
         H            2.043699544334     1.092311641964    -0.609533573740     1.007825032230
         H            1.709903544334     0.830228641964     1.101336426260     1.007825032230
         H           -3.547249455666    -1.294952358036     0.383991426260     1.007825032230
         H           -2.982061455666     0.243789641964     1.043944426260     1.007825032230
         H           -2.124689455666    -1.255680358036     1.438932426260     1.007825032230
         H           -0.421674455666     1.867248641964     1.168351426260     1.007825032230
         H           -1.667974455666     2.035766641964    -0.080731573740     1.007825032230
         H            0.041796544334     2.299568641964    -0.475390573740     1.007825032230
         H            3.933079544334    -0.129991358036     0.480270426260     1.007825032230
         H            2.815000544334    -1.419245358036     0.972673426260     1.007825032230
         H            3.148681544334    -1.153605358036    -0.742709573740     1.007825032230

  Basis Set: AUG-CC-PVTZ
    Blend: AUG-CC-PVTZ
  Basis Set: (AUG-CC-PVTZ AUX)
    Blend: AUG-CC-PVTZ-JKFIT
	 Reference Energy          =    -289.2578081615686187 [Eh]
	 Singles Energy            =      -0.0000000000000000 [Eh]
	 Same-Spin Energy          =      -0.3071406373306120 [Eh]
	 Opposite-Spin Energy      =      -1.0948293293628779 [Eh]
	 Correlation Energy        =      -1.4019699666934899 [Eh]
	 Total Energy              =    -290.6597781282621327 [Eh]

	 ================> DF-SCS-MP2 Energies <==================
	-----------------------------------------------------------
	 SCS Same-Spin Scale       =       0.3333333333333333 [-]
	 SCS Opposite-Spin Scale   =       1.2000000000000000 [-]
	 SCS Same-Spin Energy      =      -0.1023802124435373 [Eh]
	 SCS Opposite-Spin Energy  =      -1.3137951952354534 [Eh]
	 SCS Correlation Energy    =      -1.4161754076789907 [Eh]
	 SCS Total Energy          =    -290.6739835692475822 [Eh]
	-----------------------------------------------------------

  Dipole Moment: [D]
     X:    -0.8490      Y:     1.7358      Z:     0.2544     Total:     1.9490

*** Psi4 exiting successfully. Buy a developer a beer!
