                               Psi4 1.3.2 release

  ==> Input File <==

--------------------------------------------------------------------------
#psi4
#
memory 32 gb

molecule  {
0 1
  N        0.6335420    -0.4278790    -0.2728430
  C       -1.7313700    -0.5561300    -0.6201830
  C       -0.4830900     0.2151130    -0.2797610
  C        1.8471620     0.3055680     0.0922530
  C       -2.6435280    -0.7283840     0.5986220
  C       -0.6149020     1.7263388    -0.1278607
  C        3.0183950    -0.6607510     0.1713530
  H       -1.4212120    -1.5322710    -1.0024030
  H       -2.2765240    -0.0356590    -1.4187580
  H        2.0539910     1.0846830    -0.6562090
  H        1.7201950     0.8226000     1.0546610
  H       -3.5369580    -1.3025810     0.3373160
  H       -2.9717700     0.2361610     0.9972690
  H       -2.1143980    -1.2633090     1.3922570
  H       -0.4113830     1.8596200     1.1216760
  H       -1.6576830     2.0281380    -0.1274070
  H        0.0520880     2.2919400    -0.5220660
  H        3.9433710    -0.1376200     0.4335950
  H        2.8252920    -1.4268740     0.9259980
  H        3.1589730    -1.1612340    -0.7893850
units angstrom
no_reorient  #important for SAPT in psi4, default
symmetry c1  #important for SAPT in psi4, default
}

set PROPERTIES_ORIGIN ["COM"]
properties('MP2/aug-cc-pvtz', properties = ['dipole'])
--------------------------------------------------------------------------

    Molecular point group: c1
  Charge       = 0
  Multiplicity = 1
  Basis Set: AUG-CC-PVTZ
    Blend: AUG-CC-PVTZ
  Basis Set: (AUG-CC-PVTZ AUX)
    Blend: AUG-CC-PVTZ-JKFIT

    Orbital Energies [Eh]
    ---------------------

    Doubly Occupied:

       1A    -15.537985     2A    -11.279110     3A    -11.242067
       4A    -11.237930     5A    -11.224612     6A    -11.220514
       7A    -11.202252     8A     -1.217270     9A     -1.059479
      10A     -0.999139    11A     -0.974992    12A     -0.878501
      13A     -0.817225    14A     -0.714760    15A     -0.666385
      16A     -0.626253    17A     -0.614804    18A     -0.591083
      19A     -0.583174    20A     -0.555248    21A     -0.525098
      22A     -0.516485    23A     -0.505577    24A     -0.492201
      25A     -0.480879    26A     -0.472699    27A     -0.389276
      28A     -0.373029

  @DF-RHF Final Energy:  -289.27752300757840

   => Energetics <=

    Nuclear Repulsion Energy =            307.2122424123840005
    One-Electron Energy =                -998.9834830606262130
    Two-Electron Energy =                 402.4937176406637604
    Total Energy =                       -289.2775230075783952
  Basis Set: (AUG-CC-PVTZ AUX)
    Blend: AUG-CC-PVTZ-RI
    Molecular point group: c1

    Geometry (in Angstrom), charge = 0, multiplicity = 1:

       Center              X                  Y                   Z               Mass
    ------------   -----------------  -----------------  -----------------  -----------------
         N            0.624031414690    -0.418842938811    -0.232003904608    14.003074004430
         C           -1.740880585310    -0.547093938811    -0.579343904608    12.000000000000
         C           -0.492600585310     0.224149061189    -0.238921904608    12.000000000000
         C            1.837651414690     0.314604061189     0.133092095392    12.000000000000
         C           -2.653038585310    -0.719347938811     0.639461095392    12.000000000000
         C           -0.624412585310     1.735374861189    -0.087021604608    12.000000000000
         C            3.008884414690    -0.651714938811     0.212192095392    12.000000000000
         H           -1.430722585310    -1.523234938811    -0.961563904608     1.007825032230
         H           -2.286034585310    -0.026622938811    -1.377918904608     1.007825032230
         H            2.044480414690     1.093719061189    -0.615369904608     1.007825032230
         H            1.710684414690     0.831636061189     1.095500095392     1.007825032230
         H           -3.546468585310    -1.293544938811     0.378155095392     1.007825032230
         H           -2.981280585310     0.245197061189     1.038108095392     1.007825032230
         H           -2.123908585310    -1.254272938811     1.433096095392     1.007825032230
         H           -0.420893585310     1.868656061189     1.162515095392     1.007825032230
         H           -1.667193585310     2.037174061189    -0.086567904608     1.007825032230
         H            0.042577414690     2.300976061189    -0.481226904608     1.007825032230
         H            3.933860414690    -0.128583938811     0.474434095392     1.007825032230
         H            2.815781414690    -1.417837938811     0.966837095392     1.007825032230
         H            3.149462414690    -1.152197938811    -0.748545904608     1.007825032230

  Basis Set: AUG-CC-PVTZ
    Blend: AUG-CC-PVTZ
  Basis Set: (AUG-CC-PVTZ AUX)
    Blend: AUG-CC-PVTZ-JKFIT
	 Reference Energy          =    -289.2775230075783952 [Eh]
	 Singles Energy            =      -0.0000000000000000 [Eh]
	 Same-Spin Energy          =      -0.3068380709565751 [Eh]
	 Opposite-Spin Energy      =      -1.0938421210066729 [Eh]
	 Correlation Energy        =      -1.4006801919632479 [Eh]
	 Total Energy              =    -290.6782031995416560 [Eh]

	 ================> DF-SCS-MP2 Energies <==================
	-----------------------------------------------------------
	 SCS Same-Spin Scale       =       0.3333333333333333 [-]
	 SCS Opposite-Spin Scale   =       1.2000000000000000 [-]
	 SCS Same-Spin Energy      =      -0.1022793569855250 [Eh]
	 SCS Opposite-Spin Energy  =      -1.3126105452080075 [Eh]
	 SCS Correlation Energy    =      -1.4148899021935324 [Eh]
	 SCS Total Energy          =    -290.6924129097719174 [Eh]
	-----------------------------------------------------------

  Dipole Moment: [D]
     X:    -0.8414      Y:     1.7508      Z:     0.2784     Total:     1.9623

*** Psi4 exiting successfully. Buy a developer a beer!
