                               Psi4 1.3.2 release

  ==> Input File <==

--------------------------------------------------------------------------
#psi4
#
memory 32 gb

molecule  {
0 1
 Cl        1.2524280     1.4463390     0.9876330
 Cl        2.7904220    -0.0000060    -1.0049900
 Cl        1.2524060    -1.4463410     0.9876250
  O        0.2842333    -0.0491111    -1.0012138
  C       -1.0473080     0.0000040    -0.5388570
  C       -1.7060310    -1.2192040    -0.3956300
  C       -1.7060400     1.2192100    -0.3956360
  C       -3.0551880    -1.2099090    -0.0381990
  C       -3.0551940     1.2099130    -0.0382080
  C       -3.7295220    -0.0000010     0.1434410
  C        1.2953470    -0.0000010    -0.0639540
  H       -1.1690490    -2.1465760    -0.5644520
  H       -1.1690510     2.1465770    -0.5644670
  H       -3.5827340    -2.1524420     0.0828180
  H       -3.5827470     2.1524420     0.0828000
  H       -4.7808520    -0.0000040     0.4187920
units angstrom
no_reorient  #important for SAPT in psi4, default
symmetry c1  #important for SAPT in psi4, default
}

set PROPERTIES_ORIGIN ["COM"]
properties('MP2/aug-cc-pvtz', properties = ['dipole'])
--------------------------------------------------------------------------

    Molecular point group: c1
  Charge       = 0
  Multiplicity = 1
  Basis Set: AUG-CC-PVTZ
    Blend: AUG-CC-PVTZ
  Basis Set: (AUG-CC-PVTZ AUX)
    Blend: AUG-CC-PVTZ-JKFIT

    Orbital Energies [Eh]
    ---------------------

    Doubly Occupied:

       1A   -104.864399     2A   -104.862594     3A   -104.860195
       4A    -20.631280     5A    -11.494969     6A    -11.316160
       7A    -11.255234     8A    -11.253811     9A    -11.253600
      10A    -11.252419    11A    -11.250695    12A    -10.588939
      13A    -10.587220    14A    -10.584974    15A     -8.055653
      16A     -8.054008    17A     -8.053562    18A     -8.053537
      19A     -8.051788    20A     -8.051786    21A     -8.051684
      22A     -8.049603    23A     -8.049583    24A     -1.467741
      25A     -1.218911    26A     -1.163175    27A     -1.115999
      28A     -1.112647    29A     -1.034940    30A     -1.028308
      31A     -0.884661    32A     -0.853491    33A     -0.807091
      34A     -0.734214    35A     -0.697577    36A     -0.694776
      37A     -0.686815    38A     -0.634941    39A     -0.630564
      40A     -0.607141    41A     -0.582142    42A     -0.538487
      43A     -0.535081    44A     -0.517301    45A     -0.510836
      46A     -0.498621    47A     -0.492799    48A     -0.480660
      49A     -0.460927    50A     -0.459386    51A     -0.447629
      52A     -0.352773    53A     -0.350019

  @DF-RHF Final Energy: -1721.48701027688912

   => Energetics <=

    Nuclear Repulsion Energy =            894.2946929255656414
    One-Electron Energy =               -4151.3087138233358928
    Two-Electron Energy =                1535.5270106208809011
    Total Energy =                      -1721.4870102768891229
  Basis Set: (AUG-CC-PVTZ AUX)
    Blend: AUG-CC-PVTZ-RI
    Molecular point group: c1

    Geometry (in Angstrom), charge = 0, multiplicity = 1:

       Center              X                  Y                   Z               Mass
    ------------   -----------------  -----------------  -----------------  -----------------
         CL           1.160631208937     1.450081328229     0.980766563867    34.968852682000
         CL           2.698625208937     0.003736328229    -1.011856436133    34.968852682000
         CL           1.160609208937    -1.442598671771     0.980758563867    34.968852682000
         O            0.192436508937    -0.045368771771    -1.008080236133    15.994914619570
         C           -1.139104791063     0.003746328229    -0.545723436133    12.000000000000
         C           -1.797827791063    -1.215461671771    -0.402496436133    12.000000000000
         C           -1.797836791063     1.222952328229    -0.402502436133    12.000000000000
         C           -3.146984791063    -1.206166671771    -0.045065436133    12.000000000000
         C           -3.146990791063     1.213655328229    -0.045074436133    12.000000000000
         C           -3.821318791063     0.003741328229     0.136574563867    12.000000000000
         C            1.203550208937     0.003741328229    -0.070820436133    12.000000000000
         H           -1.260845791063    -2.142833671771    -0.571318436133     1.007825032230
         H           -1.260847791063     2.150319328229    -0.571333436133     1.007825032230
         H           -3.674530791063    -2.148699671771     0.075951563867     1.007825032230
         H           -3.674543791063     2.156184328229     0.075933563867     1.007825032230
         H           -4.872648791063     0.003738328229     0.411925563867     1.007825032230

  Basis Set: AUG-CC-PVTZ
    Blend: AUG-CC-PVTZ
  Basis Set: (AUG-CC-PVTZ AUX)
    Blend: AUG-CC-PVTZ-JKFIT
	 Reference Energy          =   -1721.4870102768891229 [Eh]
	 Singles Energy            =      -0.0000000000000000 [Eh]
	 Same-Spin Energy          =      -0.5627226473940006 [Eh]
	 Opposite-Spin Energy      =      -1.6468027289896519 [Eh]
	 Correlation Energy        =      -2.2095253763836524 [Eh]
	 Total Energy              =   -1723.6965356532728038 [Eh]

	 ================> DF-SCS-MP2 Energies <==================
	-----------------------------------------------------------
	 SCS Same-Spin Scale       =       0.3333333333333333 [-]
	 SCS Opposite-Spin Scale   =       1.2000000000000000 [-]
	 SCS Same-Spin Energy      =      -0.1875742157980002 [Eh]
	 SCS Opposite-Spin Energy  =      -1.9761632747875821 [Eh]
	 SCS Correlation Energy    =      -2.1637374905855822 [Eh]
	 SCS Total Energy          =   -1723.6507477674747406 [Eh]
	-----------------------------------------------------------

  Dipole Moment: [D]
     X:    -2.1959      Y:     0.1020      Z:     0.2505     Total:     2.2125

*** Psi4 exiting successfully. Buy a developer a beer!
