                               Psi4 1.3.2 release

  ==> Input File <==

--------------------------------------------------------------------------
#psi4
#
memory 32 gb

molecule  {
0 1
 Cl        1.4029549     1.3759589     1.0739088
 Cl        2.7904220    -0.0000060    -1.0049900
 Cl        1.2524060    -1.4463410     0.9876250
  O        0.2860860     0.0000070    -0.9984750
  C       -1.0473080     0.0000040    -0.5388570
  C       -1.7060310    -1.2192040    -0.3956300
  C       -1.7060400     1.2192100    -0.3956360
  C       -3.0551880    -1.2099090    -0.0381990
  C       -3.0551940     1.2099130    -0.0382080
  C       -3.7295220    -0.0000010     0.1434410
  C        1.2953470    -0.0000010    -0.0639540
  H       -1.1690490    -2.1465760    -0.5644520
  H       -1.1690510     2.1465770    -0.5644670
  H       -3.5827340    -2.1524420     0.0828180
  H       -3.5827470     2.1524420     0.0828000
  H       -4.7808520    -0.0000040     0.4187920
units angstrom
no_reorient  #important for SAPT in psi4, default
symmetry c1  #important for SAPT in psi4, default
}

set PROPERTIES_ORIGIN ["COM"]
properties('MP2/aug-cc-pvtz', properties = ['dipole'])
--------------------------------------------------------------------------

    Molecular point group: c1
  Charge       = 0
  Multiplicity = 1
  Basis Set: AUG-CC-PVTZ
    Blend: AUG-CC-PVTZ
  Basis Set: (AUG-CC-PVTZ AUX)
    Blend: AUG-CC-PVTZ-JKFIT

    Orbital Energies [Eh]
    ---------------------

    Doubly Occupied:

       1A   -104.862376     2A   -104.859773     3A   -104.858706
       4A    -20.636169     5A    -11.494689     6A    -11.318109
       7A    -11.255964     8A    -11.255632     9A    -11.254677
      10A    -11.254385    11A    -11.251911    12A    -10.587008
      13A    -10.584594    14A    -10.583635    15A     -8.053717
      16A     -8.051608    17A     -8.051581    18A     -8.051375
      19A     -8.050336    20A     -8.049163    21A     -8.049156
      22A     -8.048257    23A     -8.048236    24A     -1.470728
      25A     -1.222052    26A     -1.164867    27A     -1.114396
      28A     -1.108494    29A     -1.036262    30A     -1.029958
      31A     -0.886777    32A     -0.854934    33A     -0.807811
      34A     -0.736477    35A     -0.698799    36A     -0.695434
      37A     -0.687590    38A     -0.634545    39A     -0.632059
      40A     -0.608067    41A     -0.583515    42A     -0.539367
      43A     -0.536596    44A     -0.518427    45A     -0.510171
      46A     -0.503024    47A     -0.493075    48A     -0.481150
      49A     -0.457518    50A     -0.454653    51A     -0.443316
      52A     -0.354254    53A     -0.351717

  @DF-RHF Final Energy: -1721.48546202923035

   => Energetics <=

    Nuclear Repulsion Energy =            892.7205319898992002
    One-Electron Energy =               -4148.1578086999534207
    Two-Electron Energy =                1533.9518146808236452
    Total Energy =                      -1721.4854620292303480
  Basis Set: (AUG-CC-PVTZ AUX)
    Blend: AUG-CC-PVTZ-RI
    Molecular point group: c1

    Geometry (in Angstrom), charge = 0, multiplicity = 1:

       Center              X                  Y                   Z               Mass
    ------------   -----------------  -----------------  -----------------  -----------------
         CL           1.285944373128     1.387681921579     1.052463132199    34.968852682000
         CL           2.673411473128     0.011717021579    -1.026435667801    34.968852682000
         CL           1.135395473128    -1.434617978421     0.966179332199    34.968852682000
         O            0.169075473128     0.011730021579    -1.019920667801    15.994914619570
         C           -1.164318526872     0.011727021579    -0.560302667801    12.000000000000
         C           -1.823041526872    -1.207480978421    -0.417075667801    12.000000000000
         C           -1.823050526872     1.230933021579    -0.417081667801    12.000000000000
         C           -3.172198526872    -1.198185978421    -0.059644667801    12.000000000000
         C           -3.172204526872     1.221636021579    -0.059653667801    12.000000000000
         C           -3.846532526872     0.011722021579     0.121995332199    12.000000000000
         C            1.178336473128     0.011722021579    -0.085399667801    12.000000000000
         H           -1.286059526872    -2.134852978421    -0.585897667801     1.007825032230
         H           -1.286061526872     2.158300021579    -0.585912667801     1.007825032230
         H           -3.699744526872    -2.140718978421     0.061372332199     1.007825032230
         H           -3.699757526872     2.164165021579     0.061354332199     1.007825032230
         H           -4.897862526872     0.011719021579     0.397346332199     1.007825032230

  Basis Set: AUG-CC-PVTZ
    Blend: AUG-CC-PVTZ
  Basis Set: (AUG-CC-PVTZ AUX)
    Blend: AUG-CC-PVTZ-JKFIT
	 Reference Energy          =   -1721.4854620292303480 [Eh]
	 Singles Energy            =      -0.0000000000000000 [Eh]
	 Same-Spin Energy          =      -0.5625364414545955 [Eh]
	 Opposite-Spin Energy      =      -1.6464224816045150 [Eh]
	 Correlation Energy        =      -2.2089589230591105 [Eh]
	 Total Energy              =   -1723.6944209522894198 [Eh]

	 ================> DF-SCS-MP2 Energies <==================
	-----------------------------------------------------------
	 SCS Same-Spin Scale       =       0.3333333333333333 [-]
	 SCS Opposite-Spin Scale   =       1.2000000000000000 [-]
	 SCS Same-Spin Energy      =      -0.1875121471515318 [Eh]
	 SCS Opposite-Spin Energy  =      -1.9757069779254179 [Eh]
	 SCS Correlation Energy    =      -2.1632191250769499 [Eh]
	 SCS Total Energy          =   -1723.6486811543072690 [Eh]
	-----------------------------------------------------------

  Dipole Moment: [D]
     X:    -2.3583      Y:     0.0514      Z:     0.2224     Total:     2.3694

*** Psi4 exiting successfully. Buy a developer a beer!
