                               Psi4 1.3.2 release

  ==> Input File <==

--------------------------------------------------------------------------
#psi4
#
memory 32 gb

molecule  {
0 1
 Cl        1.2524280     1.4463390     0.9876330
 Cl        2.7904220    -0.0000060    -1.0049900
 Cl        1.2524060    -1.4463410     0.9876250
  O        0.2807583    -0.0981693    -1.0033892
  C       -1.0473080     0.0000040    -0.5388570
  C       -1.7060310    -1.2192040    -0.3956300
  C       -1.7060400     1.2192100    -0.3956360
  C       -3.0551880    -1.2099090    -0.0381990
  C       -3.0551940     1.2099130    -0.0382080
  C       -3.7295220    -0.0000010     0.1434410
  C        1.2953470    -0.0000010    -0.0639540
  H       -1.1690490    -2.1465760    -0.5644520
  H       -1.1690510     2.1465770    -0.5644670
  H       -3.5827340    -2.1524420     0.0828180
  H       -3.5827470     2.1524420     0.0828000
  H       -4.7808520    -0.0000040     0.4187920
units angstrom
no_reorient  #important for SAPT in psi4, default
symmetry c1  #important for SAPT in psi4, default
}

set PROPERTIES_ORIGIN ["COM"]
properties('MP2/aug-cc-pvtz', properties = ['dipole'])
--------------------------------------------------------------------------

    Molecular point group: c1
  Charge       = 0
  Multiplicity = 1
  Basis Set: AUG-CC-PVTZ
    Blend: AUG-CC-PVTZ
  Basis Set: (AUG-CC-PVTZ AUX)
    Blend: AUG-CC-PVTZ-JKFIT

    Orbital Energies [Eh]
    ---------------------

    Doubly Occupied:

       1A   -104.866907     2A   -104.862899     3A   -104.858597
       4A    -20.631250     5A    -11.495246     6A    -11.315724
       7A    -11.255877     8A    -11.254046     9A    -11.252822
      10A    -11.251273    11A    -11.250384    12A    -10.591305
      13A    -10.587505    14A    -10.583465    15A     -8.058021
      16A     -8.055922    17A     -8.055893    18A     -8.054294
      19A     -8.052075    20A     -8.052071    21A     -8.050172
      22A     -8.048093    23A     -8.048075    24A     -1.465437
      25A     -1.219302    26A     -1.162886    27A     -1.116614
      28A     -1.112344    29A     -1.034726    30A     -1.027616
      31A     -0.883695    32A     -0.852955    33A     -0.807111
      34A     -0.733782    35A     -0.697544    36A     -0.693353
      37A     -0.685973    38A     -0.634717    39A     -0.629984
      40A     -0.606930    41A     -0.582583    42A     -0.538898
      43A     -0.534858    44A     -0.517092    45A     -0.511263
      46A     -0.498844    47A     -0.493369    48A     -0.479796
      49A     -0.461648    50A     -0.458924    51A     -0.447795
      52A     -0.352603    53A     -0.349522

  @DF-RHF Final Energy: -1721.48503086937808

   => Energetics <=

    Nuclear Repulsion Energy =            894.1195404027447466
    One-Electron Energy =               -4150.9609814800705863
    Two-Electron Energy =                1535.3564102079476470
    Total Energy =                      -1721.4850308693780789
  Basis Set: (AUG-CC-PVTZ AUX)
    Blend: AUG-CC-PVTZ-RI
    Molecular point group: c1

    Geometry (in Angstrom), charge = 0, multiplicity = 1:

       Center              X                  Y                   Z               Mass
    ------------   -----------------  -----------------  -----------------  -----------------
         CL           1.160895961580     1.453818965106     0.980932302832    34.968852682000
         CL           2.698889961580     0.007473965106    -1.011690697168    34.968852682000
         CL           1.160873961580    -1.438861034894     0.980924302832    34.968852682000
         O            0.189226261580    -0.090689334894    -1.010089897168    15.994914619570
         C           -1.138840038420     0.007483965106    -0.545557697168    12.000000000000
         C           -1.797563038420    -1.211724034894    -0.402330697168    12.000000000000
         C           -1.797572038420     1.226689965106    -0.402336697168    12.000000000000
         C           -3.146720038420    -1.202429034894    -0.044899697168    12.000000000000
         C           -3.146726038420     1.217392965106    -0.044908697168    12.000000000000
         C           -3.821054038420     0.007478965106     0.136740302832    12.000000000000
         C            1.203814961580     0.007478965106    -0.070654697168    12.000000000000
         H           -1.260581038420    -2.139096034894    -0.571152697168     1.007825032230
         H           -1.260583038420     2.154056965106    -0.571167697168     1.007825032230
         H           -3.674266038420    -2.144962034894     0.076117302832     1.007825032230
         H           -3.674279038420     2.159921965106     0.076099302832     1.007825032230
         H           -4.872384038420     0.007475965106     0.412091302832     1.007825032230

  Basis Set: AUG-CC-PVTZ
    Blend: AUG-CC-PVTZ
  Basis Set: (AUG-CC-PVTZ AUX)
    Blend: AUG-CC-PVTZ-JKFIT
	 Reference Energy          =   -1721.4850308693780789 [Eh]
	 Singles Energy            =      -0.0000000000000000 [Eh]
	 Same-Spin Energy          =      -0.5628244578580162 [Eh]
	 Opposite-Spin Energy      =      -1.6471405416774774 [Eh]
	 Correlation Energy        =      -2.2099649995354937 [Eh]
	 Total Energy              =   -1723.6949958689135656 [Eh]

	 ================> DF-SCS-MP2 Energies <==================
	-----------------------------------------------------------
	 SCS Same-Spin Scale       =       0.3333333333333333 [-]
	 SCS Opposite-Spin Scale   =       1.2000000000000000 [-]
	 SCS Same-Spin Energy      =      -0.1876081526193387 [Eh]
	 SCS Opposite-Spin Energy  =      -1.9765686500129727 [Eh]
	 SCS Correlation Energy    =      -2.1641768026323112 [Eh]
	 SCS Total Energy          =   -1723.6492076720103341 [Eh]
	-----------------------------------------------------------

  Dipole Moment: [D]
     X:    -2.1575      Y:     0.2025      Z:     0.2641     Total:     2.1830

*** Psi4 exiting successfully. Buy a developer a beer!
