                               Psi4 1.3.2 release

  ==> Input File <==

--------------------------------------------------------------------------
#psi4
#
memory 32 gb

molecule  {
0 1
 Cl        1.2524280     1.4463390     0.9876330
 Cl        2.7904220    -0.0000060    -1.0049900
 Cl        1.2524060    -1.4463410     0.9876250
  O        0.2863142     0.0491251    -0.9951763
  C       -1.0473080     0.0000040    -0.5388570
  C       -1.7060310    -1.2192040    -0.3956300
  C       -1.7060400     1.2192100    -0.3956360
  C       -3.0551880    -1.2099090    -0.0381990
  C       -3.0551940     1.2099130    -0.0382080
  C       -3.7295220    -0.0000010     0.1434410
  C        1.2953470    -0.0000010    -0.0639540
  H       -1.1690490    -2.1465760    -0.5644520
  H       -1.1690510     2.1465770    -0.5644670
  H       -3.5827340    -2.1524420     0.0828180
  H       -3.5827470     2.1524420     0.0828000
  H       -4.7808520    -0.0000040     0.4187920
units angstrom
no_reorient  #important for SAPT in psi4, default
symmetry c1  #important for SAPT in psi4, default
}

set PROPERTIES_ORIGIN ["COM"]
properties('MP2/aug-cc-pvtz', properties = ['dipole'])
--------------------------------------------------------------------------

    Molecular point group: c1
  Charge       = 0
  Multiplicity = 1
  Basis Set: AUG-CC-PVTZ
    Blend: AUG-CC-PVTZ
  Basis Set: (AUG-CC-PVTZ AUX)
    Blend: AUG-CC-PVTZ-JKFIT

    Orbital Energies [Eh]
    ---------------------

    Doubly Occupied:

       1A   -104.863961     2A   -104.862454     3A   -104.859716
       4A    -20.631253     5A    -11.494722     6A    -11.316641
       7A    -11.255436     8A    -11.253982     9A    -11.253780
      10A    -11.252612    11A    -11.250845    12A    -10.588529
      13A    -10.587091    14A    -10.584527    15A     -8.055243
      16A     -8.053879    17A     -8.053154    18A     -8.053129
      19A     -8.051659    20A     -8.051657    21A     -8.051236
      22A     -8.049157    23A     -8.049138    24A     -1.469915
      25A     -1.218648    26A     -1.163398    27A     -1.115907
      28A     -1.112433    29A     -1.035117    30A     -1.028900
      31A     -0.885761    32A     -0.853702    33A     -0.806995
      34A     -0.734607    35A     -0.697997    36A     -0.695534
      37A     -0.687692    38A     -0.635141    39A     -0.630722
      40A     -0.607299    41A     -0.581689    42A     -0.538482
      43A     -0.535251    44A     -0.517477    45A     -0.510950
      46A     -0.498636    47A     -0.492567    48A     -0.480291
      49A     -0.460744    50A     -0.459150    51A     -0.447389
      52A     -0.352931    53A     -0.350220

  @DF-RHF Final Energy: -1721.48733431431174

   => Energetics <=

    Nuclear Repulsion Energy =            894.4993186350736778
    One-Electron Energy =               -4151.7146173888377234
    Two-Electron Energy =                1535.7279644394520801
    Total Energy =                      -1721.4873343143117381
  Basis Set: (AUG-CC-PVTZ AUX)
    Blend: AUG-CC-PVTZ-RI
    Molecular point group: c1

    Geometry (in Angstrom), charge = 0, multiplicity = 1:

       Center              X                  Y                   Z               Mass
    ------------   -----------------  -----------------  -----------------  -----------------
         CL           1.160472669720     1.442596927176     0.980306579957    34.968852682000
         CL           2.698466669720    -0.003748072824    -1.012316420043    34.968852682000
         CL           1.160450669720    -1.450083072824     0.980298579957    34.968852682000
         O            0.194358869720     0.045383027176    -1.002502720043    15.994914619570
         C           -1.139263330280    -0.003738072824    -0.546183420043    12.000000000000
         C           -1.797986330280    -1.222946072824    -0.402956420043    12.000000000000
         C           -1.797995330280     1.215467927176    -0.402962420043    12.000000000000
         C           -3.147143330280    -1.213651072824    -0.045525420043    12.000000000000
         C           -3.147149330280     1.206170927176    -0.045534420043    12.000000000000
         C           -3.821477330280    -0.003743072824     0.136114579957    12.000000000000
         C            1.203391669720    -0.003743072824    -0.071280420043    12.000000000000
         H           -1.261004330280    -2.150318072824    -0.571778420043     1.007825032230
         H           -1.261006330280     2.142834927176    -0.571793420043     1.007825032230
         H           -3.674689330280    -2.156184072824     0.075491579957     1.007825032230
         H           -3.674702330280     2.148699927176     0.075473579957     1.007825032230
         H           -4.872807330280    -0.003746072824     0.411465579957     1.007825032230

  Basis Set: AUG-CC-PVTZ
    Blend: AUG-CC-PVTZ
  Basis Set: (AUG-CC-PVTZ AUX)
    Blend: AUG-CC-PVTZ-JKFIT
	 Reference Energy          =   -1721.4873343143117381 [Eh]
	 Singles Energy            =      -0.0000000000000000 [Eh]
	 Same-Spin Energy          =      -0.5626855518473810 [Eh]
	 Opposite-Spin Energy      =      -1.6466165385683289 [Eh]
	 Correlation Energy        =      -2.2093020904157097 [Eh]
	 Total Energy              =   -1723.6966364047275420 [Eh]

	 ================> DF-SCS-MP2 Energies <==================
	-----------------------------------------------------------
	 SCS Same-Spin Scale       =       0.3333333333333333 [-]
	 SCS Opposite-Spin Scale   =       1.2000000000000000 [-]
	 SCS Same-Spin Energy      =      -0.1875618506157937 [Eh]
	 SCS Opposite-Spin Energy  =      -1.9759398462819946 [Eh]
	 SCS Correlation Energy    =      -2.1635016968977885 [Eh]
	 SCS Total Energy          =   -1723.6508360112095488 [Eh]
	-----------------------------------------------------------

  Dipole Moment: [D]
     X:    -2.2207      Y:    -0.1025      Z:     0.2313     Total:     2.2351

*** Psi4 exiting successfully. Buy a developer a beer!
