                               Psi4 1.3.2 release

  ==> Input File <==

--------------------------------------------------------------------------
#psi4
#
memory 32 gb

molecule  {
0 1
 Cl        1.2524280     1.4463390     0.9876330
 Cl        2.7904220    -0.0000060    -1.0049900
 Cl        1.2524060    -1.4463410     0.9876250
  O        0.2860860     0.0000070    -0.9984750
  C       -1.0473080     0.0000040    -0.5388570
  C       -1.7060310    -1.2192040    -0.3956300
  C       -1.7060400     1.2192100    -0.3956360
  C       -3.0551880    -1.2099090    -0.0381990
  C       -3.0551940     1.2099130    -0.0382080
  C       -3.7295220    -0.0000010     0.1434410
  C        1.2219717    -0.0000004    -0.1318956
  H       -1.1690490    -2.1465760    -0.5644520
  H       -1.1690510     2.1465770    -0.5644670
  H       -3.5827340    -2.1524420     0.0828180
  H       -3.5827470     2.1524420     0.0828000
  H       -4.7808520    -0.0000040     0.4187920
units angstrom
no_reorient  #important for SAPT in psi4, default
symmetry c1  #important for SAPT in psi4, default
}

set PROPERTIES_ORIGIN ["COM"]
properties('MP2/aug-cc-pvtz', properties = ['dipole'])
--------------------------------------------------------------------------

    Molecular point group: c1
  Charge       = 0
  Multiplicity = 1
  Basis Set: AUG-CC-PVTZ
    Blend: AUG-CC-PVTZ
  Basis Set: (AUG-CC-PVTZ AUX)
    Blend: AUG-CC-PVTZ-JKFIT

    Orbital Energies [Eh]
    ---------------------

    Doubly Occupied:

       1A   -104.856857     2A   -104.852929     3A   -104.852928
       4A    -20.648981     5A    -11.496961     6A    -11.326492
       7A    -11.261305     8A    -11.261280     9A    -11.258864
      10A    -11.258553    11A    -11.256339    12A    -10.581250
      13A    -10.577397    14A    -10.577387    15A     -8.047972
      16A     -8.045836    17A     -8.045836    18A     -8.044021
      19A     -8.044020    20A     -8.042052    21A     -8.042051
      22A     -8.042030    23A     -8.042029    24A     -1.523335
      25A     -1.205816    26A     -1.169301    27A     -1.105564
      28A     -1.099464    29A     -1.042339    30A     -1.040830
      31A     -0.906534    32A     -0.860998    33A     -0.810822
      34A     -0.744695    35A     -0.714136    36A     -0.709232
      37A     -0.700976    38A     -0.637181    39A     -0.635680
      40A     -0.612330    41A     -0.570342    42A     -0.538527
      43A     -0.537637    44A     -0.524685    45A     -0.512312
      46A     -0.500037    47A     -0.487666    48A     -0.475403
      49A     -0.451685    50A     -0.450233    51A     -0.439923
      52A     -0.357842    53A     -0.357769

  @DF-RHF Final Energy: -1721.48278401088032

   => Energetics <=

    Nuclear Repulsion Energy =            894.8564603535741071
    One-Electron Energy =               -4152.3051567352413258
    Two-Electron Energy =                1535.9659123707867820
    Total Energy =                      -1721.4827840108803230
  Basis Set: (AUG-CC-PVTZ AUX)
    Blend: AUG-CC-PVTZ-RI
    Molecular point group: c1

    Geometry (in Angstrom), charge = 0, multiplicity = 1:

       Center              X                  Y                   Z               Mass
    ------------   -----------------  -----------------  -----------------  -----------------
         CL           1.164684116428     1.446339093407     0.984441376342    34.968852682000
         CL           2.702678116428    -0.000005906593    -1.008181623658    34.968852682000
         CL           1.164662116428    -1.446340906593     0.984433376342    34.968852682000
         O            0.198342116428     0.000007093407    -1.001666623658    15.994914619570
         C           -1.135051883572     0.000004093407    -0.542048623658    12.000000000000
         C           -1.793774883572    -1.219203906593    -0.398821623658    12.000000000000
         C           -1.793783883572     1.219210093407    -0.398827623658    12.000000000000
         C           -3.142931883572    -1.209908906593    -0.041390623658    12.000000000000
         C           -3.142937883572     1.209913093407    -0.041399623658    12.000000000000
         C           -3.817265883572    -0.000000906593     0.140249376342    12.000000000000
         C            1.134227816428    -0.000000306593    -0.135087223658    12.000000000000
         H           -1.256792883572    -2.146575906593    -0.567643623658     1.007825032230
         H           -1.256794883572     2.146577093407    -0.567658623658     1.007825032230
         H           -3.670477883572    -2.152441906593     0.079626376342     1.007825032230
         H           -3.670490883572     2.152442093407     0.079608376342     1.007825032230
         H           -4.868595883572    -0.000003906593     0.415600376342     1.007825032230

  Basis Set: AUG-CC-PVTZ
    Blend: AUG-CC-PVTZ
  Basis Set: (AUG-CC-PVTZ AUX)
    Blend: AUG-CC-PVTZ-JKFIT
	 Reference Energy          =   -1721.4827840108803230 [Eh]
	 Singles Energy            =      -0.0000000000000000 [Eh]
	 Same-Spin Energy          =      -0.5625847983616410 [Eh]
	 Opposite-Spin Energy      =      -1.6458410403416264 [Eh]
	 Correlation Energy        =      -2.2084258387032674 [Eh]
	 Total Energy              =   -1723.6912098495836290 [Eh]

	 ================> DF-SCS-MP2 Energies <==================
	-----------------------------------------------------------
	 SCS Same-Spin Scale       =       0.3333333333333333 [-]
	 SCS Opposite-Spin Scale   =       1.2000000000000000 [-]
	 SCS Same-Spin Energy      =      -0.1875282661205470 [Eh]
	 SCS Opposite-Spin Energy  =      -1.9750092484099515 [Eh]
	 SCS Correlation Energy    =      -2.1625375145304986 [Eh]
	 SCS Total Energy          =   -1723.6453215254107363 [Eh]
	-----------------------------------------------------------

  Dipole Moment: [D]
     X:    -3.0137      Y:    -0.0000      Z:    -0.1796     Total:     3.0191

*** Psi4 exiting successfully. Buy a developer a beer!
