                               Psi4 1.4a3.dev225

  ==> Input File <==

--------------------------------------------------------------------------
#psi4
#
memory 32 gb

molecule  {
0 1
 Cl        1.2524280     1.4463390     0.9876330
 Cl        2.7904220    -0.0000060    -1.0049900
 Cl        1.2524060    -1.4463410     0.9876250
  O        0.2860860     0.0000070    -0.9984750
  C       -1.0000375     0.0000041    -0.5551511
  C       -1.7060310    -1.2192040    -0.3956300
  C       -1.7060400     1.2192100    -0.3956360
  C       -3.0551880    -1.2099090    -0.0381990
  C       -3.0551940     1.2099130    -0.0382080
  C       -3.7295220    -0.0000010     0.1434410
  C        1.2953470    -0.0000010    -0.0639540
  H       -1.1690490    -2.1465760    -0.5644520
  H       -1.1690510     2.1465770    -0.5644670
  H       -3.5827340    -2.1524420     0.0828180
  H       -3.5827470     2.1524420     0.0828000
  H       -4.7808520    -0.0000040     0.4187920
units angstrom
no_reorient  #important for SAPT in psi4, default
symmetry c1  #important for SAPT in psi4, default
}

set PROPERTIES_ORIGIN ["COM"]
properties('MP2/aug-cc-pvtz', properties = ['dipole'])
--------------------------------------------------------------------------

    Molecular point group: c1
  Charge       = 0
  Multiplicity = 1
  Basis Set: AUG-CC-PVTZ
    Blend: AUG-CC-PVTZ
  Basis Set: (AUG-CC-PVTZ AUX)
    Blend: AUG-CC-PVTZ-JKFIT

    Orbital Energies [Eh]
    ---------------------

    Doubly Occupied:

       1A   -104.865006     2A   -104.864377     3A   -104.864376
       4A    -20.637343     5A    -11.498351     6A    -11.317758
       7A    -11.254026     8A    -11.254004     9A    -11.251685
      10A    -11.251377    11A    -11.249156    12A    -10.589614
      13A    -10.588999    14A    -10.588988    15A     -8.056404
      16A     -8.055707    17A     -8.055706    18A     -8.054176
      19A     -8.054174    20A     -8.053610    21A     -8.053608
      22A     -8.053585    23A     -8.053585    24A     -1.487522
      25A     -1.223572    26A     -1.156599    27A     -1.118201
      28A     -1.114976    29A     -1.029899    30A     -1.025547
      31A     -0.895648    32A     -0.849657    33A     -0.806254
      34A     -0.738613    35A     -0.701555    36A     -0.700902
      37A     -0.692470    38A     -0.631885    39A     -0.628572
      40A     -0.601656    41A     -0.586989    42A     -0.541884
      43A     -0.536376    44A     -0.512418    45A     -0.506814
      46A     -0.501344    47A     -0.495333    48A     -0.479537
      49A     -0.462623    50A     -0.461051    51A     -0.449539
      52A     -0.350131    53A     -0.343606

  @DF-RHF Final Energy: -1721.48490260994527

   => Energetics <=

    Nuclear Repulsion Energy =            894.7916285594729970
    One-Electron Energy =               -4152.1594755585783787
    Two-Electron Energy =                1535.8829443891602295
    Total Energy =                      -1721.4849026099452658
  Basis Set: (AUG-CC-PVTZ AUX)
    Blend: AUG-CC-PVTZ-RI
    Molecular point group: c1

    Geometry (in Angstrom), charge = 0, multiplicity = 1:

       Center              X                  Y                   Z               Mass
    ------------   -----------------  -----------------  -----------------  -----------------
         CL           1.157788120061     1.446339121986     0.981489255569    34.968852682000
         CL           2.695782120061    -0.000005878014    -1.011133744431    34.968852682000
         CL           1.157766120061    -1.446340878014     0.981481255569    34.968852682000
         O            0.191446120061     0.000007121986    -1.004618744431    15.994914619570
         C           -1.094677379939     0.000004221986    -0.561294844431    12.000000000000
         C           -1.800670879939    -1.219203878014    -0.401773744431    12.000000000000
         C           -1.800679879939     1.219210121986    -0.401779744431    12.000000000000
         C           -3.149827879939    -1.209908878014    -0.044342744431    12.000000000000
         C           -3.149833879939     1.209913121986    -0.044351744431    12.000000000000
         C           -3.824161879939    -0.000000878014     0.137297255569    12.000000000000
         C            1.200707120061    -0.000000878014    -0.070097744431    12.000000000000
         H           -1.263688879939    -2.146575878014    -0.570595744431     1.007825032230
         H           -1.263690879939     2.146577121986    -0.570610744431     1.007825032230
         H           -3.677373879939    -2.152441878014     0.076674255569     1.007825032230
         H           -3.677386879939     2.152442121986     0.076656255569     1.007825032230
         H           -4.875491879939    -0.000003878014     0.412648255569     1.007825032230

  Basis Set: AUG-CC-PVTZ
    Blend: AUG-CC-PVTZ
  Basis Set: (AUG-CC-PVTZ AUX)
    Blend: AUG-CC-PVTZ-JKFIT
	 Reference Energy          =   -1721.4849026099452658 [Eh]
	 Singles Energy            =      -0.0000000000000000 [Eh]
	 Same-Spin Energy          =      -0.5629369408570702 [Eh]
	 Opposite-Spin Energy      =      -1.6468602902722664 [Eh]
	 Correlation Energy        =      -2.2097972311293366 [Eh]
	 Total Energy              =   -1723.6946998410746801 [Eh]

	 ================> DF-SCS-MP2 Energies <==================
	-----------------------------------------------------------
	 SCS Same-Spin Scale       =       0.3333333333333333 [-]
	 SCS Opposite-Spin Scale   =       1.2000000000000000 [-]
	 SCS Same-Spin Energy      =      -0.1876456469523567 [Eh]
	 SCS Opposite-Spin Energy  =      -1.9762323483267197 [Eh]
	 SCS Correlation Energy    =      -2.1638779952790763 [Eh]
	 SCS Total Energy          =   -1723.6487806052243741 [Eh]
	-----------------------------------------------------------

  Dipole Moment: [D]
     X:    -1.9175      Y:    -0.0000      Z:     0.2411     Total:     1.9326

*** Psi4 exiting successfully. Buy a developer a beer!
