                               Psi4 1.4a3.dev225

  ==> Input File <==

--------------------------------------------------------------------------
#psi4
#
memory 32 gb

molecule  {
0 1
 Cl        1.2524280     1.4463390     0.9876330
 Cl        2.7904220    -0.0000060    -1.0049900
 Cl        1.2524060    -1.4463410     0.9876250
  O        0.2860860     0.0000070    -0.9984750
  C       -1.0473080     0.0000040    -0.5388570
  C       -1.7060310    -1.2192040    -0.3956300
  C       -1.7060400     1.2192100    -0.3956360
  C       -3.0551880    -1.2099090    -0.0381990
  C       -3.0551940     1.2099130    -0.0382080
  C       -3.7295220    -0.0000010     0.1434410
  C        1.3320347    -0.0000013    -0.0299832
  H       -1.1690490    -2.1465760    -0.5644520
  H       -1.1690510     2.1465770    -0.5644670
  H       -3.5827340    -2.1524420     0.0828180
  H       -3.5827470     2.1524420     0.0828000
  H       -4.7808520    -0.0000040     0.4187920
units angstrom
no_reorient  #important for SAPT in psi4, default
symmetry c1  #important for SAPT in psi4, default
}

set PROPERTIES_ORIGIN ["COM"]
properties('MP2/aug-cc-pvtz', properties = ['dipole'])
--------------------------------------------------------------------------

    Molecular point group: c1
  Charge       = 0
  Multiplicity = 1
  Basis Set: AUG-CC-PVTZ
    Blend: AUG-CC-PVTZ
  Basis Set: (AUG-CC-PVTZ AUX)
    Blend: AUG-CC-PVTZ-JKFIT

    Orbital Energies [Eh]
    ---------------------

    Doubly Occupied:

       1A   -104.865810     2A   -104.865809     3A   -104.864769
       4A    -20.623545     5A    -11.493774     6A    -11.312164
       7A    -11.252075     8A    -11.251956     9A    -11.250767
      10A    -11.250662    11A    -11.248539    12A    -10.590628
      13A    -10.590618    14A    -10.589519    15A     -8.057376
      16A     -8.057375    17A     -8.056336    18A     -8.055236
      19A     -8.055235    20A     -8.055213    21A     -8.055213
      22A     -8.054076    23A     -8.054074    24A     -1.447311
      25A     -1.225150    26A     -1.160364    27A     -1.120399
      28A     -1.118949    29A     -1.032628    30A     -1.023059
      31A     -0.876239    32A     -0.850747    33A     -0.806238
      34A     -0.730190    35A     -0.693765    36A     -0.689055
      37A     -0.680057    38A     -0.635834    39A     -0.629166
      40A     -0.605149    41A     -0.586172    42A     -0.537688
      43A     -0.533403    44A     -0.515288    45A     -0.510352
      46A     -0.495828    47A     -0.493597    48A     -0.483163
      49A     -0.464190    50A     -0.462458    51A     -0.450688
      52A     -0.350784    53A     -0.346866

  @DF-RHF Final Energy: -1721.48454528649609

   => Energetics <=

    Nuclear Repulsion Energy =            894.2240737710941403
    One-Electron Energy =               -4151.2061521807345343
    Two-Electron Energy =                1535.4975331231444216
    Total Energy =                      -1721.4845452864960862
  Basis Set: (AUG-CC-PVTZ AUX)
    Blend: AUG-CC-PVTZ-RI
    Molecular point group: c1

    Geometry (in Angstrom), charge = 0, multiplicity = 1:

       Center              X                  Y                   Z               Mass
    ------------   -----------------  -----------------  -----------------  -----------------
         CL           1.158393022596     1.446339144850     0.978616162864    34.968852682000
         CL           2.696387022596    -0.000005855150    -1.014006837136    34.968852682000
         CL           1.158371022596    -1.446340855150     0.978608162864    34.968852682000
         O            0.192051022596     0.000007144850    -1.007491837136    15.994914619570
         C           -1.141342977404     0.000004144850    -0.547873837136    12.000000000000
         C           -1.800065977404    -1.219203855150    -0.404646837136    12.000000000000
         C           -1.800074977404     1.219210144850    -0.404652837136    12.000000000000
         C           -3.149222977404    -1.209908855150    -0.047215837136    12.000000000000
         C           -3.149228977404     1.209913144850    -0.047224837136    12.000000000000
         C           -3.823556977404    -0.000000855150     0.134424162864    12.000000000000
         C            1.237999722596    -0.000001155150    -0.039000037136    12.000000000000
         H           -1.263083977404    -2.146575855150    -0.573468837136     1.007825032230
         H           -1.263085977404     2.146577144850    -0.573483837136     1.007825032230
         H           -3.676768977404    -2.152441855150     0.073801162864     1.007825032230
         H           -3.676781977404     2.152442144850     0.073783162864     1.007825032230
         H           -4.874886977404    -0.000003855150     0.409775162864     1.007825032230

  Basis Set: AUG-CC-PVTZ
    Blend: AUG-CC-PVTZ
  Basis Set: (AUG-CC-PVTZ AUX)
    Blend: AUG-CC-PVTZ-JKFIT
	 Reference Energy          =   -1721.4845452864960862 [Eh]
	 Singles Energy            =      -0.0000000000000000 [Eh]
	 Same-Spin Energy          =      -0.5630398056051507 [Eh]
	 Opposite-Spin Energy      =      -1.6475254083974336 [Eh]
	 Correlation Energy        =      -2.2105652140025844 [Eh]
	 Total Energy              =   -1723.6951105004986857 [Eh]

	 ================> DF-SCS-MP2 Energies <==================
	-----------------------------------------------------------
	 SCS Same-Spin Scale       =       0.3333333333333333 [-]
	 SCS Opposite-Spin Scale   =       1.2000000000000000 [-]
	 SCS Same-Spin Energy      =      -0.1876799352017169 [Eh]
	 SCS Opposite-Spin Energy  =      -1.9770304900769202 [Eh]
	 SCS Correlation Energy    =      -2.1647104252786371 [Eh]
	 SCS Total Energy          =   -1723.6492557117746856 [Eh]
	-----------------------------------------------------------

  Dipole Moment: [D]
     X:    -1.8858      Y:    -0.0000      Z:     0.4203     Total:     1.9321

*** Psi4 exiting successfully. Buy a developer a beer!
