                               Psi4 1.3.2 release

  ==> Input File <==

--------------------------------------------------------------------------
#psi4
#
memory 32 gb

molecule  {
0 1
 Cl        1.2524280     1.4463390     0.9876330
 Cl        2.7904220    -0.0000060    -1.0049900
 Cl        1.2524060    -1.4463410     0.9876250
  O        0.2860860     0.0000070    -0.9984750
  C       -1.0473080     0.0000040    -0.5388570
  C       -1.7060310    -1.2192040    -0.3956300
  C       -1.7060400     1.2192100    -0.3956360
  C       -3.0551880    -1.2099090    -0.0381990
  C       -3.0551940     1.2099130    -0.0382080
  C       -3.7295220    -0.0000010     0.1434410
  C        1.3687223    -0.0000016     0.0039876
  H       -1.1690490    -2.1465760    -0.5644520
  H       -1.1690510     2.1465770    -0.5644670
  H       -3.5827340    -2.1524420     0.0828180
  H       -3.5827470     2.1524420     0.0828000
  H       -4.7808520    -0.0000040     0.4187920
units angstrom
no_reorient  #important for SAPT in psi4, default
symmetry c1  #important for SAPT in psi4, default
}

set PROPERTIES_ORIGIN ["COM"]
properties('MP2/aug-cc-pvtz', properties = ['dipole'])
--------------------------------------------------------------------------

    Molecular point group: c1
  Charge       = 0
  Multiplicity = 1
  Basis Set: AUG-CC-PVTZ
    Blend: AUG-CC-PVTZ
  Basis Set: (AUG-CC-PVTZ AUX)
    Blend: AUG-CC-PVTZ-JKFIT

    Orbital Energies [Eh]
    ---------------------

    Doubly Occupied:

       1A   -104.869295     2A   -104.869294     3A   -104.866911
       4A    -20.616207     5A    -11.492940     6A    -11.308211
       7A    -11.250000     8A    -11.249839     9A    -11.248213
      10A    -11.248161    11A    -11.246448    12A    -10.594256
      13A    -10.594246    14A    -10.591759    15A     -8.061042
      16A     -8.061041    17A     -8.058848    18A     -8.058846
      19A     -8.058822    20A     -8.058822    21A     -8.058601
      22A     -8.056303    23A     -8.056302    24A     -1.428218
      25A     -1.231308    26A     -1.157574    27A     -1.124946
      28A     -1.124765    29A     -1.030406    30A     -1.018018
      31A     -0.868175    32A     -0.848058    33A     -0.805833
      34A     -0.725985    35A     -0.690374    36A     -0.683928
      37A     -0.673906    38A     -0.637342    39A     -0.627966
      40A     -0.603209    41A     -0.589187    42A     -0.536432
      43A     -0.531626    44A     -0.514219    45A     -0.510307
      46A     -0.495010    47A     -0.490669    48A     -0.485574
      49A     -0.467479    50A     -0.463848    51A     -0.453593
      52A     -0.348879    53A     -0.343593

  @DF-RHF Final Energy: -1721.47857628976112

   => Energetics <=

    Nuclear Repulsion Energy =            894.0261692357840957
    One-Electron Energy =               -4150.8398272836448086
    Two-Electron Energy =                1535.3350817580997045
    Total Energy =                      -1721.4785762897611221
  Basis Set: (AUG-CC-PVTZ AUX)
    Blend: AUG-CC-PVTZ-RI
    Molecular point group: c1

    Geometry (in Angstrom), charge = 0, multiplicity = 1:

       Center              X                  Y                   Z               Mass
    ------------   -----------------  -----------------  -----------------  -----------------
         CL           1.156295995130     1.446339161998     0.976674425038    34.968852682000
         CL           2.694289995130    -0.000005838002    -1.015948574962    34.968852682000
         CL           1.156273995130    -1.446340838002     0.976666425038    34.968852682000
         O            0.189953995130     0.000007161998    -1.009433574962    15.994914619570
         C           -1.143440004870     0.000004161998    -0.549815574962    12.000000000000
         C           -1.802163004870    -1.219203838002    -0.406588574962    12.000000000000
         C           -1.802172004870     1.219210161998    -0.406594574962    12.000000000000
         C           -3.151320004870    -1.209908838002    -0.049157574962    12.000000000000
         C           -3.151326004870     1.209913161998    -0.049166574962    12.000000000000
         C           -3.825654004870    -0.000000838002     0.132482425038    12.000000000000
         C            1.272590295130    -0.000001438002    -0.006970974962    12.000000000000
         H           -1.265181004870    -2.146575838002    -0.575410574962     1.007825032230
         H           -1.265183004870     2.146577161998    -0.575425574962     1.007825032230
         H           -3.678866004870    -2.152441838002     0.071859425038     1.007825032230
         H           -3.678879004870     2.152442161998     0.071841425038     1.007825032230
         H           -4.876984004870    -0.000003838002     0.407833425038     1.007825032230

  Basis Set: AUG-CC-PVTZ
    Blend: AUG-CC-PVTZ
  Basis Set: (AUG-CC-PVTZ AUX)
    Blend: AUG-CC-PVTZ-JKFIT
	 Reference Energy          =   -1721.4785762897611221 [Eh]
	 Singles Energy            =      -0.0000000000000000 [Eh]
	 Same-Spin Energy          =      -0.5636208332953740 [Eh]
	 Opposite-Spin Energy      =      -1.6487661804853952 [Eh]
	 Correlation Energy        =      -2.2123870137807691 [Eh]
	 Total Energy              =   -1723.6909633035418210 [Eh]

	 ================> DF-SCS-MP2 Energies <==================
	-----------------------------------------------------------
	 SCS Same-Spin Scale       =       0.3333333333333333 [-]
	 SCS Opposite-Spin Scale   =       1.2000000000000000 [-]
	 SCS Same-Spin Energy      =      -0.1878736110984580 [Eh]
	 SCS Opposite-Spin Energy  =      -1.9785194165824742 [Eh]
	 SCS Correlation Energy    =      -2.1663930276809324 [Eh]
	 SCS Total Energy          =   -1723.6449693174420190 [Eh]
	-----------------------------------------------------------

  Dipole Moment: [D]
     X:    -1.5943      Y:    -0.0000      Z:     0.5838     Total:     1.6978

*** Psi4 exiting successfully. Buy a developer a beer!
