                               Psi4 1.3.2 release

  ==> Input File <==

--------------------------------------------------------------------------
#psi4
#
memory 32 gb

molecule  {
0 1
 Cl        1.3026329     1.4246051     1.0177211
 Cl        2.7904220    -0.0000060    -1.0049900
 Cl        1.2524060    -1.4463410     0.9876250
  O        0.2860860     0.0000070    -0.9984750
  C       -1.0473080     0.0000040    -0.5388570
  C       -1.7060310    -1.2192040    -0.3956300
  C       -1.7060400     1.2192100    -0.3956360
  C       -3.0551880    -1.2099090    -0.0381990
  C       -3.0551940     1.2099130    -0.0382080
  C       -3.7295220    -0.0000010     0.1434410
  C        1.2953470    -0.0000010    -0.0639540
  H       -1.1690490    -2.1465760    -0.5644520
  H       -1.1690510     2.1465770    -0.5644670
  H       -3.5827340    -2.1524420     0.0828180
  H       -3.5827470     2.1524420     0.0828000
  H       -4.7808520    -0.0000040     0.4187920
units angstrom
no_reorient  #important for SAPT in psi4, default
symmetry c1  #important for SAPT in psi4, default
}

set PROPERTIES_ORIGIN ["COM"]
properties('MP2/aug-cc-pvtz', properties = ['dipole'])
--------------------------------------------------------------------------

    Molecular point group: c1
  Charge       = 0
  Multiplicity = 1
  Basis Set: AUG-CC-PVTZ
    Blend: AUG-CC-PVTZ
  Basis Set: (AUG-CC-PVTZ AUX)
    Blend: AUG-CC-PVTZ-JKFIT

    Orbital Energies [Eh]
    ---------------------

    Doubly Occupied:

       1A   -104.862220     2A   -104.861555     3A   -104.860902
       4A    -20.632936     5A    -11.494760     6A    -11.317028
       7A    -11.255018     8A    -11.254901     9A    -11.253828
      10A    -11.253616    11A    -11.251205    12A    -10.586865
      13A    -10.586251    14A    -10.585660    15A     -8.053578
      16A     -8.053037    17A     -8.052369    18A     -8.051486
      19A     -8.051464    20A     -8.050819    21A     -8.050816
      22A     -8.050287    23A     -8.050265    24A     -1.469693
      25A     -1.219777    26A     -1.163850    27A     -1.115247
      28A     -1.111388    29A     -1.035472    30A     -1.029144
      31A     -0.885829    32A     -0.854136    33A     -0.807303
      34A     -0.735169    35A     -0.697949    36A     -0.695538
      37A     -0.687460    38A     -0.634920    39A     -0.631248
      40A     -0.607514    41A     -0.582377    42A     -0.538689
      43A     -0.535679    44A     -0.517722    45A     -0.510513
      46A     -0.500021    47A     -0.492653    48A     -0.481035
      49A     -0.459472    50A     -0.458211    51A     -0.446210
      52A     -0.353348    53A     -0.350771

  @DF-RHF Final Energy: -1721.48765369434909

   => Energetics <=

    Nuclear Repulsion Energy =            893.7732170838644379
    One-Electron Energy =               -4150.2633312139987538
    Two-Electron Energy =                1535.0024604357852240
    Total Energy =                      -1721.4876536943490919
  Basis Set: (AUG-CC-PVTZ AUX)
    Blend: AUG-CC-PVTZ-RI
    Molecular point group: c1

    Geometry (in Angstrom), charge = 0, multiplicity = 1:

       Center              X                  Y                   Z               Mass
    ------------   -----------------  -----------------  -----------------  -----------------
         CL           1.202332553413     1.428225344798     1.005634362411    34.968852682000
         CL           2.690121653413     0.003614244798    -1.017076737589    34.968852682000
         CL           1.152105653413    -1.442720755202     0.975538262411    34.968852682000
         O            0.185785653413     0.003627244798    -1.010561737589    15.994914619570
         C           -1.147608346587     0.003624244798    -0.550943737589    12.000000000000
         C           -1.806331346587    -1.215583755202    -0.407716737589    12.000000000000
         C           -1.806340346587     1.222830244798    -0.407722737589    12.000000000000
         C           -3.155488346587    -1.206288755202    -0.050285737589    12.000000000000
         C           -3.155494346587     1.213533244798    -0.050294737589    12.000000000000
         C           -3.829822346587     0.003619244798     0.131354262411    12.000000000000
         C            1.195046653413     0.003619244798    -0.076040737589    12.000000000000
         H           -1.269349346587    -2.142955755202    -0.576538737589     1.007825032230
         H           -1.269351346587     2.150197244798    -0.576553737589     1.007825032230
         H           -3.683034346587    -2.148821755202     0.070731262411     1.007825032230
         H           -3.683047346587     2.156062244798     0.070713262411     1.007825032230
         H           -4.881152346587     0.003616244798     0.406705262411     1.007825032230

  Basis Set: AUG-CC-PVTZ
    Blend: AUG-CC-PVTZ
  Basis Set: (AUG-CC-PVTZ AUX)
    Blend: AUG-CC-PVTZ-JKFIT
	 Reference Energy          =   -1721.4876536943490919 [Eh]
	 Singles Energy            =      -0.0000000000000000 [Eh]
	 Same-Spin Energy          =      -0.5625888288789360 [Eh]
	 Opposite-Spin Energy      =      -1.6464908444285054 [Eh]
	 Correlation Energy        =      -2.2090796733074414 [Eh]
	 Total Energy              =   -1723.6967333676566341 [Eh]

	 ================> DF-SCS-MP2 Energies <==================
	-----------------------------------------------------------
	 SCS Same-Spin Scale       =       0.3333333333333333 [-]
	 SCS Opposite-Spin Scale   =       1.2000000000000000 [-]
	 SCS Same-Spin Energy      =      -0.1875296096263120 [Eh]
	 SCS Opposite-Spin Energy  =      -1.9757890133142064 [Eh]
	 SCS Correlation Energy    =      -2.1633186229405186 [Eh]
	 SCS Total Energy          =   -1723.6509723172896429 [Eh]
	-----------------------------------------------------------

  Dipole Moment: [D]
     X:    -2.2649      Y:     0.0179      Z:     0.2341     Total:     2.2770

*** Psi4 exiting successfully. Buy a developer a beer!
