                               Psi4 1.3.2 release

  ==> Input File <==

--------------------------------------------------------------------------
#psi4
#
memory 32 gb

molecule  {
0 1
 Cl        1.2524280     1.4463390     0.9876330
 Cl        2.7904220    -0.0000060    -1.0049900
 Cl        1.2524060    -1.4463410     0.9876250
  O        0.2860860     0.0000070    -0.9984750
  C       -1.0880467     0.0000052    -0.6807525
  C       -1.7060310    -1.2192040    -0.3956300
  C       -1.7060400     1.2192100    -0.3956360
  C       -3.0551880    -1.2099090    -0.0381990
  C       -3.0551940     1.2099130    -0.0382080
  C       -3.7295220    -0.0000010     0.1434410
  C        1.2953470    -0.0000010    -0.0639540
  H       -1.1690490    -2.1465760    -0.5644520
  H       -1.1690510     2.1465770    -0.5644670
  H       -3.5827340    -2.1524420     0.0828180
  H       -3.5827470     2.1524420     0.0828000
  H       -4.7808520    -0.0000040     0.4187920
units angstrom
no_reorient  #important for SAPT in psi4, default
symmetry c1  #important for SAPT in psi4, default
}

set PROPERTIES_ORIGIN ["COM"]
properties('MP2/aug-cc-pvtz', properties = ['dipole'])
--------------------------------------------------------------------------

    Molecular point group: c1
  Charge       = 0
  Multiplicity = 1
  Basis Set: AUG-CC-PVTZ
    Blend: AUG-CC-PVTZ
  Basis Set: (AUG-CC-PVTZ AUX)
    Blend: AUG-CC-PVTZ-JKFIT

    Orbital Energies [Eh]
    ---------------------

    Doubly Occupied:

       1A   -104.862409     2A   -104.861301     3A   -104.861300
       4A    -20.625125     5A    -11.496227     6A    -11.319500
       7A    -11.255437     8A    -11.255432     9A    -11.254126
      10A    -11.253842    11A    -11.251767    12A    -10.587024
      13A    -10.585966    14A    -10.585956    15A     -8.053808
      16A     -8.052676    17A     -8.052675    18A     -8.051583
      19A     -8.051582    20A     -8.050593    21A     -8.050591
      22A     -8.050572    23A     -8.050571    24A     -1.463292
      25A     -1.218846    26A     -1.163411    27A     -1.115033
      28A     -1.111755    29A     -1.035535    30A     -1.029370
      31A     -0.888922    32A     -0.853380    33A     -0.805998
      34A     -0.733141    35A     -0.698465    36A     -0.693706
      37A     -0.683898    38A     -0.634826    39A     -0.631021
      40A     -0.607760    41A     -0.579386    42A     -0.537322
      43A     -0.536845    44A     -0.515858    45A     -0.511738
      46A     -0.498650    47A     -0.489199    48A     -0.478374
      49A     -0.459972    50A     -0.458160    51A     -0.446943
      52A     -0.353167    53A     -0.350562

  @DF-RHF Final Energy: -1721.48237866140107

   => Energetics <=

    Nuclear Repulsion Energy =            892.9434510307224855
    One-Electron Energy =               -4148.6424714652821422
    Two-Electron Energy =                1534.2166417731586989
    Total Energy =                      -1721.4823786614010714
  Basis Set: (AUG-CC-PVTZ AUX)
    Blend: AUG-CC-PVTZ-RI
    Molecular point group: c1

    Geometry (in Angstrom), charge = 0, multiplicity = 1:

       Center              X                  Y                   Z               Mass
    ------------   -----------------  -----------------  -----------------  -----------------
         CL           1.162818640174     1.446339059111     0.988668509203    34.968852682000
         CL           2.700812640174    -0.000005940889    -1.003954490797    34.968852682000
         CL           1.162796640174    -1.446340940889     0.988660509203    34.968852682000
         O            0.196476640174     0.000007059111    -0.997439490797    15.994914619570
         C           -1.177656059826     0.000005259111    -0.679716990797    12.000000000000
         C           -1.795640359826    -1.219203940889    -0.394594490797    12.000000000000
         C           -1.795649359826     1.219210059111    -0.394600490797    12.000000000000
         C           -3.144797359826    -1.209908940889    -0.037163490797    12.000000000000
         C           -3.144803359826     1.209913059111    -0.037172490797    12.000000000000
         C           -3.819131359826    -0.000000940889     0.144476509203    12.000000000000
         C            1.205737640174    -0.000000940889    -0.062918490797    12.000000000000
         H           -1.258658359826    -2.146575940889    -0.563416490797     1.007825032230
         H           -1.258660359826     2.146577059111    -0.563431490797     1.007825032230
         H           -3.672343359826    -2.152441940889     0.083853509203     1.007825032230
         H           -3.672356359826     2.152442059111     0.083835509203     1.007825032230
         H           -4.870461359826    -0.000003940889     0.419827509203     1.007825032230

  Basis Set: AUG-CC-PVTZ
    Blend: AUG-CC-PVTZ
  Basis Set: (AUG-CC-PVTZ AUX)
    Blend: AUG-CC-PVTZ-JKFIT
	 Reference Energy          =   -1721.4823786614010714 [Eh]
	 Singles Energy            =      -0.0000000000000000 [Eh]
	 Same-Spin Energy          =      -0.5624005437282937 [Eh]
	 Opposite-Spin Energy      =      -1.6462094575066080 [Eh]
	 Correlation Energy        =      -2.2086100012349017 [Eh]
	 Total Energy              =   -1723.6909886626360731 [Eh]

	 ================> DF-SCS-MP2 Energies <==================
	-----------------------------------------------------------
	 SCS Same-Spin Scale       =       0.3333333333333333 [-]
	 SCS Opposite-Spin Scale   =       1.2000000000000000 [-]
	 SCS Same-Spin Energy      =      -0.1874668479094312 [Eh]
	 SCS Opposite-Spin Energy  =      -1.9754513490079295 [Eh]
	 SCS Correlation Energy    =      -2.1629181969173610 [Eh]
	 SCS Total Energy          =   -1723.6452968583184884 [Eh]
	-----------------------------------------------------------

  Dipole Moment: [D]
     X:    -2.3016      Y:    -0.0000      Z:     0.2249     Total:     2.3125

*** Psi4 exiting successfully. Buy a developer a beer!
