                               Psi4 1.3.2 release

  ==> Input File <==

--------------------------------------------------------------------------
#psi4
#
memory 32 gb

molecule  {
0 1
 Cl        1.3528289     1.4011355     1.0464914
 Cl        2.7904220    -0.0000060    -1.0049900
 Cl        1.2524060    -1.4463410     0.9876250
  O        0.2860860     0.0000070    -0.9984750
  C       -1.0473080     0.0000040    -0.5388570
  C       -1.7060310    -1.2192040    -0.3956300
  C       -1.7060400     1.2192100    -0.3956360
  C       -3.0551880    -1.2099090    -0.0381990
  C       -3.0551940     1.2099130    -0.0382080
  C       -3.7295220    -0.0000010     0.1434410
  C        1.2953470    -0.0000010    -0.0639540
  H       -1.1690490    -2.1465760    -0.5644520
  H       -1.1690510     2.1465770    -0.5644670
  H       -3.5827340    -2.1524420     0.0828180
  H       -3.5827470     2.1524420     0.0828000
  H       -4.7808520    -0.0000040     0.4187920
units angstrom
no_reorient  #important for SAPT in psi4, default
symmetry c1  #important for SAPT in psi4, default
}

set PROPERTIES_ORIGIN ["COM"]
properties('MP2/aug-cc-pvtz', properties = ['dipole'])
--------------------------------------------------------------------------

    Molecular point group: c1
  Charge       = 0
  Multiplicity = 1
  Basis Set: AUG-CC-PVTZ
    Blend: AUG-CC-PVTZ
  Basis Set: (AUG-CC-PVTZ AUX)
    Blend: AUG-CC-PVTZ-JKFIT

    Orbital Energies [Eh]
    ---------------------

    Doubly Occupied:

       1A   -104.862347     2A   -104.860665     3A   -104.859807
       4A    -20.634565     5A    -11.494726     6A    -11.317575
       7A    -11.255494     8A    -11.255269     9A    -11.254255
      10A    -11.254008    11A    -11.251560    12A    -10.586977
      13A    -10.585422    14A    -10.584649    15A     -8.053689
      16A     -8.052206    17A     -8.051589    18A     -8.051565
      19A     -8.051354    20A     -8.049991    21A     -8.049986
      22A     -8.049274    23A     -8.049252    24A     -1.470190
      25A     -1.220895    26A     -1.164358    27A     -1.114806
      28A     -1.109979    29A     -1.035869    30A     -1.029551
      31A     -0.886303    32A     -0.854535    33A     -0.807555
      34A     -0.735833    35A     -0.698351    36A     -0.695470
      37A     -0.687525    38A     -0.634742    39A     -0.631663
      40A     -0.607783    41A     -0.582936    42A     -0.539028
      43A     -0.536140    44A     -0.518055    45A     -0.510325
      46A     -0.501508    47A     -0.492872    48A     -0.481123
      49A     -0.458487    50A     -0.456540    51A     -0.444823
      52A     -0.353806    53A     -0.351257

  @DF-RHF Final Energy: -1721.48687481862680

   => Energetics <=

    Nuclear Repulsion Energy =            893.2065677417535881
    One-Electron Energy =               -4149.1298178427659877
    Two-Electron Energy =                1534.4363752823855975
    Total Energy =                      -1721.4868748186268022
  Basis Set: (AUG-CC-PVTZ AUX)
    Blend: AUG-CC-PVTZ-RI
    Molecular point group: c1

    Geometry (in Angstrom), charge = 0, multiplicity = 1:

       Center              X                  Y                   Z               Mass
    ------------   -----------------  -----------------  -----------------  -----------------
         CL           1.244167633479     1.408664969566     1.029612524098    34.968852682000
         CL           2.681760733479     0.007523469566    -1.021868875902    34.968852682000
         CL           1.143744733479    -1.438811530434     0.970746124098    34.968852682000
         O            0.177424733479     0.007536469566    -1.015353875902    15.994914619570
         C           -1.155969266521     0.007533469566    -0.555735875902    12.000000000000
         C           -1.814692266521    -1.211674530434    -0.412508875902    12.000000000000
         C           -1.814701266521     1.226739469566    -0.412514875902    12.000000000000
         C           -3.163849266521    -1.202379530434    -0.055077875902    12.000000000000
         C           -3.163855266521     1.217442469566    -0.055086875902    12.000000000000
         C           -3.838183266521     0.007528469566     0.126562124098    12.000000000000
         C            1.186685733479     0.007528469566    -0.080832875902    12.000000000000
         H           -1.277710266521    -2.139046530434    -0.581330875902     1.007825032230
         H           -1.277712266521     2.154106469566    -0.581345875902     1.007825032230
         H           -3.691395266521    -2.144912530434     0.065939124098     1.007825032230
         H           -3.691408266521     2.159971469566     0.065921124098     1.007825032230
         H           -4.889513266521     0.007525469566     0.401913124098     1.007825032230

  Basis Set: AUG-CC-PVTZ
    Blend: AUG-CC-PVTZ
  Basis Set: (AUG-CC-PVTZ AUX)
    Blend: AUG-CC-PVTZ-JKFIT
	 Reference Energy          =   -1721.4868748186268022 [Eh]
	 Singles Energy            =      -0.0000000000000000 [Eh]
	 Same-Spin Energy          =      -0.5625426041416055 [Eh]
	 Opposite-Spin Energy      =      -1.6464228837312966 [Eh]
	 Correlation Energy        =      -2.2089654878729021 [Eh]
	 Total Energy              =   -1723.6958403064998038 [Eh]

	 ================> DF-SCS-MP2 Energies <==================
	-----------------------------------------------------------
	 SCS Same-Spin Scale       =       0.3333333333333333 [-]
	 SCS Opposite-Spin Scale   =       1.2000000000000000 [-]
	 SCS Same-Spin Energy      =      -0.1875142013805352 [Eh]
	 SCS Opposite-Spin Energy  =      -1.9757074604775560 [Eh]
	 SCS Correlation Energy    =      -2.1632216618580911 [Eh]
	 SCS Total Energy          =   -1723.6500964804849900 [Eh]
	-----------------------------------------------------------

  Dipole Moment: [D]
     X:    -2.3119      Y:     0.0350      Z:     0.2284     Total:     2.3234

*** Psi4 exiting successfully. Buy a developer a beer!
