                               Psi4 1.3.2 release

  ==> Input File <==

--------------------------------------------------------------------------
#psi4
#
memory 32 gb

molecule  {
0 1
 Cl        1.2524280     1.4463390     0.9876330
 Cl        2.7904220    -0.0000060    -1.0049900
 Cl        1.2524060    -1.4463410     0.9876250
  O        0.2860860     0.0000070    -0.9984750
  C       -1.0390835     0.0000038    -0.5156561
  C       -1.7060310    -1.2192040    -0.3956300
  C       -1.7060400     1.2192100    -0.3956360
  C       -3.0551880    -1.2099090    -0.0381990
  C       -3.0551940     1.2099130    -0.0382080
  C       -3.7295220    -0.0000010     0.1434410
  C        1.2953470    -0.0000010    -0.0639540
  H       -1.1690490    -2.1465760    -0.5644520
  H       -1.1690510     2.1465770    -0.5644670
  H       -3.5827340    -2.1524420     0.0828180
  H       -3.5827470     2.1524420     0.0828000
  H       -4.7808520    -0.0000040     0.4187920
units angstrom
no_reorient  #important for SAPT in psi4, default
symmetry c1  #important for SAPT in psi4, default
}

set PROPERTIES_ORIGIN ["COM"]
properties('MP2/aug-cc-pvtz', properties = ['dipole'])
--------------------------------------------------------------------------

    Molecular point group: c1
  Charge       = 0
  Multiplicity = 1
  Basis Set: AUG-CC-PVTZ
    Blend: AUG-CC-PVTZ
  Basis Set: (AUG-CC-PVTZ AUX)
    Blend: AUG-CC-PVTZ-JKFIT

    Orbital Energies [Eh]
    ---------------------

    Doubly Occupied:

       1A   -104.862372     2A   -104.862076     3A   -104.862075
       4A    -20.632164     5A    -11.494531     6A    -11.316263
       7A    -11.254692     8A    -11.254683     9A    -11.253422
      10A    -11.253165    11A    -11.250948    12A    -10.587014
      13A    -10.586762    14A    -10.586751    15A     -8.053803
      16A     -8.053469    17A     -8.053468    18A     -8.051583
      19A     -8.051581    20A     -8.051385    21A     -8.051383
      22A     -8.051362    23A     -8.051362    24A     -1.470165
      25A     -1.218574    26A     -1.163051    27A     -1.115800
      28A     -1.112848    29A     -1.034821    30A     -1.028401
      31A     -0.884699    32A     -0.853392    33A     -0.807158
      34A     -0.734544    35A     -0.697541    36A     -0.695876
      37A     -0.687968    38A     -0.634801    39A     -0.630752
      40A     -0.607081    41A     -0.582138    42A     -0.538521
      43A     -0.535124    44A     -0.517321    45A     -0.510277
      46A     -0.498597    47A     -0.492768    48A     -0.481175
      49A     -0.460518    50A     -0.459775    51A     -0.447543
      52A     -0.352626    53A     -0.350087

  @DF-RHF Final Energy: -1721.48700808946523

   => Energetics <=

    Nuclear Repulsion Energy =            894.6205986442654421
    One-Electron Energy =               -4151.9547057286172276
    Two-Electron Energy =                1535.8470989948864371
    Total Energy =                      -1721.4870080894652347
  Basis Set: (AUG-CC-PVTZ AUX)
    Blend: AUG-CC-PVTZ-RI
    Molecular point group: c1

    Geometry (in Angstrom), charge = 0, multiplicity = 1:

       Center              X                  Y                   Z               Mass
    ------------   -----------------  -----------------  -----------------  -----------------
         CL           1.160019951373     1.446339139134     0.979231759854    34.968852682000
         CL           2.698013951373    -0.000005860866    -1.013391240146    34.968852682000
         CL           1.159997951373    -1.446340860866     0.979223759854    34.968852682000
         O            0.193677951373     0.000007139134    -1.006876240146    15.994914619570
         C           -1.131491548627     0.000003939134    -0.524057340146    12.000000000000
         C           -1.798439048627    -1.219203860866    -0.404031240146    12.000000000000
         C           -1.798448048627     1.219210139134    -0.404037240146    12.000000000000
         C           -3.147596048627    -1.209908860866    -0.046600240146    12.000000000000
         C           -3.147602048627     1.209913139134    -0.046609240146    12.000000000000
         C           -3.821930048627    -0.000000860866     0.135039759854    12.000000000000
         C            1.202938951373    -0.000000860866    -0.072355240146    12.000000000000
         H           -1.261457048627    -2.146575860866    -0.572853240146     1.007825032230
         H           -1.261459048627     2.146577139134    -0.572868240146     1.007825032230
         H           -3.675142048627    -2.152441860866     0.074416759854     1.007825032230
         H           -3.675155048627     2.152442139134     0.074398759854     1.007825032230
         H           -4.873260048627    -0.000003860866     0.410390759854     1.007825032230

  Basis Set: AUG-CC-PVTZ
    Blend: AUG-CC-PVTZ
  Basis Set: (AUG-CC-PVTZ AUX)
    Blend: AUG-CC-PVTZ-JKFIT
	 Reference Energy          =   -1721.4870080894652347 [Eh]
	 Singles Energy            =      -0.0000000000000000 [Eh]
	 Same-Spin Energy          =      -0.5628202406063567 [Eh]
	 Opposite-Spin Energy      =      -1.6469771098732648 [Eh]
	 Correlation Energy        =      -2.2097973504796213 [Eh]
	 Total Energy              =   -1723.6968054399449102 [Eh]

	 ================> DF-SCS-MP2 Energies <==================
	-----------------------------------------------------------
	 SCS Same-Spin Scale       =       0.3333333333333333 [-]
	 SCS Opposite-Spin Scale   =       1.2000000000000000 [-]
	 SCS Same-Spin Energy      =      -0.1876067468687856 [Eh]
	 SCS Opposite-Spin Energy  =      -1.9763725318479177 [Eh]
	 SCS Correlation Energy    =      -2.1639792787167034 [Eh]
	 SCS Total Energy          =   -1723.6509873681818590 [Eh]
	-----------------------------------------------------------

  Dipole Moment: [D]
     X:    -2.2116      Y:    -0.0000      Z:     0.2429     Total:     2.2249

*** Psi4 exiting successfully. Buy a developer a beer!
