                               Psi4 1.3.2 release

  ==> Input File <==

--------------------------------------------------------------------------
#psi4
#
memory 32 gb

molecule  {
0 1
 Cl        1.2775277     1.4356907     1.0028395
 Cl        2.7904220    -0.0000060    -1.0049900
 Cl        1.2524060    -1.4463410     0.9876250
  O        0.2860860     0.0000070    -0.9984750
  C       -1.0473080     0.0000040    -0.5388570
  C       -1.7060310    -1.2192040    -0.3956300
  C       -1.7060400     1.2192100    -0.3956360
  C       -3.0551880    -1.2099090    -0.0381990
  C       -3.0551940     1.2099130    -0.0382080
  C       -3.7295220    -0.0000010     0.1434410
  C        1.2953470    -0.0000010    -0.0639540
  H       -1.1690490    -2.1465760    -0.5644520
  H       -1.1690510     2.1465770    -0.5644670
  H       -3.5827340    -2.1524420     0.0828180
  H       -3.5827470     2.1524420     0.0828000
  H       -4.7808520    -0.0000040     0.4187920
units angstrom
no_reorient  #important for SAPT in psi4, default
symmetry c1  #important for SAPT in psi4, default
}

set PROPERTIES_ORIGIN ["COM"]
properties('MP2/aug-cc-pvtz', properties = ['dipole'])
--------------------------------------------------------------------------

    Molecular point group: c1
  Charge       = 0
  Multiplicity = 1
  Basis Set: AUG-CC-PVTZ
    Blend: AUG-CC-PVTZ
  Basis Set: (AUG-CC-PVTZ AUX)
    Blend: AUG-CC-PVTZ-JKFIT

    Orbital Energies [Eh]
    ---------------------

    Doubly Occupied:

       1A   -104.862118     2A   -104.862000     3A   -104.861447
       4A    -20.632113     5A    -11.494776     6A    -11.316750
       7A    -11.254780     8A    -11.254713     9A    -11.253615
      10A    -11.253413    11A    -11.251026    12A    -10.586777
      13A    -10.586665    14A    -10.586164    15A     -8.053490
      16A     -8.053453    17A     -8.052875    18A     -8.051402
      19A     -8.051380    20A     -8.051234    21A     -8.051231
      22A     -8.050792    23A     -8.050770    24A     -1.469464
      25A     -1.219230    26A     -1.163598    27A     -1.115481
      28A     -1.112061    29A     -1.035272    30A     -1.028942
      31A     -0.885594    32A     -0.853938    33A     -0.807178
      34A     -0.734831    35A     -0.697771    36A     -0.695581
      37A     -0.687426    38A     -0.635004    39A     -0.631033
      40A     -0.607387    41A     -0.582106    42A     -0.538519
      43A     -0.535447    44A     -0.517571    45A     -0.510617
      46A     -0.499299    47A     -0.492535    48A     -0.480971
      49A     -0.459974    50A     -0.458945    51A     -0.446864
      52A     -0.353116    53A     -0.350518

  @DF-RHF Final Energy: -1721.48779721535084

   => Energetics <=

    Nuclear Repulsion Energy =            894.0871527626439956
    One-Electron Energy =               -4150.8913922604870095
    Two-Electron Energy =                1535.3164422824920621
    Total Energy =                      -1721.4877972153508381
  Basis Set: (AUG-CC-PVTZ AUX)
    Blend: AUG-CC-PVTZ-RI
    Molecular point group: c1

    Geometry (in Angstrom), charge = 0, multiplicity = 1:

       Center              X                  Y                   Z               Mass
    ------------   -----------------  -----------------  -----------------  -----------------
         CL           1.181409012651     1.437464466712     0.993231522991    34.968852682000
         CL           2.694303312651     0.001767766712    -1.014597977009    34.968852682000
         CL           1.156287312651    -1.444567233288     0.978017022991    34.968852682000
         O            0.189967312651     0.001780766712    -1.008082977009    15.994914619570
         C           -1.143426687349     0.001777766712    -0.548464977009    12.000000000000
         C           -1.802149687349    -1.217430233288    -0.405237977009    12.000000000000
         C           -1.802158687349     1.220983766712    -0.405243977009    12.000000000000
         C           -3.151306687349    -1.208135233288    -0.047806977009    12.000000000000
         C           -3.151312687349     1.211686766712    -0.047815977009    12.000000000000
         C           -3.825640687349     0.001772766712     0.133833022991    12.000000000000
         C            1.199228312651     0.001772766712    -0.073561977009    12.000000000000
         H           -1.265167687349    -2.144802233288    -0.574059977009     1.007825032230
         H           -1.265169687349     2.148350766712    -0.574074977009     1.007825032230
         H           -3.678852687349    -2.150668233288     0.073210022991     1.007825032230
         H           -3.678865687349     2.154215766712     0.073192022991     1.007825032230
         H           -4.876970687349     0.001769766712     0.409184022991     1.007825032230

  Basis Set: AUG-CC-PVTZ
    Blend: AUG-CC-PVTZ
  Basis Set: (AUG-CC-PVTZ AUX)
    Blend: AUG-CC-PVTZ-JKFIT
	 Reference Energy          =   -1721.4877972153508381 [Eh]
	 Singles Energy            =      -0.0000000000000000 [Eh]
	 Same-Spin Energy          =      -0.5626274975326260 [Eh]
	 Opposite-Spin Energy      =      -1.6465508424439712 [Eh]
	 Correlation Energy        =      -2.2091783399765972 [Eh]
	 Total Energy              =   -1723.6969755553275263 [Eh]

	 ================> DF-SCS-MP2 Energies <==================
	-----------------------------------------------------------
	 SCS Same-Spin Scale       =       0.3333333333333333 [-]
	 SCS Opposite-Spin Scale   =       1.2000000000000000 [-]
	 SCS Same-Spin Energy      =      -0.1875424991775420 [Eh]
	 SCS Opposite-Spin Energy  =      -1.9758610109327654 [Eh]
	 SCS Correlation Energy    =      -2.1634035101103075 [Eh]
	 SCS Total Energy          =   -1723.6512007254611945 [Eh]
	-----------------------------------------------------------

  Dipole Moment: [D]
     X:    -2.2411      Y:     0.0090      Z:     0.2368     Total:     2.2536

*** Psi4 exiting successfully. Buy a developer a beer!
