                               Psi4 1.3.2 release

  ==> Input File <==

--------------------------------------------------------------------------
#psi4
#
memory 32 gb

molecule  {
0 1
 Cl        1.2524280     1.4463390     0.9876330
 Cl        2.7904220    -0.0000060    -1.0049900
 Cl        1.2524060    -1.4463410     0.9876250
  O        0.2860860     0.0000070    -0.9984750
  C       -0.8582258     0.0000044    -0.6040332
  C       -1.7060310    -1.2192040    -0.3956300
  C       -1.7060400     1.2192100    -0.3956360
  C       -3.0551880    -1.2099090    -0.0381990
  C       -3.0551940     1.2099130    -0.0382080
  C       -3.7295220    -0.0000010     0.1434410
  C        1.2953470    -0.0000010    -0.0639540
  H       -1.1690490    -2.1465760    -0.5644520
  H       -1.1690510     2.1465770    -0.5644670
  H       -3.5827340    -2.1524420     0.0828180
  H       -3.5827470     2.1524420     0.0828000
  H       -4.7808520    -0.0000040     0.4187920
units angstrom
no_reorient  #important for SAPT in psi4, default
symmetry c1  #important for SAPT in psi4, default
}

set PROPERTIES_ORIGIN ["COM"]
properties('MP2/aug-cc-pvtz', properties = ['dipole'])
--------------------------------------------------------------------------

    Molecular point group: c1
  Charge       = 0
  Multiplicity = 1
  Basis Set: AUG-CC-PVTZ
    Blend: AUG-CC-PVTZ
  Basis Set: (AUG-CC-PVTZ AUX)
    Blend: AUG-CC-PVTZ-JKFIT

    Orbital Energies [Eh]
    ---------------------

    Doubly Occupied:

       1A   -104.873162     2A   -104.872463     3A   -104.872463
       4A    -20.655369     5A    -11.509991     6A    -11.326214
       7A    -11.252149     8A    -11.252129     9A    -11.245567
      10A    -11.245315    11A    -11.242535    12A    -10.597692
      13A    -10.596864    14A    -10.596854    15A     -8.064488
      16A     -8.063576    17A     -8.063575    18A     -8.062234
      19A     -8.062232    20A     -8.061434    21A     -8.061432
      22A     -8.061399    23A     -8.061399    24A     -1.560024
      25A     -1.241729    26A     -1.138498    27A     -1.125540
      28A     -1.122611    29A     -1.019851    30A     -1.016294
      31A     -0.926967    32A     -0.840845    33A     -0.806287
      34A     -0.754093    35A     -0.725776    36A     -0.724626
      37A     -0.691051    38A     -0.627515    39A     -0.620470
      40A     -0.604013    41A     -0.586961    42A     -0.552201
      43A     -0.536202    44A     -0.510711    45A     -0.509373
      46A     -0.507567    47A     -0.491341    48A     -0.471612
      49A     -0.469000    50A     -0.457047    51A     -0.445303
      52A     -0.342118    53A     -0.319898

  @DF-RHF Final Energy: -1721.43168545780031

   => Energetics <=

    Nuclear Repulsion Energy =            896.3057995561968028
    One-Electron Energy =               -4154.5828499669105440
    Two-Electron Energy =                1536.8453649529135419
    Total Energy =                      -1721.4316854578003131
  Basis Set: (AUG-CC-PVTZ AUX)
    Blend: AUG-CC-PVTZ-RI
    Molecular point group: c1

    Geometry (in Angstrom), charge = 0, multiplicity = 1:

       Center              X                  Y                   Z               Mass
    ------------   -----------------  -----------------  -----------------  -----------------
         CL           1.149682301474     1.446339104839     0.984283308773    34.968852682000
         CL           2.687676301474    -0.000005895161    -1.008339691227    34.968852682000
         CL           1.149660301474    -1.446340895161     0.984275308773    34.968852682000
         O            0.183340301474     0.000007104839    -1.001824691227    15.994914619570
         C           -0.960971498526     0.000004504839    -0.607382891227    12.000000000000
         C           -1.808776698526    -1.219203895161    -0.398979691227    12.000000000000
         C           -1.808785698526     1.219210104839    -0.398985691227    12.000000000000
         C           -3.157933698526    -1.209908895161    -0.041548691227    12.000000000000
         C           -3.157939698526     1.209913104839    -0.041557691227    12.000000000000
         C           -3.832267698526    -0.000000895161     0.140091308773    12.000000000000
         C            1.192601301474    -0.000000895161    -0.067303691227    12.000000000000
         H           -1.271794698526    -2.146575895161    -0.567801691227     1.007825032230
         H           -1.271796698526     2.146577104839    -0.567816691227     1.007825032230
         H           -3.685479698526    -2.152441895161     0.079468308773     1.007825032230
         H           -3.685492698526     2.152442104839     0.079450308773     1.007825032230
         H           -4.883597698526    -0.000003895161     0.415442308773     1.007825032230

  Basis Set: AUG-CC-PVTZ
    Blend: AUG-CC-PVTZ
  Basis Set: (AUG-CC-PVTZ AUX)
    Blend: AUG-CC-PVTZ-JKFIT
	 Reference Energy          =   -1721.4316854578003131 [Eh]
	 Singles Energy            =      -0.0000000000000000 [Eh]
	 Same-Spin Energy          =      -0.5655282057910362 [Eh]
	 Opposite-Spin Energy      =      -1.6504022342749802 [Eh]
	 Correlation Energy        =      -2.2159304400660167 [Eh]
	 Total Energy              =   -1723.6476158978662170 [Eh]

	 ================> DF-SCS-MP2 Energies <==================
	-----------------------------------------------------------
	 SCS Same-Spin Scale       =       0.3333333333333333 [-]
	 SCS Opposite-Spin Scale   =       1.2000000000000000 [-]
	 SCS Same-Spin Energy      =      -0.1885094019303454 [Eh]
	 SCS Opposite-Spin Energy  =      -1.9804826811299763 [Eh]
	 SCS Correlation Energy    =      -2.1689920830603215 [Eh]
	 SCS Total Energy          =   -1723.6006775408607155 [Eh]
	-----------------------------------------------------------

  Dipole Moment: [D]
     X:    -0.9252      Y:    -0.0000      Z:     0.2309     Total:     0.9536

*** Psi4 exiting successfully. Buy a developer a beer!
