                               Psi4 1.3.2 release

  ==> Input File <==

--------------------------------------------------------------------------
#psi4
#
memory 32 gb

molecule  {
0 1
 Cl        1.2524280     1.4463390     0.9876330
 Cl        2.7904220    -0.0000060    -1.0049900
 Cl        1.2524060    -1.4463410     0.9876250
  O        0.2860860     0.0000070    -0.9984750
  C       -1.0625362     0.0000044    -0.5856718
  C       -1.7060310    -1.2192040    -0.3956300
  C       -1.7060400     1.2192100    -0.3956360
  C       -3.0551880    -1.2099090    -0.0381990
  C       -3.0551940     1.2099130    -0.0382080
  C       -3.7295220    -0.0000010     0.1434410
  C        1.2953470    -0.0000010    -0.0639540
  H       -1.1690490    -2.1465760    -0.5644520
  H       -1.1690510     2.1465770    -0.5644670
  H       -3.5827340    -2.1524420     0.0828180
  H       -3.5827470     2.1524420     0.0828000
  H       -4.7808520    -0.0000040     0.4187920
units angstrom
no_reorient  #important for SAPT in psi4, default
symmetry c1  #important for SAPT in psi4, default
}

set PROPERTIES_ORIGIN ["COM"]
properties('MP2/aug-cc-pvtz', properties = ['dipole'])
--------------------------------------------------------------------------

    Molecular point group: c1
  Charge       = 0
  Multiplicity = 1
  Basis Set: AUG-CC-PVTZ
    Blend: AUG-CC-PVTZ
  Basis Set: (AUG-CC-PVTZ AUX)
    Blend: AUG-CC-PVTZ-JKFIT

    Orbital Energies [Eh]
    ---------------------

    Doubly Occupied:

       1A   -104.862519     2A   -104.861788     3A   -104.861787
       4A    -20.629388     5A    -11.495293     6A    -11.317138
       7A    -11.254587     8A    -11.254512     9A    -11.253420
      10A    -11.253279    11A    -11.250858    12A    -10.587145
      13A    -10.586464    14A    -10.586454    15A     -8.053932
      16A     -8.053173    17A     -8.053172    18A     -8.051710
      19A     -8.051708    20A     -8.051089    21A     -8.051087
      22A     -8.051067    23A     -8.051067    24A     -1.467344
      25A     -1.218846    26A     -1.163694    27A     -1.115540
      28A     -1.112414    29A     -1.035425    30A     -1.029217
      31A     -0.886624    32A     -0.854088    33A     -0.806794
      34A     -0.734223    35A     -0.697812    36A     -0.695067
      37A     -0.686235    38A     -0.635372    39A     -0.630912
      40A     -0.607546    41A     -0.581152    42A     -0.538005
      43A     -0.535578    44A     -0.517289    45A     -0.511373
      46A     -0.498604    47A     -0.491537    48A     -0.480213
      49A     -0.460368    50A     -0.459193    51A     -0.447350
      52A     -0.353219    53A     -0.350490

  @DF-RHF Final Energy: -1721.48785521603395

   => Energetics <=

    Nuclear Repulsion Energy =            893.9836974239891561
    One-Electron Energy =               -4150.6947842851259338
    Two-Electron Energy =                1535.2232316451027145
    Total Energy =                      -1721.4878552160339495
  Basis Set: (AUG-CC-PVTZ AUX)
    Blend: AUG-CC-PVTZ-RI
    Molecular point group: c1

    Geometry (in Angstrom), charge = 0, multiplicity = 1:

       Center              X                  Y                   Z               Mass
    ------------   -----------------  -----------------  -----------------  -----------------
         CL           1.161360484852     1.446339104839     0.983233789040    34.968852682000
         CL           2.699354484852    -0.000005895161    -1.009389210960    34.968852682000
         CL           1.161338484852    -1.446340895161     0.983225789040    34.968852682000
         O            0.195018484852     0.000007104839    -1.002874210960    15.994914619570
         C           -1.153603715148     0.000004504839    -0.590071010960    12.000000000000
         C           -1.797098515148    -1.219203895161    -0.400029210960    12.000000000000
         C           -1.797107515148     1.219210104839    -0.400035210960    12.000000000000
         C           -3.146255515148    -1.209908895161    -0.042598210960    12.000000000000
         C           -3.146261515148     1.209913104839    -0.042607210960    12.000000000000
         C           -3.820589515148    -0.000000895161     0.139041789040    12.000000000000
         C            1.204279484852    -0.000000895161    -0.068353210960    12.000000000000
         H           -1.260116515148    -2.146575895161    -0.568851210960     1.007825032230
         H           -1.260118515148     2.146577104839    -0.568866210960     1.007825032230
         H           -3.673801515148    -2.152441895161     0.078418789040     1.007825032230
         H           -3.673814515148     2.152442104839     0.078400789040     1.007825032230
         H           -4.871919515148    -0.000003895161     0.414392789040     1.007825032230

  Basis Set: AUG-CC-PVTZ
    Blend: AUG-CC-PVTZ
  Basis Set: (AUG-CC-PVTZ AUX)
    Blend: AUG-CC-PVTZ-JKFIT
	 Reference Energy          =   -1721.4878552160339495 [Eh]
	 Singles Energy            =      -0.0000000000000000 [Eh]
	 Same-Spin Energy          =      -0.5624738984884154 [Eh]
	 Opposite-Spin Energy      =      -1.6461702381519632 [Eh]
	 Correlation Energy        =      -2.2086441366403786 [Eh]
	 Total Energy              =   -1723.6964993526744365 [Eh]

	 ================> DF-SCS-MP2 Energies <==================
	-----------------------------------------------------------
	 SCS Same-Spin Scale       =       0.3333333333333333 [-]
	 SCS Opposite-Spin Scale   =       1.2000000000000000 [-]
	 SCS Same-Spin Energy      =      -0.1874912994961385 [Eh]
	 SCS Opposite-Spin Energy  =      -1.9754042857823557 [Eh]
	 SCS Correlation Energy    =      -2.1628955852784943 [Eh]
	 SCS Total Energy          =   -1723.6507508013123697 [Eh]
	-----------------------------------------------------------

  Dipole Moment: [D]
     X:    -2.2358      Y:    -0.0000      Z:     0.2333     Total:     2.2479

*** Psi4 exiting successfully. Buy a developer a beer!
