                               Psi4 1.4a3.dev225

  ==> Input File <==

--------------------------------------------------------------------------
#psi4
#
memory 32 gb

molecule  {
0 1
 Cl        1.2524280     1.4463390     0.9876330
 Cl        2.7904220    -0.0000060    -1.0049900
 Cl        1.2524060    -1.4463410     0.9876250
  O        0.2860860     0.0000070    -0.9984750
  C       -1.0473080     0.0000040    -0.5388570
  C       -1.7060310    -1.2192040    -0.3956300
  C       -1.7060400     1.2192100    -0.3956360
  C       -3.0551880    -1.2099090    -0.0381990
  C       -3.0551940     1.2099130    -0.0382080
  C       -3.7295220    -0.0000010     0.1434410
  C        1.2586593    -0.0000007    -0.0979248
  H       -1.1690490    -2.1465760    -0.5644520
  H       -1.1690510     2.1465770    -0.5644670
  H       -3.5827340    -2.1524420     0.0828180
  H       -3.5827470     2.1524420     0.0828000
  H       -4.7808520    -0.0000040     0.4187920
units angstrom
no_reorient  #important for SAPT in psi4, default
symmetry c1  #important for SAPT in psi4, default
}

set PROPERTIES_ORIGIN ["COM"]
properties('MP2/aug-cc-pvtz', properties = ['dipole'])
--------------------------------------------------------------------------

    Molecular point group: c1
  Charge       = 0
  Multiplicity = 1
  Basis Set: AUG-CC-PVTZ
    Blend: AUG-CC-PVTZ
  Basis Set: (AUG-CC-PVTZ AUX)
    Blend: AUG-CC-PVTZ-JKFIT

    Orbital Energies [Eh]
    ---------------------

    Doubly Occupied:

       1A   -104.859840     2A   -104.857728     3A   -104.857727
       4A    -20.639680     5A    -11.495888     6A    -11.321216
       7A    -11.257639     8A    -11.257627     9A    -11.256055
      10A    -11.255785    11A    -11.253428    12A    -10.584354
      13A    -10.582291    14A    -10.582281    15A     -8.051110
      16A     -8.048957    17A     -8.048957    18A     -8.048931
      19A     -8.048930    20A     -8.046930    21A     -8.046929
      22A     -8.046908    23A     -8.046908    24A     -1.494458
      25A     -1.212109    26A     -1.166430    27A     -1.110765
      28A     -1.106217    29A     -1.037789    30A     -1.035154
      31A     -0.895488    32A     -0.857124    33A     -0.808497
      34A     -0.739085    35A     -0.703878    36A     -0.702539
      37A     -0.694893    38A     -0.635455    39A     -0.632982
      40A     -0.609631    41A     -0.576417    42A     -0.538311
      43A     -0.536994    44A     -0.520665    45A     -0.511434
      46A     -0.499945    47A     -0.490395    48A     -0.478419
      49A     -0.456328    50A     -0.455450    51A     -0.443930
      52A     -0.355220    53A     -0.353861

  @DF-RHF Final Energy: -1721.48750500060169

   => Energetics <=

    Nuclear Repulsion Energy =            894.6289443518795679
    One-Electron Energy =               -4151.9209745725993344
    Two-Electron Energy =                1535.8045252201181938
    Total Energy =                      -1721.4875050006016863
  Basis Set: (AUG-CC-PVTZ AUX)
    Blend: AUG-CC-PVTZ-RI
    Molecular point group: c1

    Geometry (in Angstrom), charge = 0, multiplicity = 1:

       Center              X                  Y                   Z               Mass
    ------------   -----------------  -----------------  -----------------  -----------------
         CL           1.162587088962     1.446339110555     0.982499638516    34.968852682000
         CL           2.700581088962    -0.000005889445    -1.010123361484    34.968852682000
         CL           1.162565088962    -1.446340889445     0.982491638516    34.968852682000
         O            0.196245088962     0.000007110555    -1.003608361484    15.994914619570
         C           -1.137148911038     0.000004110555    -0.543990361484    12.000000000000
         C           -1.795871911038    -1.219203889445    -0.400763361484    12.000000000000
         C           -1.795880911038     1.219210110555    -0.400769361484    12.000000000000
         C           -3.145028911038    -1.209908889445    -0.043332361484    12.000000000000
         C           -3.145034911038     1.209913110555    -0.043341361484    12.000000000000
         C           -3.819362911038    -0.000000889445     0.138307638516    12.000000000000
         C            1.168818388962    -0.000000589445    -0.103058161484    12.000000000000
         H           -1.258889911038    -2.146575889445    -0.569585361484     1.007825032230
         H           -1.258891911038     2.146577110555    -0.569600361484     1.007825032230
         H           -3.672574911038    -2.152441889445     0.077684638516     1.007825032230
         H           -3.672587911038     2.152442110555     0.077666638516     1.007825032230
         H           -4.870692911038    -0.000003889445     0.413658638516     1.007825032230

  Basis Set: AUG-CC-PVTZ
    Blend: AUG-CC-PVTZ
  Basis Set: (AUG-CC-PVTZ AUX)
    Blend: AUG-CC-PVTZ-JKFIT
	 Reference Energy          =   -1721.4875050006016863 [Eh]
	 Singles Energy            =      -0.0000000000000000 [Eh]
	 Same-Spin Energy          =      -0.5625306529142065 [Eh]
	 Opposite-Spin Energy      =      -1.6460764525721538 [Eh]
	 Correlation Energy        =      -2.2086071054863603 [Eh]
	 Total Energy              =   -1723.6961121060880942 [Eh]

	 ================> DF-SCS-MP2 Energies <==================
	-----------------------------------------------------------
	 SCS Same-Spin Scale       =       0.3333333333333333 [-]
	 SCS Opposite-Spin Scale   =       1.2000000000000000 [-]
	 SCS Same-Spin Energy      =      -0.1875102176380688 [Eh]
	 SCS Opposite-Spin Energy  =      -1.9752917430865846 [Eh]
	 SCS Correlation Energy    =      -2.1628019607246536 [Eh]
	 SCS Total Energy          =   -1723.6503069613263506 [Eh]
	-----------------------------------------------------------

  Dipole Moment: [D]
     X:    -2.5922      Y:    -0.0000      Z:     0.0397     Total:     2.5925

*** Psi4 exiting successfully. Buy a developer a beer!
