                               Psi4 1.3.2 release

  ==> Input File <==

--------------------------------------------------------------------------
#psi4
#
memory 32 gb

molecule  {
0 1
 Cl        1.2524280     1.4463390     0.9876330
 Cl        2.7904220    -0.0000060    -1.0049900
 Cl        1.2524060    -1.4463410     0.9876250
  O        0.2860860     0.0000070    -0.9984750
  C       -1.0761213     0.0000048    -0.6329895
  C       -1.7060310    -1.2192040    -0.3956300
  C       -1.7060400     1.2192100    -0.3956360
  C       -3.0551880    -1.2099090    -0.0381990
  C       -3.0551940     1.2099130    -0.0382080
  C       -3.7295220    -0.0000010     0.1434410
  C        1.2953470    -0.0000010    -0.0639540
  H       -1.1690490    -2.1465760    -0.5644520
  H       -1.1690510     2.1465770    -0.5644670
  H       -3.5827340    -2.1524420     0.0828180
  H       -3.5827470     2.1524420     0.0828000
  H       -4.7808520    -0.0000040     0.4187920
units angstrom
no_reorient  #important for SAPT in psi4, default
symmetry c1  #important for SAPT in psi4, default
}

set PROPERTIES_ORIGIN ["COM"]
properties('MP2/aug-cc-pvtz', properties = ['dipole'])
--------------------------------------------------------------------------

    Molecular point group: c1
  Charge       = 0
  Multiplicity = 1
  Basis Set: AUG-CC-PVTZ
    Blend: AUG-CC-PVTZ
  Basis Set: (AUG-CC-PVTZ AUX)
    Blend: AUG-CC-PVTZ-JKFIT

    Orbital Energies [Eh]
    ---------------------

    Doubly Occupied:

       1A   -104.862505     2A   -104.861555     3A   -104.861555
       4A    -20.627330     5A    -11.495772     6A    -11.318152
       7A    -11.254839     8A    -11.254779     9A    -11.253699
      10A    -11.253530    11A    -11.251166    12A    -10.587125
      13A    -10.586226    14A    -10.586216    15A     -8.053911
      16A     -8.052935    17A     -8.052934    18A     -8.051686
      19A     -8.051685    20A     -8.050852    21A     -8.050850
      22A     -8.050830    23A     -8.050830    24A     -1.465357
      25A     -1.218896    26A     -1.163712    27A     -1.115307
      28A     -1.112092    29A     -1.035578    30A     -1.029425
      31A     -0.887812    32A     -0.853964    33A     -0.806447
      34A     -0.733767    35A     -0.698088    36A     -0.694426
      37A     -0.685072    38A     -0.635282    39A     -0.630980
      40A     -0.607710    41A     -0.580334    42A     -0.537661
      43A     -0.536141    44A     -0.516733    45A     -0.511706
      46A     -0.498625    47A     -0.490462    48A     -0.479370
      49A     -0.460195    50A     -0.458714    51A     -0.447164
      52A     -0.353313    53A     -0.350588

  @DF-RHF Final Energy: -1721.48604972534145

   => Energetics <=

    Nuclear Repulsion Energy =            893.4910245285319661
    One-Electron Energy =               -4149.7223818317788755
    Two-Electron Energy =                1534.7453075779055780
    Total Energy =                      -1721.4860497253414451
  Basis Set: (AUG-CC-PVTZ AUX)
    Blend: AUG-CC-PVTZ-RI
    Molecular point group: c1

    Geometry (in Angstrom), charge = 0, multiplicity = 1:

       Center              X                  Y                   Z               Mass
    ------------   -----------------  -----------------  -----------------  -----------------
         CL           1.162136995931     1.446339081975     0.985938422665    34.968852682000
         CL           2.700130995931    -0.000005918025    -1.006684577335    34.968852682000
         CL           1.162114995931    -1.446340918025     0.985930422665    34.968852682000
         O            0.195794995931     0.000007081975    -1.000169577335    15.994914619570
         C           -1.166412304069     0.000004881975    -0.634684077335    12.000000000000
         C           -1.796322004069    -1.219203918025    -0.397324577335    12.000000000000
         C           -1.796331004069     1.219210081975    -0.397330577335    12.000000000000
         C           -3.145479004069    -1.209908918025    -0.039893577335    12.000000000000
         C           -3.145485004069     1.209913081975    -0.039902577335    12.000000000000
         C           -3.819813004069    -0.000000918025     0.141746422665    12.000000000000
         C            1.205055995931    -0.000000918025    -0.065648577335    12.000000000000
         H           -1.259340004069    -2.146575918025    -0.566146577335     1.007825032230
         H           -1.259342004069     2.146577081975    -0.566161577335     1.007825032230
         H           -3.673025004069    -2.152441918025     0.081123422665     1.007825032230
         H           -3.673038004069     2.152442081975     0.081105422665     1.007825032230
         H           -4.871143004069    -0.000003918025     0.417097422665     1.007825032230

  Basis Set: AUG-CC-PVTZ
    Blend: AUG-CC-PVTZ
  Basis Set: (AUG-CC-PVTZ AUX)
    Blend: AUG-CC-PVTZ-JKFIT
	 Reference Energy          =   -1721.4860497253414451 [Eh]
	 Singles Energy            =      -0.0000000000000000 [Eh]
	 Same-Spin Energy          =      -0.5623835216203290 [Eh]
	 Opposite-Spin Energy      =      -1.6460319254857008 [Eh]
	 Correlation Energy        =      -2.2084154471060300 [Eh]
	 Total Energy              =   -1723.6944651724475079 [Eh]

	 ================> DF-SCS-MP2 Energies <==================
	-----------------------------------------------------------
	 SCS Same-Spin Scale       =       0.3333333333333333 [-]
	 SCS Opposite-Spin Scale   =       1.2000000000000000 [-]
	 SCS Same-Spin Energy      =      -0.1874611738734430 [Eh]
	 SCS Opposite-Spin Energy  =      -1.9752383105828408 [Eh]
	 SCS Correlation Energy    =      -2.1626994844562839 [Eh]
	 SCS Total Energy          =   -1723.6487492097976428 [Eh]
	-----------------------------------------------------------

  Dipole Moment: [D]
     X:    -2.2640      Y:    -0.0000      Z:     0.2283     Total:     2.2755

*** Psi4 exiting successfully. Buy a developer a beer!
