                               Psi4 1.3.2 release

  ==> Input File <==

--------------------------------------------------------------------------
#psi4
#
memory 32 gb

molecule  {
0 1
 Cl        1.2524280     1.4463390     0.9876330
 Cl        2.7904220    -0.0000060    -1.0049900
 Cl        1.2524060    -1.4463410     0.9876250
  O        0.2860860     0.0000070    -0.9984750
  C       -1.0119986     0.0000032    -0.4469637
  C       -1.7060310    -1.2192040    -0.3956300
  C       -1.7060400     1.2192100    -0.3956360
  C       -3.0551880    -1.2099090    -0.0381990
  C       -3.0551940     1.2099130    -0.0382080
  C       -3.7295220    -0.0000010     0.1434410
  C        1.2953470    -0.0000010    -0.0639540
  H       -1.1690490    -2.1465760    -0.5644520
  H       -1.1690510     2.1465770    -0.5644670
  H       -3.5827340    -2.1524420     0.0828180
  H       -3.5827470     2.1524420     0.0828000
  H       -4.7808520    -0.0000040     0.4187920
units angstrom
no_reorient  #important for SAPT in psi4, default
symmetry c1  #important for SAPT in psi4, default
}

set PROPERTIES_ORIGIN ["COM"]
properties('MP2/aug-cc-pvtz', properties = ['dipole'])
--------------------------------------------------------------------------

    Molecular point group: c1
  Charge       = 0
  Multiplicity = 1
  Basis Set: AUG-CC-PVTZ
    Blend: AUG-CC-PVTZ
  Basis Set: (AUG-CC-PVTZ AUX)
    Blend: AUG-CC-PVTZ-JKFIT

    Orbital Energies [Eh]
    ---------------------

    Doubly Occupied:

       1A   -104.862245     2A   -104.862245     3A   -104.862002
       4A    -20.634493     5A    -11.493706     6A    -11.316125
       7A    -11.256128     8A    -11.256103     9A    -11.253373
      10A    -11.252796    11A    -11.251580    12A    -10.586946
      13A    -10.586936    14A    -10.586664    15A     -8.053650
      16A     -8.053650    17A     -8.053454    18A     -8.051568
      19A     -8.051566    20A     -8.051543    21A     -8.051543
      22A     -8.051240    23A     -8.051237    24A     -1.472758
      25A     -1.218054    26A     -1.161712    27A     -1.115926
      28A     -1.113187    29A     -1.033831    30A     -1.026957
      31A     -0.882631    32A     -0.851702    33A     -0.807393
      34A     -0.734386    35A     -0.697392    36A     -0.696504
      37A     -0.689700    38A     -0.633441    39A     -0.630522
      40A     -0.606345    41A     -0.582832    42A     -0.539022
      43A     -0.535304    44A     -0.516209    45A     -0.508417
      46A     -0.498631    47A     -0.493498    48A     -0.481716
      49A     -0.460511    50A     -0.460178    51A     -0.447593
      52A     -0.351550    53A     -0.349392

  @DF-RHF Final Energy: -1721.48173423091066

   => Energetics <=

    Nuclear Repulsion Energy =            895.1405050157742380
    One-Electron Energy =               -4152.9883069142615568
    Two-Electron Energy =                1536.3660676675767718
    Total Energy =                      -1721.4817342309106607
  Basis Set: (AUG-CC-PVTZ AUX)
    Blend: AUG-CC-PVTZ-RI
    Molecular point group: c1

    Geometry (in Angstrom), charge = 0, multiplicity = 1:

       Center              X                  Y                   Z               Mass
    ------------   -----------------  -----------------  -----------------  -----------------
         CL           1.158471804881     1.446339173430     0.975305369205    34.968852682000
         CL           2.696465804881    -0.000005826570    -1.017317630795    34.968852682000
         CL           1.158449804881    -1.446340826570     0.975297369205    34.968852682000
         O            0.192129804881     0.000007173430    -1.010802630795    15.994914619570
         C           -1.105954795119     0.000003373430    -0.459291330795    12.000000000000
         C           -1.799987195119    -1.219203826570    -0.407957630795    12.000000000000
         C           -1.799996195119     1.219210173430    -0.407963630795    12.000000000000
         C           -3.149144195119    -1.209908826570    -0.050526630795    12.000000000000
         C           -3.149150195119     1.209913173430    -0.050535630795    12.000000000000
         C           -3.823478195119    -0.000000826570     0.131113369205    12.000000000000
         C            1.201390804881    -0.000000826570    -0.076281630795    12.000000000000
         H           -1.263005195119    -2.146575826570    -0.576779630795     1.007825032230
         H           -1.263007195119     2.146577173430    -0.576794630795     1.007825032230
         H           -3.676690195119    -2.152441826570     0.070490369205     1.007825032230
         H           -3.676703195119     2.152442173430     0.070472369205     1.007825032230
         H           -4.874808195119    -0.000003826570     0.406464369205     1.007825032230

  Basis Set: AUG-CC-PVTZ
    Blend: AUG-CC-PVTZ
  Basis Set: (AUG-CC-PVTZ AUX)
    Blend: AUG-CC-PVTZ-JKFIT
	 Reference Energy          =   -1721.4817342309106607 [Eh]
	 Singles Energy            =      -0.0000000000000000 [Eh]
	 Same-Spin Energy          =      -0.5634134450513301 [Eh]
	 Opposite-Spin Energy      =      -1.6484740990370539 [Eh]
	 Correlation Energy        =      -2.2118875440883841 [Eh]
	 Total Energy              =   -1723.6936217749989737 [Eh]

	 ================> DF-SCS-MP2 Energies <==================
	-----------------------------------------------------------
	 SCS Same-Spin Scale       =       0.3333333333333333 [-]
	 SCS Opposite-Spin Scale   =       1.2000000000000000 [-]
	 SCS Same-Spin Energy      =      -0.1878044816837767 [Eh]
	 SCS Opposite-Spin Energy  =      -1.9781689188444647 [Eh]
	 SCS Correlation Energy    =      -2.1659734005282414 [Eh]
	 SCS Total Energy          =   -1723.6477076314388341 [Eh]
	-----------------------------------------------------------

  Dipole Moment: [D]
     X:    -2.2101      Y:    -0.0000      Z:     0.2545     Total:     2.2247

*** Psi4 exiting successfully. Buy a developer a beer!
