                               Psi4 1.3.2 release

  ==> Input File <==

--------------------------------------------------------------------------
#psi4
#
memory 32 gb

molecule  {
0 1
 Cl        1.2524280     1.4463390     0.9876330
 Cl        2.7904220    -0.0000060    -1.0049900
 Cl        1.2524060    -1.4463410     0.9876250
  O        0.2860860     0.0000070    -0.9984750
  C       -1.0551264     0.0000042    -0.5621979
  C       -1.7060310    -1.2192040    -0.3956300
  C       -1.7060400     1.2192100    -0.3956360
  C       -3.0551880    -1.2099090    -0.0381990
  C       -3.0551940     1.2099130    -0.0382080
  C       -3.7295220    -0.0000010     0.1434410
  C        1.2953470    -0.0000010    -0.0639540
  H       -1.1690490    -2.1465760    -0.5644520
  H       -1.1690510     2.1465770    -0.5644670
  H       -3.5827340    -2.1524420     0.0828180
  H       -3.5827470     2.1524420     0.0828000
  H       -4.7808520    -0.0000040     0.4187920
units angstrom
no_reorient  #important for SAPT in psi4, default
symmetry c1  #important for SAPT in psi4, default
}

set PROPERTIES_ORIGIN ["COM"]
properties('MP2/aug-cc-pvtz', properties = ['dipole'])
--------------------------------------------------------------------------

    Molecular point group: c1
  Charge       = 0
  Multiplicity = 1
  Basis Set: AUG-CC-PVTZ
    Blend: AUG-CC-PVTZ
  Basis Set: (AUG-CC-PVTZ AUX)
    Blend: AUG-CC-PVTZ-JKFIT

    Orbital Energies [Eh]
    ---------------------

    Doubly Occupied:

       1A   -104.862493     2A   -104.861893     3A   -104.861893
       4A    -20.630357     5A    -11.495045     6A    -11.316760
       7A    -11.254533     8A    -11.254471     9A    -11.253388
      10A    -11.253228    11A    -11.250816    12A    -10.587124
      13A    -10.586573    14A    -10.586563    15A     -8.053911
      16A     -8.053281    17A     -8.053280    18A     -8.051690
      19A     -8.051688    20A     -8.051197    21A     -8.051195
      22A     -8.051175    23A     -8.051175    24A     -1.468307
      25A     -1.218782    26A     -1.163562    27A     -1.115640
      28A     -1.112566    29A     -1.035272    30A     -1.029014
      31A     -0.886001    32A     -0.853973    33A     -0.806934
      34A     -0.734380    35A     -0.697705    36A     -0.695357
      37A     -0.686814    38A     -0.635275    39A     -0.630866
      40A     -0.607421    41A     -0.581513    42A     -0.538178
      43A     -0.535367    44A     -0.517417    45A     -0.511089
      46A     -0.498598    47A     -0.492000    48A     -0.480575
      49A     -0.460433    50A     -0.459406    51A     -0.447428
      52A     -0.353081    53A     -0.350390

  @DF-RHF Final Energy: -1721.48805160014649

   => Energetics <=

    Nuclear Repulsion Energy =            894.2094725489333769
    One-Electron Energy =               -4151.1409018839003693
    Two-Electron Energy =                1535.4433777348206149
    Total Energy =                      -1721.4880516001464912
  Basis Set: (AUG-CC-PVTZ AUX)
    Blend: AUG-CC-PVTZ-RI
    Molecular point group: c1

    Geometry (in Angstrom), charge = 0, multiplicity = 1:

       Center              X                  Y                   Z               Mass
    ------------   -----------------  -----------------  -----------------  -----------------
         CL           1.160936947905     1.446339116270     0.981892043790    34.968852682000
         CL           2.698930947905    -0.000005883730    -1.010730956210    34.968852682000
         CL           1.160914947905    -1.446340883730     0.981884043790    34.968852682000
         O            0.194594947905     0.000007116270    -1.004215956210    15.994914619570
         C           -1.146617452095     0.000004316270    -0.567938856210    12.000000000000
         C           -1.797522052095    -1.219203883730    -0.401370956210    12.000000000000
         C           -1.797531052095     1.219210116270    -0.401376956210    12.000000000000
         C           -3.146679052095    -1.209908883730    -0.043939956210    12.000000000000
         C           -3.146685052095     1.209913116270    -0.043948956210    12.000000000000
         C           -3.821013052095    -0.000000883730     0.137700043790    12.000000000000
         C            1.203855947905    -0.000000883730    -0.069694956210    12.000000000000
         H           -1.260540052095    -2.146575883730    -0.570192956210     1.007825032230
         H           -1.260542052095     2.146577116270    -0.570207956210     1.007825032230
         H           -3.674225052095    -2.152441883730     0.077077043790     1.007825032230
         H           -3.674238052095     2.152442116270     0.077059043790     1.007825032230
         H           -4.872343052095    -0.000003883730     0.413051043790     1.007825032230

  Basis Set: AUG-CC-PVTZ
    Blend: AUG-CC-PVTZ
  Basis Set: (AUG-CC-PVTZ AUX)
    Blend: AUG-CC-PVTZ-JKFIT
	 Reference Energy          =   -1721.4880516001464912 [Eh]
	 Singles Energy            =      -0.0000000000000000 [Eh]
	 Same-Spin Energy          =      -0.5625612478801536 [Eh]
	 Opposite-Spin Energy      =      -1.6463595974631937 [Eh]
	 Correlation Energy        =      -2.2089208453433473 [Eh]
	 Total Energy              =   -1723.6969724454897914 [Eh]

	 ================> DF-SCS-MP2 Energies <==================
	-----------------------------------------------------------
	 SCS Same-Spin Scale       =       0.3333333333333333 [-]
	 SCS Opposite-Spin Scale   =       1.2000000000000000 [-]
	 SCS Same-Spin Energy      =      -0.1875204159600512 [Eh]
	 SCS Opposite-Spin Energy  =      -1.9756315169558323 [Eh]
	 SCS Correlation Energy    =      -2.1631519329158833 [Eh]
	 SCS Total Energy          =   -1723.6512035330624713 [Eh]
	-----------------------------------------------------------

  Dipole Moment: [D]
     X:    -2.2253      Y:    -0.0000      Z:     0.2363     Total:     2.2378

*** Psi4 exiting successfully. Buy a developer a beer!
