                               Psi4 1.3.2 release

  ==> Input File <==

--------------------------------------------------------------------------
#psi4
#
memory 32 gb

molecule  {
0 1
 Cl        1.2524280     1.4463390     0.9876330
 Cl        2.7904220    -0.0000060    -1.0049900
 Cl        1.2524060    -1.4463410     0.9876250
  O        0.2853626    -0.0245558    -0.9999146
  C       -1.0473080     0.0000040    -0.5388570
  C       -1.7060310    -1.2192040    -0.3956300
  C       -1.7060400     1.2192100    -0.3956360
  C       -3.0551880    -1.2099090    -0.0381990
  C       -3.0551940     1.2099130    -0.0382080
  C       -3.7295220    -0.0000010     0.1434410
  C        1.2953470    -0.0000010    -0.0639540
  H       -1.1690490    -2.1465760    -0.5644520
  H       -1.1690510     2.1465770    -0.5644670
  H       -3.5827340    -2.1524420     0.0828180
  H       -3.5827470     2.1524420     0.0828000
  H       -4.7808520    -0.0000040     0.4187920
units angstrom
no_reorient  #important for SAPT in psi4, default
symmetry c1  #important for SAPT in psi4, default
}

set PROPERTIES_ORIGIN ["COM"]
properties('MP2/aug-cc-pvtz', properties = ['dipole'])
--------------------------------------------------------------------------

    Molecular point group: c1
  Charge       = 0
  Multiplicity = 1
  Basis Set: AUG-CC-PVTZ
    Blend: AUG-CC-PVTZ
  Basis Set: (AUG-CC-PVTZ AUX)
    Blend: AUG-CC-PVTZ-JKFIT

    Orbital Energies [Eh]
    ---------------------

    Doubly Occupied:

       1A   -104.863180     2A   -104.862499     3A   -104.861069
       4A    -20.631286     5A    -11.494867     6A    -11.316331
       7A    -11.254887     8A    -11.254092     9A    -11.253559
      10A    -11.252888    11A    -11.250790    12A    -10.587789
      13A    -10.587131    14A    -10.585799    15A     -8.054502
      16A     -8.053920    17A     -8.052510    18A     -8.052415
      19A     -8.052392    20A     -8.051699    21A     -8.051697
      22A     -8.050427    23A     -8.050407    24A     -1.468597
      25A     -1.218779    26A     -1.163276    27A     -1.115809
      28A     -1.112720    29A     -1.035016    30A     -1.028559
      31A     -0.885046    32A     -0.853651    33A     -0.807075
      34A     -0.734371    35A     -0.697570    36A     -0.695300
      37A     -0.687137    38A     -0.635023    39A     -0.630731
      40A     -0.607215    41A     -0.581974    42A     -0.538385
      43A     -0.535159    44A     -0.517376    45A     -0.510738
      46A     -0.498597    47A     -0.492546    48A     -0.480879
      49A     -0.460636    50A     -0.459557    51A     -0.447557
      52A     -0.352835    53A     -0.350171

  @DF-RHF Final Energy: -1721.48754160210069

   => Energetics <=

    Nuclear Repulsion Energy =            894.3643135421968964
    One-Electron Energy =               -4151.4468695412351735
    Two-Electron Energy =                1535.5950143969373585
    Total Energy =                      -1721.4875416021006913
  Basis Set: (AUG-CC-PVTZ AUX)
    Blend: AUG-CC-PVTZ-RI
    Molecular point group: c1

    Geometry (in Angstrom), charge = 0, multiplicity = 1:

       Center              X                  Y                   Z               Mass
    ------------   -----------------  -----------------  -----------------  -----------------
         CL           1.160545170042     1.448210513670     0.980667580663    34.968852682000
         CL           2.698539170042     0.001865513670    -1.011955419337    34.968852682000
         CL           1.160523170042    -1.444469486330     0.980659580663    34.968852682000
         O            0.193479770042    -0.022684286330    -1.006880019337    15.994914619570
         C           -1.139190829958     0.001875513670    -0.545822419337    12.000000000000
         C           -1.797913829958    -1.217332486330    -0.402595419337    12.000000000000
         C           -1.797922829958     1.221081513670    -0.402601419337    12.000000000000
         C           -3.147070829958    -1.208037486330    -0.045164419337    12.000000000000
         C           -3.147076829958     1.211784513670    -0.045173419337    12.000000000000
         C           -3.821404829958     0.001870513670     0.136475580663    12.000000000000
         C            1.203464170042     0.001870513670    -0.070919419337    12.000000000000
         H           -1.260931829958    -2.144704486330    -0.571417419337     1.007825032230
         H           -1.260933829958     2.148448513670    -0.571432419337     1.007825032230
         H           -3.674616829958    -2.150570486330     0.075852580663     1.007825032230
         H           -3.674629829958     2.154313513670     0.075834580663     1.007825032230
         H           -4.872734829958     0.001867513670     0.411826580663     1.007825032230

  Basis Set: AUG-CC-PVTZ
    Blend: AUG-CC-PVTZ
  Basis Set: (AUG-CC-PVTZ AUX)
    Blend: AUG-CC-PVTZ-JKFIT
	 Reference Energy          =   -1721.4875416021006913 [Eh]
	 Singles Energy            =      -0.0000000000000000 [Eh]
	 Same-Spin Energy          =      -0.5626928802662019 [Eh]
	 Opposite-Spin Energy      =      -1.6466953133140740 [Eh]
	 Correlation Energy        =      -2.2093881935802759 [Eh]
	 Total Energy              =   -1723.6969297956809442 [Eh]

	 ================> DF-SCS-MP2 Energies <==================
	-----------------------------------------------------------
	 SCS Same-Spin Scale       =       0.3333333333333333 [-]
	 SCS Opposite-Spin Scale   =       1.2000000000000000 [-]
	 SCS Same-Spin Energy      =      -0.1875642934220673 [Eh]
	 SCS Opposite-Spin Energy  =      -1.9760343759768888 [Eh]
	 SCS Correlation Energy    =      -2.1635986693989562 [Eh]
	 SCS Total Energy          =   -1723.6511402714995711 [Eh]
	-----------------------------------------------------------

  Dipole Moment: [D]
     X:    -2.2087      Y:     0.0511      Z:     0.2446     Total:     2.2228

*** Psi4 exiting successfully. Buy a developer a beer!
