                               Psi4 1.3.2 release

  ==> Input File <==

--------------------------------------------------------------------------
#psi4
#
memory 32 gb

molecule  {
0 1
 Cl        1.2524280     1.4463390     0.9876330
 Cl        2.7904220    -0.0000060    -1.0049900
 Cl        1.2524060    -1.4463410     0.9876250
  O        0.2860860     0.0000070    -0.9984750
  C       -1.0473080     0.0000040    -0.5388570
  C       -1.7060310    -1.2192040    -0.3956300
  C       -1.7060400     1.2192100    -0.3956360
  C       -3.0551880    -1.2099090    -0.0381990
  C       -3.0551940     1.2099130    -0.0382080
  C       -3.7295220    -0.0000010     0.1434410
  C        1.1485963     0.0000002    -0.1998372
  H       -1.1690490    -2.1465760    -0.5644520
  H       -1.1690510     2.1465770    -0.5644670
  H       -3.5827340    -2.1524420     0.0828180
  H       -3.5827470     2.1524420     0.0828000
  H       -4.7808520    -0.0000040     0.4187920
units angstrom
no_reorient  #important for SAPT in psi4, default
symmetry c1  #important for SAPT in psi4, default
}

set PROPERTIES_ORIGIN ["COM"]
properties('MP2/aug-cc-pvtz', properties = ['dipole'])
--------------------------------------------------------------------------

    Molecular point group: c1
  Charge       = 0
  Multiplicity = 1
  Basis Set: AUG-CC-PVTZ
    Blend: AUG-CC-PVTZ
  Basis Set: (AUG-CC-PVTZ AUX)
    Blend: AUG-CC-PVTZ-JKFIT

    Orbital Energies [Eh]
    ---------------------

    Doubly Occupied:

       1A   -104.849393     2A   -104.841473     3A   -104.841472
       4A    -20.671097     5A    -11.498679     6A    -11.338927
       7A    -11.270266     8A    -11.270238     9A    -11.265448
      10A    -11.265035    11A    -11.263311    12A    -10.573587
      13A    -10.565852    14A    -10.565840    15A     -8.040234
      16A     -8.038191    17A     -8.038187    18A     -8.032390
      19A     -8.032389    20A     -8.030541    21A     -8.030539
      22A     -8.030515    23A     -8.030514    24A     -1.593173
      25A     -1.198894    26A     -1.170146    27A     -1.095279
      28A     -1.085373    29A     -1.058494    30A     -1.047941
      31A     -0.930800    32A     -0.870688    33A     -0.819485
      34A     -0.764723    35A     -0.742208    36A     -0.719944
      37A     -0.710383    38A     -0.644786    39A     -0.642586
      40A     -0.619025    41A     -0.560772    42A     -0.537488
      43A     -0.536392    44A     -0.533862    45A     -0.512388
      46A     -0.497520    47A     -0.480004    48A     -0.467144
      49A     -0.440827    50A     -0.437370    51A     -0.430226
      52A     -0.366728    53A     -0.364064

  @DF-RHF Final Energy: -1721.45450673239498

   => Energetics <=

    Nuclear Repulsion Energy =            895.4194510177763959
    One-Electron Energy =               -4153.2222551402837780
    Two-Electron Energy =                1536.3482973901125206
    Total Energy =                      -1721.4545067323949752
  Basis Set: (AUG-CC-PVTZ AUX)
    Blend: AUG-CC-PVTZ-RI
    Molecular point group: c1

    Geometry (in Angstrom), charge = 0, multiplicity = 1:

       Center              X                  Y                   Z               Mass
    ------------   -----------------  -----------------  -----------------  -----------------
         CL           1.168878182793     1.446339059111     0.988324851994    34.968852682000
         CL           2.706872182793    -0.000005940889    -1.004298148006    34.968852682000
         CL           1.168856182793    -1.446340940889     0.988316851994    34.968852682000
         O            0.202536182793     0.000007059111    -0.997783148006    15.994914619570
         C           -1.130857817207     0.000004059111    -0.538165148006    12.000000000000
         C           -1.789580817207    -1.219203940889    -0.394938148006    12.000000000000
         C           -1.789589817207     1.219210059111    -0.394944148006    12.000000000000
         C           -3.138737817207    -1.209908940889    -0.037507148006    12.000000000000
         C           -3.138743817207     1.209913059111    -0.037516148006    12.000000000000
         C           -3.813071817207    -0.000000940889     0.144132851994    12.000000000000
         C            1.065046482793     0.000000259111    -0.199145348006    12.000000000000
         H           -1.252598817207    -2.146575940889    -0.563760148006     1.007825032230
         H           -1.252600817207     2.146577059111    -0.563775148006     1.007825032230
         H           -3.666283817207    -2.152441940889     0.083509851994     1.007825032230
         H           -3.666296817207     2.152442059111     0.083491851994     1.007825032230
         H           -4.864401817207    -0.000003940889     0.419483851994     1.007825032230

  Basis Set: AUG-CC-PVTZ
    Blend: AUG-CC-PVTZ
  Basis Set: (AUG-CC-PVTZ AUX)
    Blend: AUG-CC-PVTZ-JKFIT
	 Reference Energy          =   -1721.4545067323949752 [Eh]
	 Singles Energy            =      -0.0000000000000000 [Eh]
	 Same-Spin Energy          =      -0.5631412526090760 [Eh]
	 Opposite-Spin Energy      =      -1.6460387614237824 [Eh]
	 Correlation Energy        =      -2.2091800140328584 [Eh]
	 Total Energy              =   -1723.6636867464278566 [Eh]

	 ================> DF-SCS-MP2 Energies <==================
	-----------------------------------------------------------
	 SCS Same-Spin Scale       =       0.3333333333333333 [-]
	 SCS Opposite-Spin Scale   =       1.2000000000000000 [-]
	 SCS Same-Spin Energy      =      -0.1877137508696920 [Eh]
	 SCS Opposite-Spin Energy  =      -1.9752465137085387 [Eh]
	 SCS Correlation Energy    =      -2.1629602645782304 [Eh]
	 SCS Total Energy          =   -1723.6174669969732349 [Eh]
	-----------------------------------------------------------

  Dipole Moment: [D]
     X:    -3.9995      Y:    -0.0000      Z:    -0.6741     Total:     4.0559

*** Psi4 exiting successfully. Buy a developer a beer!
