                               Psi4 1.3.2 release

  ==> Input File <==

--------------------------------------------------------------------------
#psi4
#
memory 32 gb

molecule  {
0 1
 Cl        1.1522362     1.4844961     0.9236514
 Cl        2.7904220    -0.0000060    -1.0049900
 Cl        1.2524060    -1.4463410     0.9876250
  O        0.2860860     0.0000070    -0.9984750
  C       -1.0473080     0.0000040    -0.5388570
  C       -1.7060310    -1.2192040    -0.3956300
  C       -1.7060400     1.2192100    -0.3956360
  C       -3.0551880    -1.2099090    -0.0381990
  C       -3.0551940     1.2099130    -0.0382080
  C       -3.7295220    -0.0000010     0.1434410
  C        1.2953470    -0.0000010    -0.0639540
  H       -1.1690490    -2.1465760    -0.5644520
  H       -1.1690510     2.1465770    -0.5644670
  H       -3.5827340    -2.1524420     0.0828180
  H       -3.5827470     2.1524420     0.0828000
  H       -4.7808520    -0.0000040     0.4187920
units angstrom
no_reorient  #important for SAPT in psi4, default
symmetry c1  #important for SAPT in psi4, default
}

set PROPERTIES_ORIGIN ["COM"]
properties('MP2/aug-cc-pvtz', properties = ['dipole'])
--------------------------------------------------------------------------

    Molecular point group: c1
  Charge       = 0
  Multiplicity = 1
  Basis Set: AUG-CC-PVTZ
    Blend: AUG-CC-PVTZ
  Basis Set: (AUG-CC-PVTZ AUX)
    Blend: AUG-CC-PVTZ-JKFIT

    Orbital Energies [Eh]
    ---------------------

    Doubly Occupied:

       1A   -104.864217     2A   -104.864146     3A   -104.861195
       4A    -20.627914     5A    -11.494847     6A    -11.315325
       7A    -11.253789     8A    -11.253550     9A    -11.252575
      10A    -11.252306    11A    -11.250123    12A    -10.588739
      13A    -10.588671    14A    -10.586003    15A     -8.055529
      16A     -8.055389    17A     -8.053306    18A     -8.053302
      19A     -8.053300    20A     -8.053278    21A     -8.052705
      22A     -8.050636    23A     -8.050610    24A     -1.468552
      25A     -1.216602    26A     -1.162362    27A     -1.116885
      28A     -1.115027    29A     -1.034262    30A     -1.027966
      31A     -0.884435    32A     -0.852968    33A     -0.806581
      34A     -0.733082    35A     -0.697322    36A     -0.695752
      37A     -0.687240    38A     -0.635392    39A     -0.629880
      40A     -0.606855    41A     -0.580855    42A     -0.537685
      43A     -0.534271    44A     -0.517001    45A     -0.511177
      46A     -0.496071    47A     -0.491849    48A     -0.480537
      49A     -0.462410    50A     -0.461403    51A     -0.449782
      52A     -0.351946    53A     -0.349106

  @DF-RHF Final Energy: -1721.48587130904593

   => Energetics <=

    Nuclear Repulsion Energy =            895.9694830232975846
    One-Electron Energy =               -4154.6572782063221894
    Two-Electron Energy =                1537.2019238739787852
    Total Energy =                      -1721.4858713090459332
  Basis Set: (AUG-CC-PVTZ AUX)
    Blend: AUG-CC-PVTZ-RI
    Molecular point group: c1

    Geometry (in Angstrom), charge = 0, multiplicity = 1:

       Center              X                  Y                   Z               Mass
    ------------   -----------------  -----------------  -----------------  -----------------
         CL           1.076986749241     1.478140572710     0.927233425457    34.968852682000
         CL           2.715172549241    -0.006361527290    -1.001407974543    34.968852682000
         CL           1.177156549241    -1.452696527290     0.991207025457    34.968852682000
         O            0.210836549241    -0.006348527290    -0.994892974543    15.994914619570
         C           -1.122557450759    -0.006351527290    -0.535274974543    12.000000000000
         C           -1.781280450759    -1.225559527290    -0.392047974543    12.000000000000
         C           -1.781289450759     1.212854472710    -0.392053974543    12.000000000000
         C           -3.130437450759    -1.216264527290    -0.034616974543    12.000000000000
         C           -3.130443450759     1.203557472710    -0.034625974543    12.000000000000
         C           -3.804771450759    -0.006356527290     0.147023025457    12.000000000000
         C            1.220097549241    -0.006356527290    -0.060371974543    12.000000000000
         H           -1.244298450759    -2.152931527290    -0.560869974543     1.007825032230
         H           -1.244300450759     2.140221472710    -0.560884974543     1.007825032230
         H           -3.657983450759    -2.158797527290     0.086400025457     1.007825032230
         H           -3.657996450759     2.146086472710     0.086382025457     1.007825032230
         H           -4.856101450759    -0.006359527290     0.422374025457     1.007825032230

  Basis Set: AUG-CC-PVTZ
    Blend: AUG-CC-PVTZ
  Basis Set: (AUG-CC-PVTZ AUX)
    Blend: AUG-CC-PVTZ-JKFIT
	 Reference Energy          =   -1721.4858713090459332 [Eh]
	 Singles Energy            =      -0.0000000000000000 [Eh]
	 Same-Spin Energy          =      -0.5629870354388544 [Eh]
	 Opposite-Spin Energy      =      -1.6471239373493365 [Eh]
	 Correlation Energy        =      -2.2101109727881907 [Eh]
	 Total Energy              =   -1723.6959822818341763 [Eh]

	 ================> DF-SCS-MP2 Energies <==================
	-----------------------------------------------------------
	 SCS Same-Spin Scale       =       0.3333333333333333 [-]
	 SCS Opposite-Spin Scale   =       1.2000000000000000 [-]
	 SCS Same-Spin Energy      =      -0.1876623451462848 [Eh]
	 SCS Opposite-Spin Energy  =      -1.9765487248192037 [Eh]
	 SCS Correlation Energy    =      -2.1642110699654884 [Eh]
	 SCS Total Energy          =   -1723.6500823790113373 [Eh]
	-----------------------------------------------------------

  Dipole Moment: [D]
     X:    -2.1202      Y:    -0.0384      Z:     0.2487     Total:     2.1351

*** Psi4 exiting successfully. Buy a developer a beer!
