                               Psi4 1.4a3.dev225

  ==> Input File <==

--------------------------------------------------------------------------
#psi4
#
memory 32 gb

molecule  {
0 1
 Cl        1.2524280     1.4463390     0.9876330
 Cl        2.7904220    -0.0000060    -1.0049900
 Cl        1.2524060    -1.4463410     0.9876250
  O        0.2860860     0.0000070    -0.9984750
  C       -1.0473080     0.0000040    -0.5388570
  C       -1.7060310    -1.2192040    -0.3956300
  C       -1.7060400     1.2192100    -0.3956360
  C       -3.0551880    -1.2099090    -0.0381990
  C       -3.0551940     1.2099130    -0.0382080
  C       -3.7295220    -0.0000010     0.1434410
  C        1.2806719    -0.0000009    -0.0775423
  H       -1.1690490    -2.1465760    -0.5644520
  H       -1.1690510     2.1465770    -0.5644670
  H       -3.5827340    -2.1524420     0.0828180
  H       -3.5827470     2.1524420     0.0828000
  H       -4.7808520    -0.0000040     0.4187920
units angstrom
no_reorient  #important for SAPT in psi4, default
symmetry c1  #important for SAPT in psi4, default
}

set PROPERTIES_ORIGIN ["COM"]
properties('MP2/aug-cc-pvtz', properties = ['dipole'])
--------------------------------------------------------------------------

    Molecular point group: c1
  Charge       = 0
  Multiplicity = 1
  Basis Set: AUG-CC-PVTZ
    Blend: AUG-CC-PVTZ
  Basis Set: (AUG-CC-PVTZ AUX)
    Blend: AUG-CC-PVTZ-JKFIT

    Orbital Energies [Eh]
    ---------------------

    Doubly Occupied:

       1A   -104.861441     2A   -104.860344     3A   -104.860343
       4A    -20.634549     5A    -11.495226     6A    -11.318310
       7A    -11.255707     8A    -11.255696     9A    -11.254458
      10A    -11.254224    11A    -11.251843    12A    -10.586029
      13A    -10.584976    14A    -10.584966    15A     -8.052805
      16A     -8.051668    17A     -8.051667    18A     -8.050601
      19A     -8.050599    20A     -8.049606    21A     -8.049604
      22A     -8.049584    23A     -8.049584    24A     -1.478916
      25A     -1.216058    26A     -1.164578    27A     -1.113775
      28A     -1.110145    29A     -1.036122    30A     -1.031215
      31A     -0.889293    32A     -0.855042    33A     -0.807543
      34A     -0.736267    35A     -0.699398    36A     -0.698709
      37A     -0.690465    38A     -0.635081    39A     -0.631617
      40A     -0.608177    41A     -0.579785    42A     -0.538420
      43A     -0.535936    44A     -0.518607    45A     -0.510972
      46A     -0.499308    47A     -0.491689    48A     -0.479952
      49A     -0.458877    50A     -0.458082    51A     -0.446116
      52A     -0.353786    53A     -0.351667

  @DF-RHF Final Energy: -1721.48813223713660

   => Energetics <=

    Nuclear Repulsion Energy =            894.5028663935131590
    One-Electron Energy =               -4151.7031353650318124
    Two-Electron Energy =                1535.7121367343820566
    Total Energy =                      -1721.4881322371365968
  Basis Set: (AUG-CC-PVTZ AUX)
    Blend: AUG-CC-PVTZ-RI
    Molecular point group: c1

    Geometry (in Angstrom), charge = 0, multiplicity = 1:

       Center              X                  Y                   Z               Mass
    ------------   -----------------  -----------------  -----------------  -----------------
         CL           1.161328870195     1.446339121986     0.981334594677    34.968852682000
         CL           2.699322870195    -0.000005878014    -1.011288405323    34.968852682000
         CL           1.161306870195    -1.446340878014     0.981326594677    34.968852682000
         O            0.194986870195     0.000007121986    -1.004773405323    15.994914619570
         C           -1.138407129805     0.000004121986    -0.545155405323    12.000000000000
         C           -1.797130129805    -1.219203878014    -0.401928405323    12.000000000000
         C           -1.797139129805     1.219210121986    -0.401934405323    12.000000000000
         C           -3.146287129805    -1.209908878014    -0.044497405323    12.000000000000
         C           -3.146293129805     1.209913121986    -0.044506405323    12.000000000000
         C           -3.820621129805    -0.000000878014     0.137142594677    12.000000000000
         C            1.189572770195    -0.000000778014    -0.083840705323    12.000000000000
         H           -1.260148129805    -2.146575878014    -0.570750405323     1.007825032230
         H           -1.260150129805     2.146577121986    -0.570765405323     1.007825032230
         H           -3.673833129805    -2.152441878014     0.076519594677     1.007825032230
         H           -3.673846129805     2.152442121986     0.076501594677     1.007825032230
         H           -4.871951129805    -0.000003878014     0.412493594677     1.007825032230

  Basis Set: AUG-CC-PVTZ
    Blend: AUG-CC-PVTZ
  Basis Set: (AUG-CC-PVTZ AUX)
    Blend: AUG-CC-PVTZ-JKFIT
	 Reference Energy          =   -1721.4881322371365968 [Eh]
	 Singles Energy            =      -0.0000000000000000 [Eh]
	 Same-Spin Energy          =      -0.5625929186687335 [Eh]
	 Opposite-Spin Energy      =      -1.6463672286578737 [Eh]
	 Correlation Energy        =      -2.2089601473266072 [Eh]
	 Total Energy              =   -1723.6970923844633035 [Eh]

	 ================> DF-SCS-MP2 Energies <==================
	-----------------------------------------------------------
	 SCS Same-Spin Scale       =       0.3333333333333333 [-]
	 SCS Opposite-Spin Scale   =       1.2000000000000000 [-]
	 SCS Same-Spin Energy      =      -0.1875309728895778 [Eh]
	 SCS Opposite-Spin Energy  =      -1.9756406743894483 [Eh]
	 SCS Correlation Energy    =      -2.1631716472790261 [Eh]
	 SCS Total Energy          =   -1723.6513038844157109 [Eh]
	-----------------------------------------------------------

  Dipole Moment: [D]
     X:    -2.3618      Y:    -0.0000      Z:     0.1619     Total:     2.3673

*** Psi4 exiting successfully. Buy a developer a beer!
