                               Psi4 1.3.2 release

  ==> Input File <==

--------------------------------------------------------------------------
#psi4
#
memory 32 gb

molecule  {
0 1
 Cl        1.1023713     1.5008727     0.8898358
 Cl        2.7904220    -0.0000060    -1.0049900
 Cl        1.2524060    -1.4463410     0.9876250
  O        0.2860860     0.0000070    -0.9984750
  C       -1.0473080     0.0000040    -0.5388570
  C       -1.7060310    -1.2192040    -0.3956300
  C       -1.7060400     1.2192100    -0.3956360
  C       -3.0551880    -1.2099090    -0.0381990
  C       -3.0551940     1.2099130    -0.0382080
  C       -3.7295220    -0.0000010     0.1434410
  C        1.2953470    -0.0000010    -0.0639540
  H       -1.1690490    -2.1465760    -0.5644520
  H       -1.1690510     2.1465770    -0.5644670
  H       -3.5827340    -2.1524420     0.0828180
  H       -3.5827470     2.1524420     0.0828000
  H       -4.7808520    -0.0000040     0.4187920
units angstrom
no_reorient  #important for SAPT in psi4, default
symmetry c1  #important for SAPT in psi4, default
}

set PROPERTIES_ORIGIN ["COM"]
properties('MP2/aug-cc-pvtz', properties = ['dipole'])
--------------------------------------------------------------------------

    Molecular point group: c1
  Charge       = 0
  Multiplicity = 1
  Basis Set: AUG-CC-PVTZ
    Blend: AUG-CC-PVTZ
  Basis Set: (AUG-CC-PVTZ AUX)
    Blend: AUG-CC-PVTZ-JKFIT

    Orbital Energies [Eh]
    ---------------------

    Doubly Occupied:

       1A   -104.865214     2A   -104.865100     3A   -104.860620
       4A    -20.626201     5A    -11.494870     6A    -11.314744
       7A    -11.253419     8A    -11.253055     9A    -11.252167
      10A    -11.251830    11A    -11.249761    12A    -10.589667
      13A    -10.589565    14A    -10.585529    15A     -8.056387
      16A     -8.056357    17A     -8.054296    18A     -8.054273
      19A     -8.054133    20A     -8.054127    21A     -8.052221
      22A     -8.050161    23A     -8.050129    24A     -1.468326
      25A     -1.215592    26A     -1.161889    27A     -1.117639
      28A     -1.115945    29A     -1.033859    30A     -1.027603
      31A     -0.883988    32A     -0.852600    33A     -0.806361
      34A     -0.732362    35A     -0.697441    36A     -0.695737
      37A     -0.687155    38A     -0.635554    39A     -0.629380
      40A     -0.606708    41A     -0.580412    42A     -0.537367
      43A     -0.533798    44A     -0.516875    45A     -0.511400
      46A     -0.495049    47A     -0.491537    48A     -0.480374
      49A     -0.463210    50A     -0.461740    51A     -0.450801
      52A     -0.351486    53A     -0.348455

  @DF-RHF Final Energy: -1721.48375307995570

   => Energetics <=

    Nuclear Repulsion Energy =            896.8716625027184364
    One-Electron Energy =               -4156.4618859093070569
    Two-Electron Energy =                1538.1064703266331435
    Total Energy =                      -1721.4837530799557044
  Basis Set: (AUG-CC-PVTZ AUX)
    Blend: AUG-CC-PVTZ-RI
    Molecular point group: c1

    Geometry (in Angstrom), charge = 0, multiplicity = 1:

       Center              X                  Y                   Z               Mass
    ------------   -----------------  -----------------  -----------------  -----------------
         CL           1.035427619350     1.491789396764     0.899050336496    34.968852682000
         CL           2.723478319350    -0.009089303236    -0.995775463504    34.968852682000
         CL           1.185462319350    -1.455424303236     0.996839536496    34.968852682000
         O            0.219142319350    -0.009076303236    -0.989260463504    15.994914619570
         C           -1.114251680650    -0.009079303236    -0.529642463504    12.000000000000
         C           -1.772974680650    -1.228287303236    -0.386415463504    12.000000000000
         C           -1.772983680650     1.210126696764    -0.386421463504    12.000000000000
         C           -3.122131680650    -1.218992303236    -0.028984463504    12.000000000000
         C           -3.122137680650     1.200829696764    -0.028993463504    12.000000000000
         C           -3.796465680650    -0.009084303236     0.152655536496    12.000000000000
         C            1.228403319350    -0.009084303236    -0.054739463504    12.000000000000
         H           -1.235992680650    -2.155659303236    -0.555237463504     1.007825032230
         H           -1.235994680650     2.137493696764    -0.555252463504     1.007825032230
         H           -3.649677680650    -2.161525303236     0.092032536496     1.007825032230
         H           -3.649690680650     2.143358696764     0.092014536496     1.007825032230
         H           -4.847795680650    -0.009087303236     0.428006536496     1.007825032230

  Basis Set: AUG-CC-PVTZ
    Blend: AUG-CC-PVTZ
  Basis Set: (AUG-CC-PVTZ AUX)
    Blend: AUG-CC-PVTZ-JKFIT
	 Reference Energy          =   -1721.4837530799557044 [Eh]
	 Singles Energy            =      -0.0000000000000000 [Eh]
	 Same-Spin Energy          =      -0.5632145725626980 [Eh]
	 Opposite-Spin Energy      =      -1.6474882194432046 [Eh]
	 Correlation Energy        =      -2.2107027920059026 [Eh]
	 Total Energy              =   -1723.6944558719615088 [Eh]

	 ================> DF-SCS-MP2 Energies <==================
	-----------------------------------------------------------
	 SCS Same-Spin Scale       =       0.3333333333333333 [-]
	 SCS Opposite-Spin Scale   =       1.2000000000000000 [-]
	 SCS Same-Spin Energy      =      -0.1877381908542327 [Eh]
	 SCS Opposite-Spin Energy  =      -1.9769858633318453 [Eh]
	 SCS Correlation Energy    =      -2.1647240541860779 [Eh]
	 SCS Total Energy          =   -1723.6484771341417854 [Eh]
	-----------------------------------------------------------

  Dipole Moment: [D]
     X:    -2.0711      Y:    -0.0589      Z:     0.2525     Total:     2.0873

*** Psi4 exiting successfully. Buy a developer a beer!
