                               Psi4 1.3.2 release

  ==> Input File <==

--------------------------------------------------------------------------
#psi4
#
memory 32 gb

molecule  {
0 1
 Cl        1.2022754     1.4663108     0.9562637
 Cl        2.7904220    -0.0000060    -1.0049900
 Cl        1.2524060    -1.4463410     0.9876250
  O        0.2860860     0.0000070    -0.9984750
  C       -1.0473080     0.0000040    -0.5388570
  C       -1.7060310    -1.2192040    -0.3956300
  C       -1.7060400     1.2192100    -0.3956360
  C       -3.0551880    -1.2099090    -0.0381990
  C       -3.0551940     1.2099130    -0.0382080
  C       -3.7295220    -0.0000010     0.1434410
  C        1.2953470    -0.0000010    -0.0639540
  H       -1.1690490    -2.1465760    -0.5644520
  H       -1.1690510     2.1465770    -0.5644670
  H       -3.5827340    -2.1524420     0.0828180
  H       -3.5827470     2.1524420     0.0828000
  H       -4.7808520    -0.0000040     0.4187920
units angstrom
no_reorient  #important for SAPT in psi4, default
symmetry c1  #important for SAPT in psi4, default
}

set PROPERTIES_ORIGIN ["COM"]
properties('MP2/aug-cc-pvtz', properties = ['dipole'])
--------------------------------------------------------------------------

    Molecular point group: c1
  Charge       = 0
  Multiplicity = 1
  Basis Set: AUG-CC-PVTZ
    Blend: AUG-CC-PVTZ
  Basis Set: (AUG-CC-PVTZ AUX)
    Blend: AUG-CC-PVTZ-JKFIT

    Orbital Energies [Eh]
    ---------------------

    Doubly Occupied:

       1A   -104.863332     2A   -104.863071     3A   -104.861650
       4A    -20.629609     5A    -11.494821     6A    -11.315900
       7A    -11.254163     8A    -11.254041     9A    -11.252986
      10A    -11.252766    11A    -11.250486    12A    -10.587910
      13A    -10.587672    14A    -10.586381    15A     -8.054699
      16A     -8.054387    17A     -8.053090    18A     -8.052477
      19A     -8.052475    20A     -8.052300    21A     -8.052279
      22A     -8.051013    23A     -8.050991    24A     -1.468863
      25A     -1.217634    26A     -1.162850    27A     -1.116262
      28A     -1.113935    29A     -1.034666    30A     -1.028348
      31A     -0.884893    32A     -0.853349    33A     -0.806813
      34A     -0.733791    35A     -0.697389    36A     -0.695710
      37A     -0.687319    38A     -0.635239    39A     -0.630358
      40A     -0.607044    41A     -0.581333    42A     -0.538014
      43A     -0.534743    44A     -0.517188    45A     -0.510949
      46A     -0.497265    47A     -0.492143    48A     -0.480723
      49A     -0.461494    50A     -0.460662    51A     -0.448680
      52A     -0.352413    53A     -0.349704

  @DF-RHF Final Energy: -1721.48719226119624

   => Energetics <=

    Nuclear Repulsion Energy =            895.1533246056172857
    One-Electron Energy =               -4153.0244842611218701
    Two-Electron Energy =                1536.3839673943082289
    Total Energy =                      -1721.4871922611962418
  Basis Set: (AUG-CC-PVTZ AUX)
    Blend: AUG-CC-PVTZ-RI
    Molecular point group: c1

    Geometry (in Angstrom), charge = 0, multiplicity = 1:

       Center              X                  Y                   Z               Mass
    ------------   -----------------  -----------------  -----------------  -----------------
         CL           1.118691146771     1.462984315607     0.954413642639    34.968852682000
         CL           2.706837746771    -0.003332484393    -1.006840057361    34.968852682000
         CL           1.168821746771    -1.449667484393     0.985774942639    34.968852682000
         O            0.202501746771    -0.003319484393    -1.000325057361    15.994914619570
         C           -1.130892253229    -0.003322484393    -0.540707057361    12.000000000000
         C           -1.789615253229    -1.222530484393    -0.397480057361    12.000000000000
         C           -1.789624253229     1.215883515607    -0.397486057361    12.000000000000
         C           -3.138772253229    -1.213235484393    -0.040049057361    12.000000000000
         C           -3.138778253229     1.206586515607    -0.040058057361    12.000000000000
         C           -3.813106253229    -0.003327484393     0.141590942639    12.000000000000
         C            1.211762746771    -0.003327484393    -0.065804057361    12.000000000000
         H           -1.252633253229    -2.149902484393    -0.566302057361     1.007825032230
         H           -1.252635253229     2.143250515607    -0.566317057361     1.007825032230
         H           -3.666318253229    -2.155768484393     0.080967942639     1.007825032230
         H           -3.666331253229     2.149115515607     0.080949942639     1.007825032230
         H           -4.864436253229    -0.003330484393     0.416941942639     1.007825032230

  Basis Set: AUG-CC-PVTZ
    Blend: AUG-CC-PVTZ
  Basis Set: (AUG-CC-PVTZ AUX)
    Blend: AUG-CC-PVTZ-JKFIT
	 Reference Energy          =   -1721.4871922611962418 [Eh]
	 Singles Energy            =      -0.0000000000000000 [Eh]
	 Same-Spin Energy          =      -0.5628087737279699 [Eh]
	 Opposite-Spin Energy      =      -1.6468386161163702 [Eh]
	 Correlation Energy        =      -2.2096473898443403 [Eh]
	 Total Energy              =   -1723.6968396510405910 [Eh]

	 ================> DF-SCS-MP2 Energies <==================
	-----------------------------------------------------------
	 SCS Same-Spin Scale       =       0.3333333333333333 [-]
	 SCS Opposite-Spin Scale   =       1.2000000000000000 [-]
	 SCS Same-Spin Energy      =      -0.1876029245759900 [Eh]
	 SCS Opposite-Spin Energy  =      -1.9762063393396441 [Eh]
	 SCS Correlation Energy    =      -2.1638092639156339 [Eh]
	 SCS Total Energy          =   -1723.6510015251119512 [Eh]
	-----------------------------------------------------------

  Dipole Moment: [D]
     X:    -2.1690      Y:    -0.0187      Z:     0.2443     Total:     2.1828

*** Psi4 exiting successfully. Buy a developer a beer!
