                               Psi4 1.4a3.dev225

  ==> Input File <==

--------------------------------------------------------------------------
#psi4
#
memory 32 gb

molecule  {
0 1
 Cl        1.2524280     1.4463390     0.9876330
 Cl        2.7904220    -0.0000060    -1.0049900
 Cl        1.2524060    -1.4463410     0.9876250
  O        0.2860860     0.0000070    -0.9984750
  C       -1.0473080     0.0000040    -0.5388570
  C       -1.7060310    -1.2192040    -0.3956300
  C       -1.7060400     1.2192100    -0.3956360
  C       -3.0551880    -1.2099090    -0.0381990
  C       -3.0551940     1.2099130    -0.0382080
  C       -3.7295220    -0.0000010     0.1434410
  C        1.3100221    -0.0000011    -0.0503657
  H       -1.1690490    -2.1465760    -0.5644520
  H       -1.1690510     2.1465770    -0.5644670
  H       -3.5827340    -2.1524420     0.0828180
  H       -3.5827470     2.1524420     0.0828000
  H       -4.7808520    -0.0000040     0.4187920
units angstrom
no_reorient  #important for SAPT in psi4, default
symmetry c1  #important for SAPT in psi4, default
}

set PROPERTIES_ORIGIN ["COM"]
properties('MP2/aug-cc-pvtz', properties = ['dipole'])
--------------------------------------------------------------------------

    Molecular point group: c1
  Charge       = 0
  Multiplicity = 1
  Basis Set: AUG-CC-PVTZ
    Blend: AUG-CC-PVTZ
  Basis Set: (AUG-CC-PVTZ AUX)
    Blend: AUG-CC-PVTZ-JKFIT

    Orbital Energies [Eh]
    ---------------------

    Doubly Occupied:

       1A   -104.863565     2A   -104.863565     3A   -104.863402
       4A    -20.628124     5A    -11.494369     6A    -11.314699
       7A    -11.253496     8A    -11.253424     9A    -11.252347
      10A    -11.252187    11A    -11.249894    12A    -10.588301
      13A    -10.588291    14A    -10.588085    15A     -8.055024
      16A     -8.055024    17A     -8.054885    18A     -8.052918
      19A     -8.052916    20A     -8.052896    21A     -8.052895
      22A     -8.052649    23A     -8.052647    24A     -1.460104
      25A     -1.221303    26A     -1.162134    27A     -1.117632
      28A     -1.115237    29A     -1.034063    30A     -1.026385
      31A     -0.881586    32A     -0.852501    33A     -0.806666
      34A     -0.732752    35A     -0.695995    36A     -0.692812
      37A     -0.684359    38A     -0.635268    39A     -0.630094
      40A     -0.606394    41A     -0.583721    42A     -0.538165
      43A     -0.534487    44A     -0.516434    45A     -0.510533
      46A     -0.497636    47A     -0.493014    48A     -0.481807
      49A     -0.462018    50A     -0.460911    51A     -0.448810
      52A     -0.352017    53A     -0.348879

  @DF-RHF Final Energy: -1721.48685408294091

   => Energetics <=

    Nuclear Repulsion Energy =            894.3420670328008555
    One-Electron Energy =               -4151.4192052854941721
    Two-Electron Energy =                1535.5902841697522945
    Total Energy =                      -1721.4868540829409085
  Basis Set: (AUG-CC-PVTZ AUX)
    Blend: AUG-CC-PVTZ-RI
    Molecular point group: c1

    Geometry (in Angstrom), charge = 0, multiplicity = 1:

       Center              X                  Y                   Z               Mass
    ------------   -----------------  -----------------  -----------------  -----------------
         CL           1.159651241363     1.446339133418     0.979781206703    34.968852682000
         CL           2.697645241363    -0.000005866582    -1.012841793297    34.968852682000
         CL           1.159629241363    -1.446340866582     0.979773206703    34.968852682000
         O            0.193309241363     0.000007133418    -1.006326793297    15.994914619570
         C           -1.140084758637     0.000004133418    -0.546708793297    12.000000000000
         C           -1.798807758637    -1.219203866582    -0.403481793297    12.000000000000
         C           -1.798816758637     1.219210133418    -0.403487793297    12.000000000000
         C           -3.147964758637    -1.209908866582    -0.046050793297    12.000000000000
         C           -3.147970758637     1.209913133418    -0.046059793297    12.000000000000
         C           -3.822298758637    -0.000000866582     0.135589206703    12.000000000000
         C            1.217245341363    -0.000000966582    -0.058217493297    12.000000000000
         H           -1.261825758637    -2.146575866582    -0.572303793297     1.007825032230
         H           -1.261827758637     2.146577133418    -0.572318793297     1.007825032230
         H           -3.675510758637    -2.152441866582     0.074966206703     1.007825032230
         H           -3.675523758637     2.152442133418     0.074948206703     1.007825032230
         H           -4.873628758637    -0.000003866582     0.410940206703     1.007825032230

  Basis Set: AUG-CC-PVTZ
    Blend: AUG-CC-PVTZ
  Basis Set: (AUG-CC-PVTZ AUX)
    Blend: AUG-CC-PVTZ-JKFIT
	 Reference Energy          =   -1721.4868540829409085 [Eh]
	 Singles Energy            =      -0.0000000000000000 [Eh]
	 Same-Spin Energy          =      -0.5627956493089579 [Eh]
	 Opposite-Spin Energy      =      -1.6469454133590338 [Eh]
	 Correlation Energy        =      -2.2097410626679919 [Eh]
	 Total Energy              =   -1723.6965951456088533 [Eh]

	 ================> DF-SCS-MP2 Energies <==================
	-----------------------------------------------------------
	 SCS Same-Spin Scale       =       0.3333333333333333 [-]
	 SCS Opposite-Spin Scale   =       1.2000000000000000 [-]
	 SCS Same-Spin Energy      =      -0.1875985497696526 [Eh]
	 SCS Opposite-Spin Energy  =      -1.9763344960308404 [Eh]
	 SCS Correlation Energy    =      -2.1639330458004928 [Eh]
	 SCS Total Energy          =   -1723.6507871287415128 [Eh]
	-----------------------------------------------------------

  Dipole Moment: [D]
     X:    -2.0796      Y:    -0.0000      Z:     0.3140     Total:     2.1032

*** Psi4 exiting successfully. Buy a developer a beer!
