                               Psi4 1.3.2 release

  ==> Input File <==

--------------------------------------------------------------------------
#psi4
#
memory 32 gb

molecule  {
0 1
 Cl        1.2524280     1.4463390     0.9876330
 Cl        2.7904220    -0.0000060    -1.0049900
 Cl        1.2524060    -1.4463410     0.9876250
  O        0.2860860     0.0000070    -0.9984750
  C       -1.2363902     0.0000036    -0.4736808
  C       -1.7060310    -1.2192040    -0.3956300
  C       -1.7060400     1.2192100    -0.3956360
  C       -3.0551880    -1.2099090    -0.0381990
  C       -3.0551940     1.2099130    -0.0382080
  C       -3.7295220    -0.0000010     0.1434410
  C        1.2953470    -0.0000010    -0.0639540
  H       -1.1690490    -2.1465760    -0.5644520
  H       -1.1690510     2.1465770    -0.5644670
  H       -3.5827340    -2.1524420     0.0828180
  H       -3.5827470     2.1524420     0.0828000
  H       -4.7808520    -0.0000040     0.4187920
units angstrom
no_reorient  #important for SAPT in psi4, default
symmetry c1  #important for SAPT in psi4, default
}

set PROPERTIES_ORIGIN ["COM"]
properties('MP2/aug-cc-pvtz', properties = ['dipole'])
--------------------------------------------------------------------------

    Molecular point group: c1
  Charge       = 0
  Multiplicity = 1
  Basis Set: AUG-CC-PVTZ
    Blend: AUG-CC-PVTZ
  Basis Set: (AUG-CC-PVTZ AUX)
    Blend: AUG-CC-PVTZ-JKFIT

    Orbital Energies [Eh]
    ---------------------

    Doubly Occupied:

       1A   -104.852121     2A   -104.852120     3A   -104.850529
       4A    -20.600195     5A    -11.479407     6A    -11.319961
       7A    -11.264703     8A    -11.264612     9A    -11.257717
      10A    -11.257276    11A    -11.257221    12A    -10.577026
      13A    -10.577016    14A    -10.575330    15A     -8.043729
      16A     -8.043728    17A     -8.042105    18A     -8.041700
      19A     -8.041698    20A     -8.041685    21A     -8.041684
      22A     -8.039924    23A     -8.039919    24A     -1.412466
      25A     -1.213743    26A     -1.183146    27A     -1.104723
      28A     -1.103378    29A     -1.062393    30A     -1.041058
      31A     -0.872255    32A     -0.855483    33A     -0.808106
      34A     -0.733296    35A     -0.683913    36A     -0.681100
      37A     -0.662549    38A     -0.655672    39A     -0.636424
      40A     -0.621772    41A     -0.571080    42A     -0.547422
      43A     -0.541351    44A     -0.517522    45A     -0.512572
      46A     -0.486748    47A     -0.470970    48A     -0.469176
      49A     -0.451139    50A     -0.449667    51A     -0.438441
      52A     -0.372607    53A     -0.366326

  @DF-RHF Final Energy: -1721.44875834577874

   => Energetics <=

    Nuclear Repulsion Energy =            893.4076585037944369
    One-Electron Energy =               -4149.9370254235745961
    Two-Electron Energy =                1535.0806085740011895
    Total Energy =                      -1721.4487583457787423
  Basis Set: (AUG-CC-PVTZ AUX)
    Blend: AUG-CC-PVTZ-RI
    Molecular point group: c1

    Geometry (in Angstrom), charge = 0, multiplicity = 1:

       Center              X                  Y                   Z               Mass
    ------------   -----------------  -----------------  -----------------  -----------------
         CL           1.171297810084     1.446339150566     0.976832492608    34.968852682000
         CL           2.709291810084    -0.000005849434    -1.015790507392    34.968852682000
         CL           1.171275810084    -1.446340849434     0.976824492608    34.968852682000
         O            0.204955810084     0.000007150566    -1.009275507392    15.994914619570
         C           -1.317520389916     0.000003750566    -0.484481307392    12.000000000000
         C           -1.787161189916    -1.219203849434    -0.406430507392    12.000000000000
         C           -1.787170189916     1.219210150566    -0.406436507392    12.000000000000
         C           -3.136318189916    -1.209908849434    -0.048999507392    12.000000000000
         C           -3.136324189916     1.209913150566    -0.049008507392    12.000000000000
         C           -3.810652189916    -0.000000849434     0.132640492608    12.000000000000
         C            1.214216810084    -0.000000849434    -0.074754507392    12.000000000000
         H           -1.250179189916    -2.146575849434    -0.575252507392     1.007825032230
         H           -1.250181189916     2.146577150566    -0.575267507392     1.007825032230
         H           -3.663864189916    -2.152441849434     0.072017492608     1.007825032230
         H           -3.663877189916     2.152442150566     0.071999492608     1.007825032230
         H           -4.861982189916    -0.000003849434     0.407991492608     1.007825032230

  Basis Set: AUG-CC-PVTZ
    Blend: AUG-CC-PVTZ
  Basis Set: (AUG-CC-PVTZ AUX)
    Blend: AUG-CC-PVTZ-JKFIT
	 Reference Energy          =   -1721.4487583457787423 [Eh]
	 Singles Energy            =      -0.0000000000000000 [Eh]
	 Same-Spin Energy          =      -0.5641697698198458 [Eh]
	 Opposite-Spin Energy      =      -1.6493760374990578 [Eh]
	 Correlation Energy        =      -2.2135458073189036 [Eh]
	 Total Energy              =   -1723.6623041530976934 [Eh]

	 ================> DF-SCS-MP2 Energies <==================
	-----------------------------------------------------------
	 SCS Same-Spin Scale       =       0.3333333333333333 [-]
	 SCS Opposite-Spin Scale   =       1.2000000000000000 [-]
	 SCS Same-Spin Energy      =      -0.1880565899399486 [Eh]
	 SCS Opposite-Spin Energy  =      -1.9792512449988693 [Eh]
	 SCS Correlation Energy    =      -2.1673078349388177 [Eh]
	 SCS Total Energy          =   -1723.6160661807175529 [Eh]
	-----------------------------------------------------------

  Dipole Moment: [D]
     X:    -3.4534      Y:    -0.0000      Z:     0.2290     Total:     3.4610

*** Psi4 exiting successfully. Buy a developer a beer!
