                               Psi4 1.3.2 release

  ==> Input File <==

--------------------------------------------------------------------------
#psi4
#
memory 32 gb

molecule  {
0 1
 Cl        1.2524280     1.4463390     0.9876330
 Cl        2.7904220    -0.0000060    -1.0049900
 Cl        1.2524060    -1.4463410     0.9876250
  O        0.2756653    -0.1471080    -1.0049987
  C       -1.0473080     0.0000040    -0.5388570
  C       -1.7060310    -1.2192040    -0.3956300
  C       -1.7060400     1.2192100    -0.3956360
  C       -3.0551880    -1.2099090    -0.0381990
  C       -3.0551940     1.2099130    -0.0382080
  C       -3.7295220    -0.0000010     0.1434410
  C        1.2953470    -0.0000010    -0.0639540
  H       -1.1690490    -2.1465760    -0.5644520
  H       -1.1690510     2.1465770    -0.5644670
  H       -3.5827340    -2.1524420     0.0828180
  H       -3.5827470     2.1524420     0.0828000
  H       -4.7808520    -0.0000040     0.4187920
units angstrom
no_reorient  #important for SAPT in psi4, default
symmetry c1  #important for SAPT in psi4, default
}

set PROPERTIES_ORIGIN ["COM"]
properties('MP2/aug-cc-pvtz', properties = ['dipole'])
--------------------------------------------------------------------------

    Molecular point group: c1
  Charge       = 0
  Multiplicity = 1
  Basis Set: AUG-CC-PVTZ
    Blend: AUG-CC-PVTZ
  Basis Set: (AUG-CC-PVTZ AUX)
    Blend: AUG-CC-PVTZ-JKFIT

    Orbital Energies [Eh]
    ---------------------

    Doubly Occupied:

       1A   -104.869473     2A   -104.863351     3A   -104.857206
       4A    -20.631213     5A    -11.495611     6A    -11.315174
       7A    -11.256425     8A    -11.254201     9A    -11.252013
      10A    -11.250139    11A    -11.249711    12A    -10.593728
      13A    -10.587930    14A    -10.582151    15A     -8.060445
      16A     -8.058337    17A     -8.058303    18A     -8.054718
      19A     -8.052500    20A     -8.052494    21A     -8.048855
      22A     -8.046776    23A     -8.046760    24A     -1.462410
      25A     -1.219859    26A     -1.162483    27A     -1.117400
      28A     -1.111965    29A     -1.034429    30A     -1.026688
      31A     -0.882501    32A     -0.852138    33A     -0.807126
      34A     -0.733185    35A     -0.697320    36A     -0.691609
      37A     -0.684887    38A     -0.634413    39A     -0.629096
      40A     -0.606644    41A     -0.583148    42A     -0.539601
      43A     -0.534549    44A     -0.516815    45A     -0.511933
      46A     -0.499515    47A     -0.493497    48A     -0.478681
      49A     -0.462448    50A     -0.458391    51A     -0.447989
      52A     -0.352369    53A     -0.348788

  @DF-RHF Final Energy: -1721.48180325006729

   => Energetics <=

    Nuclear Repulsion Energy =            893.8982841968406774
    One-Electron Energy =               -4150.5213994955665839
    Two-Electron Energy =                1535.1413120486583921
    Total Energy =                      -1721.4818032500672871
  Basis Set: (AUG-CC-PVTZ AUX)
    Blend: AUG-CC-PVTZ-RI
    Molecular point group: c1

    Geometry (in Angstrom), charge = 0, multiplicity = 1:

       Center              X                  Y                   Z               Mass
    ------------   -----------------  -----------------  -----------------  -----------------
         CL           1.161283986103     1.457547497539     0.981054927114    34.968852682000
         CL           2.699277986103     0.011202497539    -1.011568072886    34.968852682000
         CL           1.161261986103    -1.435132502461     0.981046927114    34.968852682000
         O            0.184521286103    -0.135899502461    -1.011576772886    15.994914619570
         C           -1.138452013897     0.011212497539    -0.545435072886    12.000000000000
         C           -1.797175013897    -1.207995502461    -0.402208072886    12.000000000000
         C           -1.797184013897     1.230418497539    -0.402214072886    12.000000000000
         C           -3.146332013897    -1.198700502461    -0.044777072886    12.000000000000
         C           -3.146338013897     1.221121497539    -0.044786072886    12.000000000000
         C           -3.820666013897     0.011207497539     0.136862927114    12.000000000000
         C            1.204202986103     0.011207497539    -0.070532072886    12.000000000000
         H           -1.260193013897    -2.135367502461    -0.571030072886     1.007825032230
         H           -1.260195013897     2.157785497539    -0.571045072886     1.007825032230
         H           -3.673878013897    -2.141233502461     0.076239927114     1.007825032230
         H           -3.673891013897     2.163650497539     0.076221927114     1.007825032230
         H           -4.871996013897     0.011204497539     0.412213927114     1.007825032230

  Basis Set: AUG-CC-PVTZ
    Blend: AUG-CC-PVTZ
  Basis Set: (AUG-CC-PVTZ AUX)
    Blend: AUG-CC-PVTZ-JKFIT
	 Reference Energy          =   -1721.4818032500672871 [Eh]
	 Singles Energy            =      -0.0000000000000000 [Eh]
	 Same-Spin Energy          =      -0.5629852532223382 [Eh]
	 Opposite-Spin Energy      =      -1.6476445895996052 [Eh]
	 Correlation Energy        =      -2.2106298428219433 [Eh]
	 Total Energy              =   -1723.6924330928891322 [Eh]

	 ================> DF-SCS-MP2 Energies <==================
	-----------------------------------------------------------
	 SCS Same-Spin Scale       =       0.3333333333333333 [-]
	 SCS Opposite-Spin Scale   =       1.2000000000000000 [-]
	 SCS Same-Spin Energy      =      -0.1876617510741127 [Eh]
	 SCS Opposite-Spin Energy  =      -1.9771735075195263 [Eh]
	 SCS Correlation Energy    =      -2.1648352585936390 [Eh]
	 SCS Total Energy          =   -1723.6466385086609989 [Eh]
	-----------------------------------------------------------

  Dipole Moment: [D]
     X:    -2.1031      Y:     0.3004      Z:     0.2798     Total:     2.1428

*** Psi4 exiting successfully. Buy a developer a beer!
