                               Psi4 1.3.2 release

  ==> Input File <==

--------------------------------------------------------------------------
#psi4
#
memory 32 gb

molecule  {
0 1
 Cl        1.2524280     1.4463390     0.9876330
 Cl        2.7904220    -0.0000060    -1.0049900
 Cl        1.2524060    -1.4463410     0.9876250
  O        0.2860860     0.0000070    -0.9984750
  C       -1.1418491     0.0000038    -0.5062689
  C       -1.7060310    -1.2192040    -0.3956300
  C       -1.7060400     1.2192100    -0.3956360
  C       -3.0551880    -1.2099090    -0.0381990
  C       -3.0551940     1.2099130    -0.0382080
  C       -3.7295220    -0.0000010     0.1434410
  C        1.2953470    -0.0000010    -0.0639540
  H       -1.1690490    -2.1465760    -0.5644520
  H       -1.1690510     2.1465770    -0.5644670
  H       -3.5827340    -2.1524420     0.0828180
  H       -3.5827470     2.1524420     0.0828000
  H       -4.7808520    -0.0000040     0.4187920
units angstrom
no_reorient  #important for SAPT in psi4, default
symmetry c1  #important for SAPT in psi4, default
}

set PROPERTIES_ORIGIN ["COM"]
properties('MP2/aug-cc-pvtz', properties = ['dipole'])
--------------------------------------------------------------------------

    Molecular point group: c1
  Charge       = 0
  Multiplicity = 1
  Basis Set: AUG-CC-PVTZ
    Blend: AUG-CC-PVTZ
  Basis Set: (AUG-CC-PVTZ AUX)
    Blend: AUG-CC-PVTZ-JKFIT

    Orbital Energies [Eh]
    ---------------------

    Doubly Occupied:

       1A   -104.857238     2A   -104.857237     3A   -104.856979
       4A    -20.617501     5A    -11.487503     6A    -11.316388
       7A    -11.258691     8A    -11.258549     9A    -11.254823
      10A    -11.254823    11A    -11.254057    12A    -10.582033
      13A    -10.582023    14A    -10.581685    15A     -8.048738
      16A     -8.048738    17A     -8.048468    18A     -8.046681
      19A     -8.046679    20A     -8.046663    21A     -8.046662
      22A     -8.046265    23A     -8.046262    24A     -1.438472
      25A     -1.211567    26A     -1.176562    27A     -1.110567
      28A     -1.108199    29A     -1.047181    30A     -1.035096
      31A     -0.867794    32A     -0.862712    33A     -0.808308
      34A     -0.731023    35A     -0.690650    36A     -0.686352
      37A     -0.674725    38A     -0.645101    39A     -0.634375
      40A     -0.616558    41A     -0.574069    42A     -0.535227
      43A     -0.534730    44A     -0.524904    45A     -0.516919
      46A     -0.492993    47A     -0.483579    48A     -0.477109
      49A     -0.455810    50A     -0.455784    51A     -0.443242
      52A     -0.362112    53A     -0.358984

  @DF-RHF Final Energy: -1721.47693015589994

   => Energetics <=

    Nuclear Repulsion Energy =            893.8359086996933911
    One-Electron Energy =               -4150.6148940881394083
    Two-Electron Energy =                1535.3020552325460812
    Total Energy =                      -1721.4769301558999359
  Basis Set: (AUG-CC-PVTZ AUX)
    Blend: AUG-CC-PVTZ-RI
    Molecular point group: c1

    Geometry (in Angstrom), charge = 0, multiplicity = 1:

       Center              X                  Y                   Z               Mass
    ------------   -----------------  -----------------  -----------------  -----------------
         CL           1.165893932932     1.446339139134     0.978695196649    34.968852682000
         CL           2.703887932932    -0.000005860866    -1.013927803351    34.968852682000
         CL           1.165871932932    -1.446340860866     0.978687196649    34.968852682000
         O            0.199551932932     0.000007139134    -1.007412803351    15.994914619570
         C           -1.228383167068     0.000003939134    -0.515206703351    12.000000000000
         C           -1.792565067068    -1.219203860866    -0.404567803351    12.000000000000
         C           -1.792574067068     1.219210139134    -0.404573803351    12.000000000000
         C           -3.141722067068    -1.209908860866    -0.047136803351    12.000000000000
         C           -3.141728067068     1.209913139134    -0.047145803351    12.000000000000
         C           -3.816056067068    -0.000000860866     0.134503196649    12.000000000000
         C            1.208812932932    -0.000000860866    -0.072891803351    12.000000000000
         H           -1.255583067068    -2.146575860866    -0.573389803351     1.007825032230
         H           -1.255585067068     2.146577139134    -0.573404803351     1.007825032230
         H           -3.669268067068    -2.152441860866     0.073880196649     1.007825032230
         H           -3.669281067068     2.152442139134     0.073862196649     1.007825032230
         H           -4.867386067068    -0.000003860866     0.409854196649     1.007825032230

  Basis Set: AUG-CC-PVTZ
    Blend: AUG-CC-PVTZ
  Basis Set: (AUG-CC-PVTZ AUX)
    Blend: AUG-CC-PVTZ-JKFIT
	 Reference Energy          =   -1721.4769301558999359 [Eh]
	 Singles Energy            =      -0.0000000000000000 [Eh]
	 Same-Spin Energy          =      -0.5629752723344853 [Eh]
	 Opposite-Spin Energy      =      -1.6474088975837908 [Eh]
	 Correlation Energy        =      -2.2103841699182762 [Eh]
	 Total Energy              =   -1723.6873143258183063 [Eh]

	 ================> DF-SCS-MP2 Energies <==================
	-----------------------------------------------------------
	 SCS Same-Spin Scale       =       0.3333333333333333 [-]
	 SCS Opposite-Spin Scale   =       1.2000000000000000 [-]
	 SCS Same-Spin Energy      =      -0.1876584241114951 [Eh]
	 SCS Opposite-Spin Energy  =      -1.9768906771005490 [Eh]
	 SCS Correlation Energy    =      -2.1645491012120441 [Eh]
	 SCS Total Energy          =   -1723.6414792571119960 [Eh]
	-----------------------------------------------------------

  Dipole Moment: [D]
     X:    -2.8124      Y:    -0.0000      Z:     0.2335     Total:     2.8221

*** Psi4 exiting successfully. Buy a developer a beer!
