                               Psi4 1.3.2 release

  ==> Input File <==

--------------------------------------------------------------------------
#psi4
#
memory 32 gb

molecule  {
0 1
 Cl        1.2524280     1.4463390     0.9876330
 Cl        2.7904220    -0.0000060    -1.0049900
 Cl        1.2524060    -1.4463410     0.9876250
  O        0.2860860     0.0000070    -0.9984750
  C       -1.0304553     0.0000036    -0.4926022
  C       -1.7060310    -1.2192040    -0.3956300
  C       -1.7060400     1.2192100    -0.3956360
  C       -3.0551880    -1.2099090    -0.0381990
  C       -3.0551940     1.2099130    -0.0382080
  C       -3.7295220    -0.0000010     0.1434410
  C        1.2953470    -0.0000010    -0.0639540
  H       -1.1690490    -2.1465760    -0.5644520
  H       -1.1690510     2.1465770    -0.5644670
  H       -3.5827340    -2.1524420     0.0828180
  H       -3.5827470     2.1524420     0.0828000
  H       -4.7808520    -0.0000040     0.4187920
units angstrom
no_reorient  #important for SAPT in psi4, default
symmetry c1  #important for SAPT in psi4, default
}

set PROPERTIES_ORIGIN ["COM"]
properties('MP2/aug-cc-pvtz', properties = ['dipole'])
--------------------------------------------------------------------------

    Molecular point group: c1
  Charge       = 0
  Multiplicity = 1
  Basis Set: AUG-CC-PVTZ
    Blend: AUG-CC-PVTZ
  Basis Set: (AUG-CC-PVTZ AUX)
    Blend: AUG-CC-PVTZ-JKFIT

    Orbital Energies [Eh]
    ---------------------

    Doubly Occupied:

       1A   -104.862275     2A   -104.862148     3A   -104.862147
       4A    -20.632995     5A    -11.494264     6A    -11.316139
       7A    -11.255008     8A    -11.254996     9A    -11.253409
      10A    -11.253083    11A    -11.251116    12A    -10.586924
      13A    -10.586838    14A    -10.586828    15A     -8.053712
      16A     -8.053544    17A     -8.053544    18A     -8.051495
      19A     -8.051492    20A     -8.051461    21A     -8.051459
      22A     -8.051438    23A     -8.051437    24A     -1.471057
      25A     -1.218429    26A     -1.162677    27A     -1.115858
      28A     -1.112974    29A     -1.034528    30A     -1.027991
      31A     -0.884024    32A     -0.852933    33A     -0.807248
      34A     -0.734547    35A     -0.697480    36A     -0.696106
      37A     -0.688545    38A     -0.634429    39A     -0.630683
      40A     -0.606867    41A     -0.582402    42A     -0.538690
      43A     -0.535108    44A     -0.517082    45A     -0.509744
      46A     -0.498603    47A     -0.493070    48A     -0.481406
      49A     -0.460535    50A     -0.459931    51A     -0.447578
      52A     -0.352316    53A     -0.349886

  @DF-RHF Final Energy: -1721.48575349020757

   => Energetics <=

    Nuclear Repulsion Energy =            894.8064501176670547
    One-Electron Energy =               -4152.3234525128709720
    Two-Electron Energy =                1536.0312489049965734
    Total Energy =                      -1721.4857534902075713
  Basis Set: (AUG-CC-PVTZ AUX)
    Blend: AUG-CC-PVTZ-RI
    Molecular point group: c1

    Geometry (in Angstrom), charge = 0, multiplicity = 1:

       Center              X                  Y                   Z               Mass
    ------------   -----------------  -----------------  -----------------  -----------------
         CL           1.159526771869     1.446339150566     0.977914021394    34.968852682000
         CL           2.697520771869    -0.000005849434    -1.014708978606    34.968852682000
         CL           1.159504771869    -1.446340849434     0.977906021394    34.968852682000
         O            0.193184771869     0.000007150566    -1.008193978606    15.994914619570
         C           -1.123356528131     0.000003750566    -0.502321178606    12.000000000000
         C           -1.798932228131    -1.219203849434    -0.405348978606    12.000000000000
         C           -1.798941228131     1.219210150566    -0.405354978606    12.000000000000
         C           -3.148089228131    -1.209908849434    -0.047917978606    12.000000000000
         C           -3.148095228131     1.209913150566    -0.047926978606    12.000000000000
         C           -3.822423228131    -0.000000849434     0.133722021394    12.000000000000
         C            1.202445771869    -0.000000849434    -0.073672978606    12.000000000000
         H           -1.261950228131    -2.146575849434    -0.574170978606     1.007825032230
         H           -1.261952228131     2.146577150566    -0.574185978606     1.007825032230
         H           -3.675635228131    -2.152441849434     0.073099021394     1.007825032230
         H           -3.675648228131     2.152442150566     0.073081021394     1.007825032230
         H           -4.873753228131    -0.000003849434     0.409073021394     1.007825032230

  Basis Set: AUG-CC-PVTZ
    Blend: AUG-CC-PVTZ
  Basis Set: (AUG-CC-PVTZ AUX)
    Blend: AUG-CC-PVTZ-JKFIT
	 Reference Energy          =   -1721.4857534902075713 [Eh]
	 Singles Energy            =      -0.0000000000000000 [Eh]
	 Same-Spin Energy          =      -0.5629910901964124 [Eh]
	 Opposite-Spin Energy      =      -1.6474026616939879 [Eh]
	 Correlation Energy        =      -2.2103937518904004 [Eh]
	 Total Energy              =   -1723.6961472420980499 [Eh]

	 ================> DF-SCS-MP2 Energies <==================
	-----------------------------------------------------------
	 SCS Same-Spin Scale       =       0.3333333333333333 [-]
	 SCS Opposite-Spin Scale   =       1.2000000000000000 [-]
	 SCS Same-Spin Energy      =      -0.1876636967321375 [Eh]
	 SCS Opposite-Spin Energy  =      -1.9768831940327853 [Eh]
	 SCS Correlation Energy    =      -2.1645468907649228 [Eh]
	 SCS Total Energy          =   -1723.6503003809725669 [Eh]
	-----------------------------------------------------------

  Dipole Moment: [D]
     X:    -2.2085      Y:    -0.0000      Z:     0.2465     Total:     2.2222

*** Psi4 exiting successfully. Buy a developer a beer!
