                               Psi4 1.4a3.dev225

  ==> Input File <==

--------------------------------------------------------------------------
#psi4
#
memory 32 gb

molecule  {
0 1
 Cl        1.2524280     1.4463390     0.9876330
 Cl        2.7904220    -0.0000060    -1.0049900
 Cl        1.2524060    -1.4463410     0.9876250
  O        0.2860860     0.0000070    -0.9984750
  C       -1.0945785     0.0000039    -0.5225629
  C       -1.7060310    -1.2192040    -0.3956300
  C       -1.7060400     1.2192100    -0.3956360
  C       -3.0551880    -1.2099090    -0.0381990
  C       -3.0551940     1.2099130    -0.0382080
  C       -3.7295220    -0.0000010     0.1434410
  C        1.2953470    -0.0000010    -0.0639540
  H       -1.1690490    -2.1465760    -0.5644520
  H       -1.1690510     2.1465770    -0.5644670
  H       -3.5827340    -2.1524420     0.0828180
  H       -3.5827470     2.1524420     0.0828000
  H       -4.7808520    -0.0000040     0.4187920
units angstrom
no_reorient  #important for SAPT in psi4, default
symmetry c1  #important for SAPT in psi4, default
}

set PROPERTIES_ORIGIN ["COM"]
properties('MP2/aug-cc-pvtz', properties = ['dipole'])
--------------------------------------------------------------------------

    Molecular point group: c1
  Charge       = 0
  Multiplicity = 1
  Basis Set: AUG-CC-PVTZ
    Blend: AUG-CC-PVTZ
  Basis Set: (AUG-CC-PVTZ AUX)
    Blend: AUG-CC-PVTZ-JKFIT

    Orbital Energies [Eh]
    ---------------------

    Doubly Occupied:

       1A   -104.859797     2A   -104.859632     3A   -104.859632
       4A    -20.624745     5A    -11.491208     6A    -11.315995
       7A    -11.256289     8A    -11.256133     9A    -11.254188
      10A    -11.254161    11A    -11.252450    12A    -10.584467
      13A    -10.584372    14A    -10.584361    15A     -8.051252
      16A     -8.051078    17A     -8.051078    18A     -8.049040
      19A     -8.049038    20A     -8.049008    21A     -8.049006
      22A     -8.048988    23A     -8.048987    24A     -1.453058
      25A     -1.214545    26A     -1.170166    27A     -1.113203
      28A     -1.110472    29A     -1.040788    30A     -1.031962
      31A     -0.875998    32A     -0.858120    33A     -0.807787
      34A     -0.731896    35A     -0.694626    36A     -0.690512
      37A     -0.681058    38A     -0.639496    39A     -0.632752
      40A     -0.612394    41A     -0.577437    42A     -0.535723
      43A     -0.533756    44A     -0.522615    45A     -0.514878
      46A     -0.495835    47A     -0.488461    48A     -0.479736
      49A     -0.458236    50A     -0.457810    51A     -0.445410
      52A     -0.356396    53A     -0.355809

  @DF-RHF Final Energy: -1721.48485978996496

   => Energetics <=

    Nuclear Repulsion Energy =            894.1056067446886573
    One-Electron Energy =               -4151.0492561013006707
    Two-Electron Energy =                1535.4587895666468285
    Total Energy =                      -1721.4848597899649576
  Basis Set: (AUG-CC-PVTZ AUX)
    Blend: AUG-CC-PVTZ-RI
    Molecular point group: c1

    Geometry (in Angstrom), charge = 0, multiplicity = 1:

       Center              X                  Y                   Z               Mass
    ------------   -----------------  -----------------  -----------------  -----------------
         CL           1.163191991497     1.446339133418     0.979626545811    34.968852682000
         CL           2.701185991497    -0.000005866582    -1.012996454189    34.968852682000
         CL           1.163169991497    -1.446340866582     0.979618545811    34.968852682000
         O            0.196849991497     0.000007133418    -1.006481454189    15.994914619570
         C           -1.183814508503     0.000004033418    -0.530569354189    12.000000000000
         C           -1.795267008503    -1.219203866582    -0.403636454189    12.000000000000
         C           -1.795276008503     1.219210133418    -0.403642454189    12.000000000000
         C           -3.144424008503    -1.209908866582    -0.046205454189    12.000000000000
         C           -3.144430008503     1.209913133418    -0.046214454189    12.000000000000
         C           -3.818758008503    -0.000000866582     0.135434545811    12.000000000000
         C            1.206110991497    -0.000000866582    -0.071960454189    12.000000000000
         H           -1.258285008503    -2.146575866582    -0.572458454189     1.007825032230
         H           -1.258287008503     2.146577133418    -0.572473454189     1.007825032230
         H           -3.671970008503    -2.152441866582     0.074811545811     1.007825032230
         H           -3.671983008503     2.152442133418     0.074793545811     1.007825032230
         H           -4.870088008503    -0.000003866582     0.410785545811     1.007825032230

  Basis Set: AUG-CC-PVTZ
    Blend: AUG-CC-PVTZ
  Basis Set: (AUG-CC-PVTZ AUX)
    Blend: AUG-CC-PVTZ-JKFIT
	 Reference Energy          =   -1721.4848597899649576 [Eh]
	 Singles Energy            =      -0.0000000000000000 [Eh]
	 Same-Spin Energy          =      -0.5626976870315039 [Eh]
	 Opposite-Spin Energy      =      -1.6468304164796219 [Eh]
	 Correlation Energy        =      -2.2095281035111256 [Eh]
	 Total Energy              =   -1723.6943878934760050 [Eh]

	 ================> DF-SCS-MP2 Energies <==================
	-----------------------------------------------------------
	 SCS Same-Spin Scale       =       0.3333333333333333 [-]
	 SCS Opposite-Spin Scale   =       1.2000000000000000 [-]
	 SCS Same-Spin Energy      =      -0.1875658956771680 [Eh]
	 SCS Opposite-Spin Energy  =      -1.9761964997755461 [Eh]
	 SCS Correlation Energy    =      -2.1637623954527139 [Eh]
	 SCS Total Energy          =   -1723.6486221854177074 [Eh]
	-----------------------------------------------------------

  Dipole Moment: [D]
     X:    -2.5129      Y:    -0.0000      Z:     0.2367     Total:     2.5240

*** Psi4 exiting successfully. Buy a developer a beer!
