                               Psi4 1.3.2 release

  ==> Input File <==

--------------------------------------------------------------------------
#psi4
#
memory 32 gb

molecule  {
0 1
 Cl        1.2524280     1.4463390     0.9876330
 Cl        2.7904220    -0.0000060    -1.0049900
 Cl        1.2524060    -1.4463410     0.9876250
  O        0.2860860     0.0000070    -0.9984750
  C       -1.0473080     0.0000040    -0.5388570
  C       -1.7060310    -1.2192040    -0.3956300
  C       -1.7060400     1.2192100    -0.3956360
  C       -3.0551880    -1.2099090    -0.0381990
  C       -3.0551940     1.2099130    -0.0382080
  C       -3.7295220    -0.0000010     0.1434410
  C        1.2953470    -0.0000010    -0.0639540
  H       -1.1690490    -2.1465760    -0.5644520
  H       -1.1690510     2.1465770    -0.5644670
  H       -3.5827340    -2.1524420     0.0828180
  H       -3.5827470     2.1524420     0.0828000
  H       -4.7808520    -0.0000040     0.4187920
units angstrom
no_reorient  #important for SAPT in psi4, default
symmetry c1  #important for SAPT in psi4, default
}

set PROPERTIES_ORIGIN ["COM"]
properties('MP2/aug-cc-pvtz', properties = ['dipole'])
--------------------------------------------------------------------------

    Molecular point group: c1
  Charge       = 0
  Multiplicity = 1
  Basis Set: AUG-CC-PVTZ
    Blend: AUG-CC-PVTZ
  Basis Set: (AUG-CC-PVTZ AUX)
    Blend: AUG-CC-PVTZ-JKFIT

    Orbital Energies [Eh]
    ---------------------

    Doubly Occupied:

       1A   -104.862444     2A   -104.861990     3A   -104.861990
       4A    -20.631284     5A    -11.494792     6A    -11.316469
       7A    -11.254551     8A    -11.254514     9A    -11.253404
      10A    -11.253204    11A    -11.250847    12A    -10.587080
      13A    -10.586673    14A    -10.586662    15A     -8.053869
      16A     -8.053380    17A     -8.053379    18A     -8.051648
      19A     -8.051646    20A     -8.051296    21A     -8.051295
      22A     -8.051274    23A     -8.051274    24A     -1.469248
      25A     -1.218691    26A     -1.163347    27A     -1.115727
      28A     -1.112712    29A     -1.035070    30A     -1.028742
      31A     -0.885359    32A     -0.853740    33A     -0.807055
      34A     -0.734488    35A     -0.697615    36A     -0.695627
      37A     -0.687391    38A     -0.635084    39A     -0.630813
      40A     -0.607266    41A     -0.581841    42A     -0.538350
      43A     -0.535213    44A     -0.517431    45A     -0.510724
      46A     -0.498595    47A     -0.492411    48A     -0.480897
      49A     -0.460483    50A     -0.459600    51A     -0.447492
      52A     -0.352882    53A     -0.350256

  @DF-RHF Final Energy: -1721.48777139565482

   => Energetics <=

    Nuclear Repulsion Energy =            894.4217018304181011
    One-Electron Energy =               -4151.5607197350109345
    Two-Electron Energy =                1535.6512465089381294
    Total Energy =                      -1721.4877713956548178
  Basis Set: (AUG-CC-PVTZ AUX)
    Blend: AUG-CC-PVTZ-RI
    Molecular point group: c1

    Geometry (in Angstrom), charge = 0, multiplicity = 1:

       Center              X                  Y                   Z               Mass
    ------------   -----------------  -----------------  -----------------  -----------------
         CL           1.160490055779     1.446339127702     0.980557900690    34.968852682000
         CL           2.698484055779    -0.000005872298    -1.012065099310    34.968852682000
         CL           1.160468055779    -1.446340872298     0.980549900690    34.968852682000
         O            0.194148055779     0.000007127702    -1.005550099310    15.994914619570
         C           -1.139245944221     0.000004127702    -0.545932099310    12.000000000000
         C           -1.797968944221    -1.219203872298    -0.402705099310    12.000000000000
         C           -1.797977944221     1.219210127702    -0.402711099310    12.000000000000
         C           -3.147125944221    -1.209908872298    -0.045274099310    12.000000000000
         C           -3.147131944221     1.209913127702    -0.045283099310    12.000000000000
         C           -3.821459944221    -0.000000872298     0.136365900690    12.000000000000
         C            1.203409055779    -0.000000872298    -0.071029099310    12.000000000000
         H           -1.260986944221    -2.146575872298    -0.571527099310     1.007825032230
         H           -1.260988944221     2.146577127702    -0.571542099310     1.007825032230
         H           -3.674671944221    -2.152441872298     0.075742900690     1.007825032230
         H           -3.674684944221     2.152442127702     0.075724900690     1.007825032230
         H           -4.872789944221    -0.000003872298     0.411716900690     1.007825032230

  Basis Set: AUG-CC-PVTZ
    Blend: AUG-CC-PVTZ
  Basis Set: (AUG-CC-PVTZ AUX)
    Blend: AUG-CC-PVTZ-JKFIT
	 Reference Energy          =   -1721.4877713956548178 [Eh]
	 Singles Energy            =      -0.0000000000000000 [Eh]
	 Same-Spin Energy          =      -0.5626768598526034 [Eh]
	 Opposite-Spin Energy      =      -1.6466285809307597 [Eh]
	 Correlation Energy        =      -2.2093054407833632 [Eh]
	 Total Energy              =   -1723.6970768364381001 [Eh]

	 ================> DF-SCS-MP2 Energies <==================
	-----------------------------------------------------------
	 SCS Same-Spin Scale       =       0.3333333333333333 [-]
	 SCS Opposite-Spin Scale   =       1.2000000000000000 [-]
	 SCS Same-Spin Energy      =      -0.1875589532842011 [Eh]
	 SCS Opposite-Spin Energy  =      -1.9759542971169115 [Eh]
	 SCS Correlation Energy    =      -2.1635132504011128 [Eh]
	 SCS Total Energy          =   -1723.6512846460559558 [Eh]
	-----------------------------------------------------------

  Dipole Moment: [D]
     X:    -2.2172      Y:    -0.0000      Z:     0.2395     Total:     2.2301

*** Psi4 exiting successfully. Buy a developer a beer!
