                               Psi4 1.4a3.dev225

  ==> Input File <==

--------------------------------------------------------------------------
#psi4
#
memory 32 gb

molecule  {
0 1
 Cl        1.2524280     1.4463390     0.9876330
 Cl        2.7904220    -0.0000060    -1.0049900
 Cl        1.2524060    -1.4463410     0.9876250
  O        0.2860860     0.0000070    -0.9984750
  C       -1.0283998     0.0000040    -0.5453746
  C       -1.7060310    -1.2192040    -0.3956300
  C       -1.7060400     1.2192100    -0.3956360
  C       -3.0551880    -1.2099090    -0.0381990
  C       -3.0551940     1.2099130    -0.0382080
  C       -3.7295220    -0.0000010     0.1434410
  C        1.2953470    -0.0000010    -0.0639540
  H       -1.1690490    -2.1465760    -0.5644520
  H       -1.1690510     2.1465770    -0.5644670
  H       -3.5827340    -2.1524420     0.0828180
  H       -3.5827470     2.1524420     0.0828000
  H       -4.7808520    -0.0000040     0.4187920
units angstrom
no_reorient  #important for SAPT in psi4, default
symmetry c1  #important for SAPT in psi4, default
}

set PROPERTIES_ORIGIN ["COM"]
properties('MP2/aug-cc-pvtz', properties = ['dipole'])
--------------------------------------------------------------------------

    Molecular point group: c1
  Charge       = 0
  Multiplicity = 1
  Basis Set: AUG-CC-PVTZ
    Blend: AUG-CC-PVTZ
  Basis Set: (AUG-CC-PVTZ AUX)
    Blend: AUG-CC-PVTZ-JKFIT

    Orbital Energies [Eh]
    ---------------------

    Doubly Occupied:

       1A   -104.863474     2A   -104.862937     3A   -104.862937
       4A    -20.633751     5A    -11.496212     6A    -11.316889
       7A    -11.254253     8A    -11.254247     9A    -11.252786
      10A    -11.252521    11A    -11.250186    12A    -10.588098
      13A    -10.587596    14A    -10.587586    15A     -8.054888
      16A     -8.054304    17A     -8.054303    18A     -8.052664
      19A     -8.052662    20A     -8.052215    21A     -8.052213
      22A     -8.052192    23A     -8.052191    24A     -1.476279
      25A     -1.220567    26A     -1.160624    27A     -1.116719
      28A     -1.113611    29A     -1.032944    30A     -1.027451
      31A     -0.889380    32A     -0.852066    33A     -0.806734
      34A     -0.735980    35A     -0.698727    36A     -0.697901
      37A     -0.689723    38A     -0.633672    39A     -0.629953
      40A     -0.605046    41A     -0.583829    42A     -0.539702
      43A     -0.535753    44A     -0.515330    45A     -0.508997
      46A     -0.499693    47A     -0.493720    48A     -0.480727
      49A     -0.461347    50A     -0.460238    51A     -0.448313
      52A     -0.351765    53A     -0.347662

  @DF-RHF Final Energy: -1721.48736366521371

   => Energetics <=

    Nuclear Repulsion Energy =            894.5627835822955376
    One-Electron Energy =               -4151.7891750663566199
    Two-Electron Energy =                1535.7390278188472621
    Total Energy =                      -1721.4873636652137066
  Basis Set: (AUG-CC-PVTZ AUX)
    Blend: AUG-CC-PVTZ-RI
    Molecular point group: c1

    Geometry (in Angstrom), charge = 0, multiplicity = 1:

       Center              X                  Y                   Z               Mass
    ------------   -----------------  -----------------  -----------------  -----------------
         CL           1.159409281492     1.446339127702     0.980930440355    34.968852682000
         CL           2.697403281492    -0.000005872298    -1.011692559645    34.968852682000
         CL           1.159387281492    -1.446340872298     0.980922440355    34.968852682000
         O            0.193067281492     0.000007127702    -1.005177559645    15.994914619570
         C           -1.121418518508     0.000004127702    -0.552077159645    12.000000000000
         C           -1.799049718508    -1.219203872298    -0.402332559645    12.000000000000
         C           -1.799058718508     1.219210127702    -0.402338559645    12.000000000000
         C           -3.148206718508    -1.209908872298    -0.044901559645    12.000000000000
         C           -3.148212718508     1.209913127702    -0.044910559645    12.000000000000
         C           -3.822540718508    -0.000000872298     0.136738440355    12.000000000000
         C            1.202328281492    -0.000000872298    -0.070656559645    12.000000000000
         H           -1.262067718508    -2.146575872298    -0.571154559645     1.007825032230
         H           -1.262069718508     2.146577127702    -0.571169559645     1.007825032230
         H           -3.675752718508    -2.152441872298     0.076115440355     1.007825032230
         H           -3.675765718508     2.152442127702     0.076097440355     1.007825032230
         H           -4.873870718508    -0.000003872298     0.412089440355     1.007825032230

  Basis Set: AUG-CC-PVTZ
    Blend: AUG-CC-PVTZ
  Basis Set: (AUG-CC-PVTZ AUX)
    Blend: AUG-CC-PVTZ-JKFIT
	 Reference Energy          =   -1721.4873636652137066 [Eh]
	 Singles Energy            =      -0.0000000000000000 [Eh]
	 Same-Spin Energy          =      -0.5627460701442608 [Eh]
	 Opposite-Spin Energy      =      -1.6466667561972137 [Eh]
	 Correlation Energy        =      -2.2094128263414747 [Eh]
	 Total Energy              =   -1723.6967764915552834 [Eh]

	 ================> DF-SCS-MP2 Energies <==================
	-----------------------------------------------------------
	 SCS Same-Spin Scale       =       0.3333333333333333 [-]
	 SCS Opposite-Spin Scale   =       1.2000000000000000 [-]
	 SCS Same-Spin Energy      =      -0.1875820233814203 [Eh]
	 SCS Opposite-Spin Energy  =      -1.9760001074366564 [Eh]
	 SCS Correlation Energy    =      -2.1635821308180767 [Eh]
	 SCS Total Energy          =   -1723.6509457960316922 [Eh]
	-----------------------------------------------------------

  Dipole Moment: [D]
     X:    -2.0982      Y:    -0.0000      Z:     0.2403     Total:     2.1119

*** Psi4 exiting successfully. Buy a developer a beer!
