                               Psi4 1.3.2 release

  ==> Input File <==

--------------------------------------------------------------------------
#psi4
#
memory 32 gb

molecule  {
0 1
 Cl        1.2273413     1.4565467     0.9721061
 Cl        2.7904220    -0.0000060    -1.0049900
 Cl        1.2524060    -1.4463410     0.9876250
  O        0.2860860     0.0000070    -0.9984750
  C       -1.0473080     0.0000040    -0.5388570
  C       -1.7060310    -1.2192040    -0.3956300
  C       -1.7060400     1.2192100    -0.3956360
  C       -3.0551880    -1.2099090    -0.0381990
  C       -3.0551940     1.2099130    -0.0382080
  C       -3.7295220    -0.0000010     0.1434410
  C        1.2953470    -0.0000010    -0.0639540
  H       -1.1690490    -2.1465760    -0.5644520
  H       -1.1690510     2.1465770    -0.5644670
  H       -3.5827340    -2.1524420     0.0828180
  H       -3.5827470     2.1524420     0.0828000
  H       -4.7808520    -0.0000040     0.4187920
units angstrom
no_reorient  #important for SAPT in psi4, default
symmetry c1  #important for SAPT in psi4, default
}

set PROPERTIES_ORIGIN ["COM"]
properties('MP2/aug-cc-pvtz', properties = ['dipole'])
--------------------------------------------------------------------------

    Molecular point group: c1
  Charge       = 0
  Multiplicity = 1
  Basis Set: AUG-CC-PVTZ
    Blend: AUG-CC-PVTZ
  Basis Set: (AUG-CC-PVTZ AUX)
    Blend: AUG-CC-PVTZ-JKFIT

    Orbital Energies [Eh]
    ---------------------

    Doubly Occupied:

       1A   -104.862888     2A   -104.862532     3A   -104.861834
       4A    -20.630449     5A    -11.494806     6A    -11.316186
       7A    -11.254352     8A    -11.254283     9A    -11.253194
      10A    -11.252988    11A    -11.250666    12A    -10.587495
      13A    -10.587170    14A    -10.586536    15A     -8.054284
      16A     -8.053884    17A     -8.053246    18A     -8.052063
      19A     -8.052061    20A     -8.051799    21A     -8.051777
      22A     -8.051166    23A     -8.051144    24A     -1.469047
      25A     -1.218160    26A     -1.163097    27A     -1.115986
      28A     -1.113338    29A     -1.034868    30A     -1.028543
      31A     -0.885125    32A     -0.853544    33A     -0.806933
      34A     -0.734142    35A     -0.697486    36A     -0.695671
      37A     -0.687356    38A     -0.635162    39A     -0.630588
      40A     -0.607151    41A     -0.581583    42A     -0.538181
      43A     -0.534979    44A     -0.517303    45A     -0.510835
      46A     -0.497915    47A     -0.492280    48A     -0.480813
      49A     -0.460995    50A     -0.460172    51A     -0.448098
      52A     -0.352648    53A     -0.349985

  @DF-RHF Final Energy: -1721.48757149932703

   => Energetics <=

    Nuclear Repulsion Energy =            894.7770400792137480
    One-Electron Energy =               -4152.2716511348562562
    Two-Electron Energy =                1536.0070395563154761
    Total Energy =                      -1721.4875714993270321
  Basis Set: (AUG-CC-PVTZ AUX)
    Blend: AUG-CC-PVTZ-RI
    Molecular point group: c1

    Geometry (in Angstrom), charge = 0, multiplicity = 1:

       Center              X                  Y                   Z               Mass
    ------------   -----------------  -----------------  -----------------  -----------------
         CL           1.139581933556     1.454846577435     0.967617245963    34.968852682000
         CL           2.702662633556    -0.001706122565    -1.009478854037    34.968852682000
         CL           1.164646633556    -1.448041122565     0.983136145963    34.968852682000
         O            0.198326633556    -0.001693122565    -1.002963854037    15.994914619570
         C           -1.135067366444    -0.001696122565    -0.543345854037    12.000000000000
         C           -1.793790366444    -1.220904122565    -0.400118854037    12.000000000000
         C           -1.793799366444     1.217509877435    -0.400124854037    12.000000000000
         C           -3.142947366444    -1.211609122565    -0.042687854037    12.000000000000
         C           -3.142953366444     1.208212877435    -0.042696854037    12.000000000000
         C           -3.817281366444    -0.001701122565     0.138952145963    12.000000000000
         C            1.207587633556    -0.001701122565    -0.068442854037    12.000000000000
         H           -1.256808366444    -2.148276122565    -0.568940854037     1.007825032230
         H           -1.256810366444     2.144876877435    -0.568955854037     1.007825032230
         H           -3.670493366444    -2.154142122565     0.078329145963     1.007825032230
         H           -3.670506366444     2.150741877435     0.078311145963     1.007825032230
         H           -4.868611366444    -0.001704122565     0.414303145963     1.007825032230

  Basis Set: AUG-CC-PVTZ
    Blend: AUG-CC-PVTZ
  Basis Set: (AUG-CC-PVTZ AUX)
    Blend: AUG-CC-PVTZ-JKFIT
	 Reference Energy          =   -1721.4875714993270321 [Eh]
	 Singles Energy            =      -0.0000000000000000 [Eh]
	 Same-Spin Energy          =      -0.5627371879536565 [Eh]
	 Opposite-Spin Energy      =      -1.6467243887495906 [Eh]
	 Correlation Energy        =      -2.2094615767032471 [Eh]
	 Total Energy              =   -1723.6970330760302659 [Eh]

	 ================> DF-SCS-MP2 Energies <==================
	-----------------------------------------------------------
	 SCS Same-Spin Scale       =       0.3333333333333333 [-]
	 SCS Opposite-Spin Scale   =       1.2000000000000000 [-]
	 SCS Same-Spin Energy      =      -0.1875790626512188 [Eh]
	 SCS Opposite-Spin Energy  =      -1.9760692664995085 [Eh]
	 SCS Correlation Energy    =      -2.1636483291507274 [Eh]
	 SCS Total Energy          =   -1723.6512198284776787 [Eh]
	-----------------------------------------------------------

  Dipole Moment: [D]
     X:    -2.1931      Y:    -0.0093      Z:     0.2420     Total:     2.2065

*** Psi4 exiting successfully. Buy a developer a beer!
