                               Psi4 1.4a3.dev225

  ==> Input File <==

--------------------------------------------------------------------------
#psi4
#
memory 32 gb

molecule  {
0 1
 Cl        1.2524280     1.4463390     0.9876330
 Cl        2.7904220    -0.0000060    -1.0049900
 Cl        1.2524060    -1.4463410     0.9876250
  O        0.2860860     0.0000070    -0.9984750
  C       -1.0662162     0.0000040    -0.5323394
  C       -1.7060310    -1.2192040    -0.3956300
  C       -1.7060400     1.2192100    -0.3956360
  C       -3.0551880    -1.2099090    -0.0381990
  C       -3.0551940     1.2099130    -0.0382080
  C       -3.7295220    -0.0000010     0.1434410
  C        1.2953470    -0.0000010    -0.0639540
  H       -1.1690490    -2.1465760    -0.5644520
  H       -1.1690510     2.1465770    -0.5644670
  H       -3.5827340    -2.1524420     0.0828180
  H       -3.5827470     2.1524420     0.0828000
  H       -4.7808520    -0.0000040     0.4187920
units angstrom
no_reorient  #important for SAPT in psi4, default
symmetry c1  #important for SAPT in psi4, default
}

set PROPERTIES_ORIGIN ["COM"]
properties('MP2/aug-cc-pvtz', properties = ['dipole'])
--------------------------------------------------------------------------

    Molecular point group: c1
  Charge       = 0
  Multiplicity = 1
  Basis Set: AUG-CC-PVTZ
    Blend: AUG-CC-PVTZ
  Basis Set: (AUG-CC-PVTZ AUX)
    Blend: AUG-CC-PVTZ-JKFIT

    Orbital Energies [Eh]
    ---------------------

    Doubly Occupied:

       1A   -104.861401     2A   -104.861047     3A   -104.861047
       4A    -20.628739     5A    -11.493367     6A    -11.316179
       7A    -11.255103     8A    -11.254992     9A    -11.253815
      10A    -11.253711    11A    -11.251493    12A    -10.586049
      13A    -10.585753    14A    -10.585743    15A     -8.052836
      16A     -8.052460    17A     -8.052459    18A     -8.050619
      19A     -8.050617    20A     -8.050382    21A     -8.050380
      22A     -8.050360    23A     -8.050360    24A     -1.462550
      25A     -1.216930    26A     -1.166084    27A     -1.114727
      28A     -1.111816    29A     -1.037284    30A     -1.030035
      31A     -0.881488    32A     -0.855462    33A     -0.807364
      34A     -0.733246    35A     -0.696511    36A     -0.693481
      37A     -0.684894    38A     -0.636693    39A     -0.631625
      40A     -0.609408    41A     -0.579973    42A     -0.537135
      43A     -0.534605    44A     -0.519573    45A     -0.512493
      46A     -0.497496    47A     -0.490942    48A     -0.480664
      49A     -0.459602    50A     -0.458913    51A     -0.446666
      52A     -0.354028    53A     -0.352768

  @DF-RHF Final Energy: -1721.48725558934370

   => Energetics <=

    Nuclear Repulsion Energy =            894.2892284803083385
    One-Electron Energy =               -4151.3462305218345136
    Two-Electron Energy =                1535.5697464521824713
    Total Energy =                      -1721.4872555893437038
  Basis Set: (AUG-CC-PVTZ AUX)
    Blend: AUG-CC-PVTZ-RI
    Molecular point group: c1

    Geometry (in Angstrom), charge = 0, multiplicity = 1:

       Center              X                  Y                   Z               Mass
    ------------   -----------------  -----------------  -----------------  -----------------
         CL           1.161570830066     1.446339127702     0.980185361025    34.968852682000
         CL           2.699564830066    -0.000005872298    -1.012437638975    34.968852682000
         CL           1.161548830066    -1.446340872298     0.980177361025    34.968852682000
         O            0.195228830066     0.000007127702    -1.005922638975    15.994914619570
         C           -1.157073369934     0.000004127702    -0.539787038975    12.000000000000
         C           -1.796888169934    -1.219203872298    -0.403077638975    12.000000000000
         C           -1.796897169934     1.219210127702    -0.403083638975    12.000000000000
         C           -3.146045169934    -1.209908872298    -0.045646638975    12.000000000000
         C           -3.146051169934     1.209913127702    -0.045655638975    12.000000000000
         C           -3.820379169934    -0.000000872298     0.135993361025    12.000000000000
         C            1.204489830066    -0.000000872298    -0.071401638975    12.000000000000
         H           -1.259906169934    -2.146575872298    -0.571899638975     1.007825032230
         H           -1.259908169934     2.146577127702    -0.571914638975     1.007825032230
         H           -3.673591169934    -2.152441872298     0.075370361025     1.007825032230
         H           -3.673604169934     2.152442127702     0.075352361025     1.007825032230
         H           -4.871709169934    -0.000003872298     0.411344361025     1.007825032230

  Basis Set: AUG-CC-PVTZ
    Blend: AUG-CC-PVTZ
  Basis Set: (AUG-CC-PVTZ AUX)
    Blend: AUG-CC-PVTZ-JKFIT
	 Reference Energy          =   -1721.4872555893437038 [Eh]
	 Singles Energy            =      -0.0000000000000000 [Eh]
	 Same-Spin Energy          =      -0.5626526770688394 [Eh]
	 Opposite-Spin Energy      =      -1.6466600186029110 [Eh]
	 Correlation Energy        =      -2.2093126956717501 [Eh]
	 Total Energy              =   -1723.6965682850154735 [Eh]

	 ================> DF-SCS-MP2 Energies <==================
	-----------------------------------------------------------
	 SCS Same-Spin Scale       =       0.3333333333333333 [-]
	 SCS Opposite-Spin Scale   =       1.2000000000000000 [-]
	 SCS Same-Spin Energy      =      -0.1875508923562798 [Eh]
	 SCS Opposite-Spin Energy  =      -1.9759920223234930 [Eh]
	 SCS Correlation Energy    =      -2.1635429146797729 [Eh]
	 SCS Total Energy          =   -1723.6507985040234416 [Eh]
	-----------------------------------------------------------

  Dipole Moment: [D]
     X:    -2.3355      Y:    -0.0000      Z:     0.2384     Total:     2.3476

*** Psi4 exiting successfully. Buy a developer a beer!
