                               Psi4 1.3.2 release

  ==> Input File <==

--------------------------------------------------------------------------
#psi4
#
memory 32 gb

molecule  {
0 1
 Cl        1.2524280     1.4463390     0.9876330
 Cl        2.7904220    -0.0000060    -1.0049900
 Cl        1.2524060    -1.4463410     0.9876250
  O        0.2860860     0.0000070    -0.9984750
  C       -1.0473080     0.0000040    -0.5388570
  C       -1.7060310    -1.2192040    -0.3956300
  C       -1.7060400     1.2192100    -0.3956360
  C       -3.0551880    -1.2099090    -0.0381990
  C       -3.0551940     1.2099130    -0.0382080
  C       -3.7295220    -0.0000010     0.1434410
  C        1.4420977    -0.0000022     0.0719292
  H       -1.1690490    -2.1465760    -0.5644520
  H       -1.1690510     2.1465770    -0.5644670
  H       -3.5827340    -2.1524420     0.0828180
  H       -3.5827470     2.1524420     0.0828000
  H       -4.7808520    -0.0000040     0.4187920
units angstrom
no_reorient  #important for SAPT in psi4, default
symmetry c1  #important for SAPT in psi4, default
}

set PROPERTIES_ORIGIN ["COM"]
properties('MP2/aug-cc-pvtz', properties = ['dipole'])
--------------------------------------------------------------------------

    Molecular point group: c1
  Charge       = 0
  Multiplicity = 1
  Basis Set: AUG-CC-PVTZ
    Blend: AUG-CC-PVTZ
  Basis Set: (AUG-CC-PVTZ AUX)
    Blend: AUG-CC-PVTZ-JKFIT

    Orbital Energies [Eh]
    ---------------------

    Doubly Occupied:

       1A   -104.875691     2A   -104.875690     3A   -104.871014
       4A    -20.601795     5A    -11.492182     6A    -11.301029
       7A    -11.246422     8A    -11.246244     9A    -11.243513
      10A    -11.243484    11A    -11.242681    12A    -10.600917
      13A    -10.600907    14A    -10.595971    15A     -8.067772
      16A     -8.067772    17A     -8.065475    18A     -8.065474
      19A     -8.065441    20A     -8.065441    21A     -8.062851
      22A     -8.060491    23A     -8.060482    24A     -1.396892
      25A     -1.242406    26A     -1.152616    27A     -1.136307
      28A     -1.132537    29A     -1.026409    30A     -1.009458
      31A     -0.855244    32A     -0.843291    33A     -0.805581
      34A     -0.717903    35A     -0.684336    36A     -0.677603
      37A     -0.666362    38A     -0.640878    39A     -0.626144
      40A     -0.599651    41A     -0.591253    42A     -0.532797
      43A     -0.528187    44A     -0.514037    45A     -0.510800
      46A     -0.495567    47A     -0.491375    48A     -0.478085
      49A     -0.472718    50A     -0.462493    51A     -0.458781
      52A     -0.345459    53A     -0.336988

  @DF-RHF Final Energy: -1721.46069763382002

   => Energetics <=

    Nuclear Repulsion Energy =            893.5934455497314275
    One-Electron Energy =               -4150.0064884192888712
    Two-Electron Energy =                1534.9523452357375390
    Total Energy =                      -1721.4606976338200184
  Basis Set: (AUG-CC-PVTZ AUX)
    Blend: AUG-CC-PVTZ-RI
    Molecular point group: c1

    Geometry (in Angstrom), charge = 0, multiplicity = 1:

       Center              X                  Y                   Z               Mass
    ------------   -----------------  -----------------  -----------------  -----------------
         CL           1.152101928765     1.446339196293     0.972790949386    34.968852682000
         CL           2.690095928765    -0.000005803707    -1.019832050614    34.968852682000
         CL           1.152079928765    -1.446340803707     0.972782949386    34.968852682000
         O            0.185759928765     0.000007196293    -1.013317050614    15.994914619570
         C           -1.147634071235     0.000004196293    -0.553699050614    12.000000000000
         C           -1.806357071235    -1.219203803707    -0.410472050614    12.000000000000
         C           -1.806366071235     1.219210196293    -0.410478050614    12.000000000000
         C           -3.155514071235    -1.209908803707    -0.053041050614    12.000000000000
         C           -3.155520071235     1.209913196293    -0.053050050614    12.000000000000
         C           -3.829848071235    -0.000000803707     0.128598949386    12.000000000000
         C            1.341771628765    -0.000002003707     0.057087149386    12.000000000000
         H           -1.269375071235    -2.146575803707    -0.579294050614     1.007825032230
         H           -1.269377071235     2.146577196293    -0.579309050614     1.007825032230
         H           -3.683060071235    -2.152441803707     0.067975949386     1.007825032230
         H           -3.683073071235     2.152442196293     0.067957949386     1.007825032230
         H           -4.881178071235    -0.000003803707     0.403949949386     1.007825032230

  Basis Set: AUG-CC-PVTZ
    Blend: AUG-CC-PVTZ
  Basis Set: (AUG-CC-PVTZ AUX)
    Blend: AUG-CC-PVTZ-JKFIT
	 Reference Energy          =   -1721.4606976338200184 [Eh]
	 Singles Energy            =      -0.0000000000000000 [Eh]
	 Same-Spin Energy          =      -0.5653850624221715 [Eh]
	 Opposite-Spin Energy      =      -1.6521689912399597 [Eh]
	 Correlation Energy        =      -2.2175540536621314 [Eh]
	 Total Energy              =   -1723.6782516874820885 [Eh]

	 ================> DF-SCS-MP2 Energies <==================
	-----------------------------------------------------------
	 SCS Same-Spin Scale       =       0.3333333333333333 [-]
	 SCS Opposite-Spin Scale   =       1.2000000000000000 [-]
	 SCS Same-Spin Energy      =      -0.1884616874740571 [Eh]
	 SCS Opposite-Spin Energy  =      -1.9826027894879517 [Eh]
	 SCS Correlation Energy    =      -2.1710644769620089 [Eh]
	 SCS Total Energy          =   -1723.6317621107821196 [Eh]
	-----------------------------------------------------------

  Dipole Moment: [D]
     X:    -1.1158      Y:    -0.0000      Z:     0.8659     Total:     1.4124

*** Psi4 exiting successfully. Buy a developer a beer!
