                               Psi4 1.3.2 release

  ==> Input File <==

--------------------------------------------------------------------------
#psi4
#
memory 32 gb

molecule  {
0 1
 Cl        1.2524280     1.4463390     0.9876330
 Cl        2.7904220    -0.0000060    -1.0049900
 Cl        1.2524060    -1.4463410     0.9876250
  O        0.2849175     0.0981833    -0.9913216
  C       -1.0473080     0.0000040    -0.5388570
  C       -1.7060310    -1.2192040    -0.3956300
  C       -1.7060400     1.2192100    -0.3956360
  C       -3.0551880    -1.2099090    -0.0381990
  C       -3.0551940     1.2099130    -0.0382080
  C       -3.7295220    -0.0000010     0.1434410
  C        1.2953470    -0.0000010    -0.0639540
  H       -1.1690490    -2.1465760    -0.5644520
  H       -1.1690510     2.1465770    -0.5644670
  H       -3.5827340    -2.1524420     0.0828180
  H       -3.5827470     2.1524420     0.0828000
  H       -4.7808520    -0.0000040     0.4187920
units angstrom
no_reorient  #important for SAPT in psi4, default
symmetry c1  #important for SAPT in psi4, default
}

set PROPERTIES_ORIGIN ["COM"]
properties('MP2/aug-cc-pvtz', properties = ['dipole'])
--------------------------------------------------------------------------

    Molecular point group: c1
  Charge       = 0
  Multiplicity = 1
  Basis Set: AUG-CC-PVTZ
    Blend: AUG-CC-PVTZ
  Basis Set: (AUG-CC-PVTZ AUX)
    Blend: AUG-CC-PVTZ-JKFIT

    Orbital Energies [Eh]
    ---------------------

    Doubly Occupied:

       1A   -104.866082     2A   -104.862625     3A   -104.857612
       4A    -20.631188     5A    -11.494761     6A    -11.316671
       7A    -11.256279     8A    -11.254372     9A    -11.253158
      10A    -11.251667    11A    -11.250681    12A    -10.590532
      13A    -10.587255    14A    -10.582548    15A     -8.057248
      16A     -8.055152    17A     -8.055124    18A     -8.054042
      19A     -8.051824    20A     -8.051820    21A     -8.049254
      22A     -8.047179    23A     -8.047161    24A     -1.469728
      25A     -1.218781    26A     -1.163327    27A     -1.116424
      28A     -1.111933    29A     -1.035079    30A     -1.028777
      31A     -0.885858    32A     -0.853378    33A     -0.806911
      34A     -0.734572    35A     -0.698479    36A     -0.694729
      37A     -0.687715    38A     -0.635103    39A     -0.630294
      40A     -0.607238    41A     -0.581689    42A     -0.538893
      43A     -0.535194    44A     -0.517438    45A     -0.511478
      46A     -0.498831    47A     -0.493024    48A     -0.479042
      49A     -0.461291    50A     -0.458449    51A     -0.447320
      52A     -0.352915    53A     -0.349913

  @DF-RHF Final Energy: -1721.48570697929836

   => Energetics <=

    Nuclear Repulsion Energy =            894.5271543877546492
    One-Electron Energy =               -4151.7696445728970502
    Two-Electron Energy =                1535.7567832058439308
    Total Energy =                      -1721.4857069792983566
  Basis Set: (AUG-CC-PVTZ AUX)
    Blend: AUG-CC-PVTZ-RI
    Molecular point group: c1

    Geometry (in Angstrom), charge = 0, multiplicity = 1:

       Center              X                  Y                   Z               Mass
    ------------   -----------------  -----------------  -----------------  -----------------
         CL           1.160579081236     1.438859290299     0.980012898802    34.968852682000
         CL           2.698573081236    -0.007485709701    -1.012610101198    34.968852682000
         CL           1.160557081236    -1.453820709701     0.980004898802    34.968852682000
         O            0.193068581236     0.090703590299    -0.998941701198    15.994914619570
         C           -1.139156918764    -0.007475709701    -0.546477101198    12.000000000000
         C           -1.797879918764    -1.226683709701    -0.403250101198    12.000000000000
         C           -1.797888918764     1.211730290299    -0.403256101198    12.000000000000
         C           -3.147036918764    -1.217388709701    -0.045819101198    12.000000000000
         C           -3.147042918764     1.202433290299    -0.045828101198    12.000000000000
         C           -3.821370918764    -0.007480709701     0.135820898802    12.000000000000
         C            1.203498081236    -0.007480709701    -0.071574101198    12.000000000000
         H           -1.260897918764    -2.154055709701    -0.572072101198     1.007825032230
         H           -1.260899918764     2.139097290299    -0.572087101198     1.007825032230
         H           -3.674582918764    -2.159921709701     0.075197898802     1.007825032230
         H           -3.674595918764     2.144962290299     0.075179898802     1.007825032230
         H           -4.872700918764    -0.007483709701     0.411171898802     1.007825032230

  Basis Set: AUG-CC-PVTZ
    Blend: AUG-CC-PVTZ
  Basis Set: (AUG-CC-PVTZ AUX)
    Blend: AUG-CC-PVTZ-JKFIT
	 Reference Energy          =   -1721.4857069792983566 [Eh]
	 Singles Energy            =      -0.0000000000000000 [Eh]
	 Same-Spin Energy          =      -0.5627486054032111 [Eh]
	 Opposite-Spin Energy      =      -1.6467658810794452 [Eh]
	 Correlation Energy        =      -2.2095144864826564 [Eh]
	 Total Energy              =   -1723.6952214657810600 [Eh]

	 ================> DF-SCS-MP2 Energies <==================
	-----------------------------------------------------------
	 SCS Same-Spin Scale       =       0.3333333333333333 [-]
	 SCS Opposite-Spin Scale   =       1.2000000000000000 [-]
	 SCS Same-Spin Energy      =      -0.1875828684677370 [Eh]
	 SCS Opposite-Spin Energy  =      -1.9761190572953342 [Eh]
	 SCS Correlation Energy    =      -2.1637019257630712 [Eh]
	 SCS Total Energy          =   -1723.6494089050613638 [Eh]
	-----------------------------------------------------------

  Dipole Moment: [D]
     X:    -2.2063      Y:    -0.2045      Z:     0.2261     Total:     2.2273

*** Psi4 exiting successfully. Buy a developer a beer!
