                               Psi4 1.3.2 release

  ==> Input File <==

--------------------------------------------------------------------------
#psi4
#
memory 32 gb

molecule  {
0 1
 Cl        1.2524280     1.4463390     0.9876330
 Cl        2.7904220    -0.0000060    -1.0049900
 Cl        1.2524060    -1.4463410     0.9876250
  O        0.2860860     0.0000070    -0.9984750
  C       -0.9919604     0.0000029    -0.4019972
  C       -1.7060310    -1.2192040    -0.3956300
  C       -1.7060400     1.2192100    -0.3956360
  C       -3.0551880    -1.2099090    -0.0381990
  C       -3.0551940     1.2099130    -0.0382080
  C       -3.7295220    -0.0000010     0.1434410
  C        1.2953470    -0.0000010    -0.0639540
  H       -1.1690490    -2.1465760    -0.5644520
  H       -1.1690510     2.1465770    -0.5644670
  H       -3.5827340    -2.1524420     0.0828180
  H       -3.5827470     2.1524420     0.0828000
  H       -4.7808520    -0.0000040     0.4187920
units angstrom
no_reorient  #important for SAPT in psi4, default
symmetry c1  #important for SAPT in psi4, default
}

set PROPERTIES_ORIGIN ["COM"]
properties('MP2/aug-cc-pvtz', properties = ['dipole'])
--------------------------------------------------------------------------

    Molecular point group: c1
  Charge       = 0
  Multiplicity = 1
  Basis Set: AUG-CC-PVTZ
    Blend: AUG-CC-PVTZ
  Basis Set: (AUG-CC-PVTZ AUX)
    Blend: AUG-CC-PVTZ-JKFIT

    Orbital Energies [Eh]
    ---------------------

    Doubly Occupied:

       1A   -104.862266     2A   -104.862265     3A   -104.861613
       4A    -20.635746     5A    -11.493108     6A    -11.316380
       7A    -11.257804     8A    -11.257778     9A    -11.253771
      10A    -11.252409    11A    -11.251877    12A    -10.586978
      13A    -10.586968    14A    -10.586291    15A     -8.053681
      16A     -8.053680    17A     -8.053082    18A     -8.051599
      19A     -8.051597    20A     -8.051574    21A     -8.051573
      22A     -8.050872    23A     -8.050868    24A     -1.474335
      25A     -1.217560    26A     -1.160490    27A     -1.115917
      28A     -1.113335    29A     -1.033022    30A     -1.025626
      31A     -0.881195    32A     -0.850098    33A     -0.807508
      34A     -0.733994    35A     -0.697341    36A     -0.696818
      37A     -0.690851    38A     -0.632173    39A     -0.630326
      40A     -0.605692    41A     -0.583122    42A     -0.539338
      43A     -0.535808    44A     -0.514835    45A     -0.506731
      46A     -0.498668    47A     -0.493686    48A     -0.481784
      49A     -0.460403    50A     -0.460332    51A     -0.447520
      52A     -0.350621    53A     -0.348789

  @DF-RHF Final Energy: -1721.47564010582573

   => Energetics <=

    Nuclear Repulsion Energy =            895.4274979656100868
    One-Electron Energy =               -4153.5628785726003116
    Two-Electron Energy =                1536.6597405011643787
    Total Energy =                      -1721.4756401058257325
  Basis Set: (AUG-CC-PVTZ AUX)
    Blend: AUG-CC-PVTZ-RI
    Molecular point group: c1

    Geometry (in Angstrom), charge = 0, multiplicity = 1:

       Center              X                  Y                   Z               Mass
    ------------   -----------------  -----------------  -----------------  -----------------
         CL           1.157326440895     1.446339190577     0.972735127882    34.968852682000
         CL           2.695320440895    -0.000005809423    -1.019887872118    34.968852682000
         CL           1.157304440895    -1.446340809423     0.972727127882    34.968852682000
         O            0.190984440895     0.000007190577    -1.013372872118    15.994914619570
         C           -1.087061959105     0.000003090577    -0.416895072118    12.000000000000
         C           -1.801132559105    -1.219203809423    -0.410527872118    12.000000000000
         C           -1.801141559105     1.219210190577    -0.410533872118    12.000000000000
         C           -3.150289559105    -1.209908809423    -0.053096872118    12.000000000000
         C           -3.150295559105     1.209913190577    -0.053105872118    12.000000000000
         C           -3.824623559105    -0.000000809423     0.128543127882    12.000000000000
         C            1.200245440895    -0.000000809423    -0.078851872118    12.000000000000
         H           -1.264150559105    -2.146575809423    -0.579349872118     1.007825032230
         H           -1.264152559105     2.146577190577    -0.579364872118     1.007825032230
         H           -3.677835559105    -2.152441809423     0.067920127882     1.007825032230
         H           -3.677848559105     2.152442190577     0.067902127882     1.007825032230
         H           -4.875953559105    -0.000003809423     0.403894127882     1.007825032230

  Basis Set: AUG-CC-PVTZ
    Blend: AUG-CC-PVTZ
  Basis Set: (AUG-CC-PVTZ AUX)
    Blend: AUG-CC-PVTZ-JKFIT
	 Reference Energy          =   -1721.4756401058257325 [Eh]
	 Singles Energy            =      -0.0000000000000000 [Eh]
	 Same-Spin Energy          =      -0.5639411223278139 [Eh]
	 Opposite-Spin Energy      =      -1.6498259975846739 [Eh]
	 Correlation Energy        =      -2.2137671199124878 [Eh]
	 Total Energy              =   -1723.6894072257382504 [Eh]

	 ================> DF-SCS-MP2 Energies <==================
	-----------------------------------------------------------
	 SCS Same-Spin Scale       =       0.3333333333333333 [-]
	 SCS Opposite-Spin Scale   =       1.2000000000000000 [-]
	 SCS Same-Spin Energy      =      -0.1879803741092713 [Eh]
	 SCS Opposite-Spin Energy  =      -1.9797911971016084 [Eh]
	 SCS Correlation Energy    =      -2.1677715712108796 [Eh]
	 SCS Total Energy          =   -1723.6434116770365108 [Eh]
	-----------------------------------------------------------

  Dipole Moment: [D]
     X:    -2.2221      Y:    -0.0000      Z:     0.2635     Total:     2.2377

*** Psi4 exiting successfully. Buy a developer a beer!
