                               Psi4 1.3.2 release

  ==> Input File <==

--------------------------------------------------------------------------
#psi4
#
memory 32 gb

molecule  {
0 1
 Cl        1.2524280     1.4463390     0.9876330
 Cl        2.7904220    -0.0000060    -1.0049900
 Cl        1.2524060    -1.4463410     0.9876250
  O        0.2860860     0.0000070    -0.9984750
  C       -0.9527669     0.0000042    -0.5714451
  C       -1.7060310    -1.2192040    -0.3956300
  C       -1.7060400     1.2192100    -0.3956360
  C       -3.0551880    -1.2099090    -0.0381990
  C       -3.0551940     1.2099130    -0.0382080
  C       -3.7295220    -0.0000010     0.1434410
  C        1.2953470    -0.0000010    -0.0639540
  H       -1.1690490    -2.1465760    -0.5644520
  H       -1.1690510     2.1465770    -0.5644670
  H       -3.5827340    -2.1524420     0.0828180
  H       -3.5827470     2.1524420     0.0828000
  H       -4.7808520    -0.0000040     0.4187920
units angstrom
no_reorient  #important for SAPT in psi4, default
symmetry c1  #important for SAPT in psi4, default
}

set PROPERTIES_ORIGIN ["COM"]
properties('MP2/aug-cc-pvtz', properties = ['dipole'])
--------------------------------------------------------------------------

    Molecular point group: c1
  Charge       = 0
  Multiplicity = 1
  Basis Set: AUG-CC-PVTZ
    Blend: AUG-CC-PVTZ
  Basis Set: (AUG-CC-PVTZ AUX)
    Blend: AUG-CC-PVTZ-JKFIT

    Orbital Energies [Eh]
    ---------------------

    Doubly Occupied:

       1A   -104.867578     2A   -104.866864     3A   -104.866864
       4A    -20.643180     5A    -11.501992     6A    -11.319821
       7A    -11.253684     8A    -11.253661     9A    -11.249744
      10A    -11.249414    11A    -11.247284    12A    -10.592160
      13A    -10.591420    14A    -10.591410    15A     -8.058953
      16A     -8.058130    17A     -8.058129    18A     -8.056716
      19A     -8.056714    20A     -8.056019    21A     -8.056017
      22A     -8.055992    23A     -8.055991    24A     -1.508398
      25A     -1.229048    26A     -1.150121    27A     -1.120682
      28A     -1.117331    29A     -1.025138    30A     -1.022627
      31A     -0.906485    32A     -0.845992    33A     -0.805582
      34A     -0.743701    35A     -0.708324    36A     -0.707187
      37A     -0.694005    38A     -0.629647    39A     -0.626038
      40A     -0.596139    41A     -0.592585    42A     -0.545660
      43A     -0.536879    44A     -0.508966    45A     -0.505071
      46A     -0.504104    47A     -0.496564    48A     -0.475139
      49A     -0.464730    50A     -0.461427    51A     -0.451567
      52A     -0.347476    53A     -0.336368

  @DF-RHF Final Energy: -1721.47536785227840

   => Energetics <=

    Nuclear Repulsion Energy =            895.2232433765816495
    One-Electron Energy =               -4152.8557822227794531
    Two-Electron Energy =                1536.1571709939194079
    Total Energy =                      -1721.4753678522783957
  Basis Set: (AUG-CC-PVTZ AUX)
    Blend: AUG-CC-PVTZ-RI
    Molecular point group: c1

    Geometry (in Angstrom), charge = 0, multiplicity = 1:

       Center              X                  Y                   Z               Mass
    ------------   -----------------  -----------------  -----------------  -----------------
         CL           1.155086178626     1.446339116270     0.982420604731    34.968852682000
         CL           2.693080178626    -0.000005883730    -1.010202395269    34.968852682000
         CL           1.155064178626    -1.446340883730     0.982412604731    34.968852682000
         O            0.188744178626     0.000007116270    -1.003687395269    15.994914619570
         C           -1.050108721374     0.000004316270    -0.576657495269    12.000000000000
         C           -1.803372821374    -1.219203883730    -0.400842395269    12.000000000000
         C           -1.803381821374     1.219210116270    -0.400848395269    12.000000000000
         C           -3.152529821374    -1.209908883730    -0.043411395269    12.000000000000
         C           -3.152535821374     1.209913116270    -0.043420395269    12.000000000000
         C           -3.826863821374    -0.000000883730     0.138228604731    12.000000000000
         C            1.198005178626    -0.000000883730    -0.069166395269    12.000000000000
         H           -1.266390821374    -2.146575883730    -0.569664395269     1.007825032230
         H           -1.266392821374     2.146577116270    -0.569679395269     1.007825032230
         H           -3.680075821374    -2.152441883730     0.077605604731     1.007825032230
         H           -3.680088821374     2.152442116270     0.077587604731     1.007825032230
         H           -4.878193821374    -0.000003883730     0.413579604731     1.007825032230

  Basis Set: AUG-CC-PVTZ
    Blend: AUG-CC-PVTZ
  Basis Set: (AUG-CC-PVTZ AUX)
    Blend: AUG-CC-PVTZ-JKFIT
	 Reference Energy          =   -1721.4753678522783957 [Eh]
	 Singles Energy            =      -0.0000000000000000 [Eh]
	 Same-Spin Energy          =      -0.5634947508482275 [Eh]
	 Opposite-Spin Energy      =      -1.6475610812117327 [Eh]
	 Correlation Energy        =      -2.2110558320599605 [Eh]
	 Total Energy              =   -1723.6864236843382514 [Eh]

	 ================> DF-SCS-MP2 Energies <==================
	-----------------------------------------------------------
	 SCS Same-Spin Scale       =       0.3333333333333333 [-]
	 SCS Opposite-Spin Scale   =       1.2000000000000000 [-]
	 SCS Same-Spin Energy      =      -0.1878315836160758 [Eh]
	 SCS Opposite-Spin Energy  =      -1.9770732974540792 [Eh]
	 SCS Correlation Energy    =      -2.1649048810701550 [Eh]
	 SCS Total Energy          =   -1723.6402727333486382 [Eh]
	-----------------------------------------------------------

  Dipole Moment: [D]
     X:    -1.6063      Y:    -0.0000      Z:     0.2407     Total:     1.6243

*** Psi4 exiting successfully. Buy a developer a beer!
