                               Psi4 1.3.2 release

  ==> Input File <==

--------------------------------------------------------------------------
#psi4
#
memory 32 gb

molecule  {
0 1
 Cl        1.2524280     1.4463390     0.9876330
 Cl        2.7904220    -0.0000060    -1.0049900
 Cl        1.2524060    -1.4463410     0.9876250
  O        0.2818978     0.1471219    -0.9869156
  C       -1.0473080     0.0000040    -0.5388570
  C       -1.7060310    -1.2192040    -0.3956300
  C       -1.7060400     1.2192100    -0.3956360
  C       -3.0551880    -1.2099090    -0.0381990
  C       -3.0551940     1.2099130    -0.0382080
  C       -3.7295220    -0.0000010     0.1434410
  C        1.2953470    -0.0000010    -0.0639540
  H       -1.1690490    -2.1465760    -0.5644520
  H       -1.1690510     2.1465770    -0.5644670
  H       -3.5827340    -2.1524420     0.0828180
  H       -3.5827470     2.1524420     0.0828000
  H       -4.7808520    -0.0000040     0.4187920
units angstrom
no_reorient  #important for SAPT in psi4, default
symmetry c1  #important for SAPT in psi4, default
}

set PROPERTIES_ORIGIN ["COM"]
properties('MP2/aug-cc-pvtz', properties = ['dipole'])
--------------------------------------------------------------------------

    Molecular point group: c1
  Charge       = 0
  Multiplicity = 1
  Basis Set: AUG-CC-PVTZ
    Blend: AUG-CC-PVTZ
  Basis Set: (AUG-CC-PVTZ AUX)
    Blend: AUG-CC-PVTZ-JKFIT

    Orbital Energies [Eh]
    ---------------------

    Doubly Occupied:

       1A   -104.868321     2A   -104.862956     3A   -104.855706
       4A    -20.631102     5A    -11.494905     6A    -11.316559
       7A    -11.257014     8A    -11.254668     9A    -11.252491
      10A    -11.250631    11A    -11.250235    12A    -10.592647
      13A    -10.587570    14A    -10.580757    15A     -8.059364
      16A     -8.057261    17A     -8.057229    18A     -8.054357
      19A     -8.052140    20A     -8.052134    21A     -8.047458
      22A     -8.045385    23A     -8.045369    24A     -1.468707
      25A     -1.219088    26A     -1.163135    27A     -1.117120
      28A     -1.111367    29A     -1.034954    30A     -1.028377
      31A     -0.885656    32A     -0.852774    33A     -0.806808
      34A     -0.734381    35A     -0.698766    36A     -0.693522
      37A     -0.687467    38A     -0.634965    39A     -0.629543
      40A     -0.607087    41A     -0.581837    42A     -0.539610
      43A     -0.535047    44A     -0.517319    45A     -0.512231
      46A     -0.499375    47A     -0.493256    48A     -0.477533
      49A     -0.461941    50A     -0.457654    51A     -0.447287
      52A     -0.352826    53A     -0.349346

  @DF-RHF Final Energy: -1721.48288398141881

   => Energetics <=

    Nuclear Repulsion Energy =            894.5056818912597691
    One-Electron Energy =               -4151.7266606634984782
    Two-Electron Energy =                1535.7380947908197868
    Total Energy =                      -1721.4828839814188086
  Basis Set: (AUG-CC-PVTZ AUX)
    Blend: AUG-CC-PVTZ-RI
    Molecular point group: c1

    Geometry (in Angstrom), charge = 0, multiplicity = 1:

       Center              X                  Y                   Z               Mass
    ------------   -----------------  -----------------  -----------------  -----------------
         CL           1.160809145570     1.435130765484     0.979677215306    34.968852682000
         CL           2.698803145570    -0.011214234516    -1.012945784694    34.968852682000
         CL           1.160787145570    -1.457549234516     0.979669215306    34.968852682000
         O            0.190278945570     0.135913665484    -0.994871384694    15.994914619570
         C           -1.138926854430    -0.011204234516    -0.546812784694    12.000000000000
         C           -1.797649854430    -1.230412234516    -0.403585784694    12.000000000000
         C           -1.797658854430     1.208001765484    -0.403591784694    12.000000000000
         C           -3.146806854430    -1.221117234516    -0.046154784694    12.000000000000
         C           -3.146812854430     1.198704765484    -0.046163784694    12.000000000000
         C           -3.821140854430    -0.011209234516     0.135485215306    12.000000000000
         C            1.203728145570    -0.011209234516    -0.071909784694    12.000000000000
         H           -1.260667854430    -2.157784234516    -0.572407784694     1.007825032230
         H           -1.260669854430     2.135368765484    -0.572422784694     1.007825032230
         H           -3.674352854430    -2.163650234516     0.074862215306     1.007825032230
         H           -3.674365854430     2.141233765484     0.074844215306     1.007825032230
         H           -4.872470854430    -0.011212234516     0.410836215306     1.007825032230

  Basis Set: AUG-CC-PVTZ
    Blend: AUG-CC-PVTZ
  Basis Set: (AUG-CC-PVTZ AUX)
    Blend: AUG-CC-PVTZ-JKFIT
	 Reference Energy          =   -1721.4828839814188086 [Eh]
	 Singles Energy            =      -0.0000000000000000 [Eh]
	 Same-Spin Energy          =      -0.5628673734895417 [Eh]
	 Opposite-Spin Energy      =      -1.6470770166477466 [Eh]
	 Correlation Energy        =      -2.2099443901372884 [Eh]
	 Total Energy              =   -1723.6928283715560610 [Eh]

	 ================> DF-SCS-MP2 Energies <==================
	-----------------------------------------------------------
	 SCS Same-Spin Scale       =       0.3333333333333333 [-]
	 SCS Opposite-Spin Scale   =       1.2000000000000000 [-]
	 SCS Same-Spin Energy      =      -0.1876224578298472 [Eh]
	 SCS Opposite-Spin Energy  =      -1.9764924199772960 [Eh]
	 SCS Correlation Energy    =      -2.1641148778071431 [Eh]
	 SCS Total Energy          =   -1723.6469988592259597 [Eh]
	-----------------------------------------------------------

  Dipole Moment: [D]
     X:    -2.1741      Y:    -0.3047      Z:     0.2238     Total:     2.2067

*** Psi4 exiting successfully. Buy a developer a beer!
