                               Psi4 1.3.2 release

  ==> Input File <==

--------------------------------------------------------------------------
#psi4
#
memory 32 gb

molecule  {
0 1
 Cl        1.2524280     1.4463390     0.9876330
 Cl        2.7904220    -0.0000060    -1.0049900
 Cl        1.2524060    -1.4463410     0.9876250
  O        0.2864032     0.0245698    -0.9968954
  C       -1.0473080     0.0000040    -0.5388570
  C       -1.7060310    -1.2192040    -0.3956300
  C       -1.7060400     1.2192100    -0.3956360
  C       -3.0551880    -1.2099090    -0.0381990
  C       -3.0551940     1.2099130    -0.0382080
  C       -3.7295220    -0.0000010     0.1434410
  C        1.2953470    -0.0000010    -0.0639540
  H       -1.1690490    -2.1465760    -0.5644520
  H       -1.1690510     2.1465770    -0.5644670
  H       -3.5827340    -2.1524420     0.0828180
  H       -3.5827470     2.1524420     0.0828000
  H       -4.7808520    -0.0000040     0.4187920
units angstrom
no_reorient  #important for SAPT in psi4, default
symmetry c1  #important for SAPT in psi4, default
}

set PROPERTIES_ORIGIN ["COM"]
properties('MP2/aug-cc-pvtz', properties = ['dipole'])
--------------------------------------------------------------------------

    Molecular point group: c1
  Charge       = 0
  Multiplicity = 1
  Basis Set: AUG-CC-PVTZ
    Blend: AUG-CC-PVTZ
  Basis Set: (AUG-CC-PVTZ AUX)
    Blend: AUG-CC-PVTZ-JKFIT

    Orbital Energies [Eh]
    ---------------------

    Doubly Occupied:

       1A   -104.862955     2A   -104.862429     3A   -104.860834
       4A    -20.631273     5A    -11.494743     6A    -11.316572
       7A    -11.254986     8A    -11.254185     9A    -11.253648
      10A    -11.252981    11A    -11.250865    12A    -10.587579
      13A    -10.587067    14A    -10.585579    15A     -8.054292
      16A     -8.053855    17A     -8.052289    18A     -8.052206
      19A     -8.052183    20A     -8.051635    21A     -8.051633
      22A     -8.050208    23A     -8.050188    24A     -1.469688
      25A     -1.218647    26A     -1.163387    27A     -1.115763
      28A     -1.112612    29A     -1.035104    30A     -1.028856
      31A     -0.885598    32A     -0.853757    33A     -0.807028
      34A     -0.734567    35A     -0.697763    36A     -0.695699
      37A     -0.687576    38A     -0.635124    39A     -0.630810
      40A     -0.607294    41A     -0.581746    42A     -0.538382
      43A     -0.535244    44A     -0.517464    45A     -0.510796
      46A     -0.498606    47A     -0.492423    48A     -0.480696
      49A     -0.460546    50A     -0.459438    51A     -0.447436
      52A     -0.352915    53A     -0.350272

  @DF-RHF Final Energy: -1721.48770181179680

   => Energetics <=

    Nuclear Repulsion Energy =            894.4667290303508480
    One-Electron Energy =               -4151.6500182399577170
    Two-Electron Energy =                1535.6955873978099589
    Total Energy =                      -1721.4877018117967964
  Basis Set: (AUG-CC-PVTZ AUX)
    Blend: AUG-CC-PVTZ-RI
    Molecular point group: c1

    Geometry (in Angstrom), charge = 0, multiplicity = 1:

       Center              X                  Y                   Z               Mass
    ------------   -----------------  -----------------  -----------------  -----------------
         CL           1.160465889005     1.444467741735     0.980437554424    34.968852682000
         CL           2.698459889005    -0.001877258265    -1.012185445576    34.968852682000
         CL           1.160443889005    -1.448212258265     0.980429554424    34.968852682000
         O            0.194441089005     0.022698541735    -1.004090845576    15.994914619570
         C           -1.139270110995    -0.001867258265    -0.546052445576    12.000000000000
         C           -1.797993110995    -1.221075258265    -0.402825445576    12.000000000000
         C           -1.798002110995     1.217338741735    -0.402831445576    12.000000000000
         C           -3.147150110995    -1.211780258265    -0.045394445576    12.000000000000
         C           -3.147156110995     1.208041741735    -0.045403445576    12.000000000000
         C           -3.821484110995    -0.001872258265     0.136245554424    12.000000000000
         C            1.203384889005    -0.001872258265    -0.071149445576    12.000000000000
         H           -1.261011110995    -2.148447258265    -0.571647445576     1.007825032230
         H           -1.261013110995     2.144705741735    -0.571662445576     1.007825032230
         H           -3.674696110995    -2.154313258265     0.075622554424     1.007825032230
         H           -3.674709110995     2.150570741735     0.075604554424     1.007825032230
         H           -4.872814110995    -0.001875258265     0.411596554424     1.007825032230

  Basis Set: AUG-CC-PVTZ
    Blend: AUG-CC-PVTZ
  Basis Set: (AUG-CC-PVTZ AUX)
    Blend: AUG-CC-PVTZ-JKFIT
	 Reference Energy          =   -1721.4877018117967964 [Eh]
	 Singles Energy            =      -0.0000000000000000 [Eh]
	 Same-Spin Energy          =      -0.5626744371554824 [Eh]
	 Opposite-Spin Energy      =      -1.6466023631205955 [Eh]
	 Correlation Energy        =      -2.2092768002760779 [Eh]
	 Total Energy              =   -1723.6969786120728259 [Eh]

	 ================> DF-SCS-MP2 Energies <==================
	-----------------------------------------------------------
	 SCS Same-Spin Scale       =       0.3333333333333333 [-]
	 SCS Opposite-Spin Scale   =       1.2000000000000000 [-]
	 SCS Same-Spin Energy      =      -0.1875581457184941 [Eh]
	 SCS Opposite-Spin Energy  =      -1.9759228357447145 [Eh]
	 SCS Correlation Energy    =      -2.1634809814632088 [Eh]
	 SCS Total Energy          =   -1723.6511827932599772 [Eh]
	-----------------------------------------------------------

  Dipole Moment: [D]
     X:    -2.2212      Y:    -0.0513      Z:     0.2350     Total:     2.2342

*** Psi4 exiting successfully. Buy a developer a beer!
