                               Psi4 1.4a3.dev225

  ==> Input File <==

--------------------------------------------------------------------------
#psi4
#
memory 32 gb

molecule  {
0 1
  P       -0.0856920    -0.0896190    -0.0873670
  O       -0.7432800     0.8715944     1.1185659
  O        0.9171570     0.9699100    -0.7812610
  O       -1.0892020    -0.8008150    -0.9029050
  O        0.9880740    -1.0524230     0.6189030
  H        0.4352420     1.7161240    -1.1815840
  H        1.7168380    -0.5525180     1.0295720
  H       -1.6055880     0.5038950     1.3238320
units angstrom
no_reorient  #important for SAPT in psi4, default
symmetry c1  #important for SAPT in psi4, default
}

set PROPERTIES_ORIGIN ["COM"]
properties('MP2/aug-cc-pvtz', properties = ['dipole'])
--------------------------------------------------------------------------

    Molecular point group: c1
  Charge       = 0
  Multiplicity = 1
  Basis Set: AUG-CC-PVTZ
    Blend: AUG-CC-PVTZ
  Basis Set: (AUG-CC-PVTZ AUX)
    Blend: AUG-CC-PVTZ-JKFIT

    Orbital Energies [Eh]
    ---------------------

    Doubly Occupied:

       1A    -80.131781     2A    -20.625087     3A    -20.620928
       4A    -20.615217     5A    -20.531315     6A     -7.646296
       7A     -5.544859     8A     -5.544396     9A     -5.543170
      10A     -1.461878    11A     -1.395155    12A     -1.387490
      13A     -1.310922    14A     -0.864350    15A     -0.773201
      16A     -0.758034    17A     -0.675607    18A     -0.655867
      19A     -0.613345    20A     -0.596554    21A     -0.588598
      22A     -0.560658    23A     -0.542965    24A     -0.486835
      25A     -0.481366

  @DF-RHF Final Energy:  -642.21124267833761

   => Energetics <=

    Nuclear Repulsion Energy =            275.7812965074714953
    One-Electron Energy =               -1436.0733263692322907
    Two-Electron Energy =                 518.0807871834231264
    Total Energy =                       -642.2112426783376122
  Basis Set: (AUG-CC-PVTZ AUX)
    Blend: AUG-CC-PVTZ-RI
    Molecular point group: c1

    Geometry (in Angstrom), charge = 0, multiplicity = 1:

       Center              X                  Y                   Z               Mass
    ------------   -----------------  -----------------  -----------------  -----------------
         P           -0.076099725755    -0.076524420404    -0.080502934785    30.973761998420
         O           -0.733687725755     0.884688979596     1.125429965215    15.994914619570
         O            0.926749274245     0.983004579596    -0.774396934785    15.994914619570
         O           -1.079609725755    -0.787720420404    -0.896040934785    15.994914619570
         O            0.997666274245    -1.039328420404     0.625767065215    15.994914619570
         H            0.444834274245     1.729218579596    -1.174719934785     1.007825032230
         H            1.726430274245    -0.539423420404     1.036436065215     1.007825032230
         H           -1.595995725755     0.516989579596     1.330696065215     1.007825032230

  Basis Set: AUG-CC-PVTZ
    Blend: AUG-CC-PVTZ
  Basis Set: (AUG-CC-PVTZ AUX)
    Blend: AUG-CC-PVTZ-JKFIT
	 Reference Energy          =    -642.2112426783376122 [Eh]
	 Singles Energy            =      -0.0000000000000000 [Eh]
	 Same-Spin Energy          =      -0.3254201535444140 [Eh]
	 Opposite-Spin Energy      =      -0.9258066567668444 [Eh]
	 Correlation Energy        =      -1.2512268103112585 [Eh]
	 Total Energy              =    -643.4624694886488214 [Eh]

	 ================> DF-SCS-MP2 Energies <==================
	-----------------------------------------------------------
	 SCS Same-Spin Scale       =       0.3333333333333333 [-]
	 SCS Opposite-Spin Scale   =       1.2000000000000000 [-]
	 SCS Same-Spin Energy      =      -0.1084733845148047 [Eh]
	 SCS Opposite-Spin Energy  =      -1.1109679881202132 [Eh]
	 SCS Correlation Energy    =      -1.2194413726350180 [Eh]
	 SCS Total Energy          =    -643.4306840509726726 [Eh]
	-----------------------------------------------------------

  Dipole Moment: [D]
     X:     1.0747      Y:     2.5478      Z:     1.6234     Total:     3.2065

*** Psi4 exiting successfully. Buy a developer a beer!
