                               Psi4 1.3.2 release

  ==> Input File <==

--------------------------------------------------------------------------
#psi4
#
memory 32 gb

molecule  {
0 1
  P       -0.0231299    -0.0025087    -0.0547742
  O       -0.7240330     0.8430000     1.0823540
  O        0.9169770     0.9699500    -0.7813470
  O       -1.0889050    -0.8012840    -0.9028220
  O        0.9882750    -1.0520330     0.6191980
  H        0.4349990     1.7159670    -1.1819520
  H        1.7169640    -0.5519720     1.0297980
  H       -1.6059160     0.5037490     1.3234160
units angstrom
no_reorient  #important for SAPT in psi4, default
symmetry c1  #important for SAPT in psi4, default
}

set PROPERTIES_ORIGIN ["COM"]
properties('MP2/aug-cc-pvtz', properties = ['dipole'])
--------------------------------------------------------------------------

    Molecular point group: c1
  Charge       = 0
  Multiplicity = 1
  Basis Set: AUG-CC-PVTZ
    Blend: AUG-CC-PVTZ
  Basis Set: (AUG-CC-PVTZ AUX)
    Blend: AUG-CC-PVTZ-JKFIT

    Orbital Energies [Eh]
    ---------------------

    Doubly Occupied:

       1A    -80.127560     2A    -20.642629     3A    -20.625981
       4A    -20.620238     5A    -20.503172     6A     -7.642941
       7A     -5.541821     8A     -5.541251     9A     -5.539137
      10A     -1.490840    11A     -1.421037    12A     -1.402980
      13A     -1.244465    14A     -0.886156    15A     -0.796451
      16A     -0.774102    17A     -0.693271    18A     -0.665883
      19A     -0.628217    20A     -0.619734    21A     -0.599450
      22A     -0.552698    23A     -0.526242    24A     -0.441494
      25A     -0.439439

  @DF-RHF Final Energy:  -642.19670996049467

   => Energetics <=

    Nuclear Repulsion Energy =            278.0952175178241532
    One-Electron Energy =               -1440.6494808529439524
    Two-Electron Energy =                 520.3575533746250130
    Total Energy =                       -642.1967099604946725
  Basis Set: (AUG-CC-PVTZ AUX)
    Blend: AUG-CC-PVTZ-RI
    Molecular point group: c1

    Geometry (in Angstrom), charge = 0, multiplicity = 1:

       Center              X                  Y                   Z               Mass
    ------------   -----------------  -----------------  -----------------  -----------------
         P           -0.036505036641    -0.012280631941    -0.052344073292    30.973761998420
         O           -0.737408136641     0.833228068059     1.084784126708    15.994914619570
         O            0.903601863359     0.960178068059    -0.778916873292    15.994914619570
         O           -1.102280136641    -0.811055931941    -0.900391873292    15.994914619570
         O            0.974899863359    -1.061804931941     0.621628126708    15.994914619570
         H            0.421623863359     1.706195068059    -1.179521873292     1.007825032230
         H            1.703588863359    -0.561743931941     1.032228126708     1.007825032230
         H           -1.619291136641     0.493977068059     1.325846126708     1.007825032230

  Basis Set: AUG-CC-PVTZ
    Blend: AUG-CC-PVTZ
  Basis Set: (AUG-CC-PVTZ AUX)
    Blend: AUG-CC-PVTZ-JKFIT
	 Reference Energy          =    -642.1967099604946725 [Eh]
	 Singles Energy            =      -0.0000000000000000 [Eh]
	 Same-Spin Energy          =      -0.3260436126922189 [Eh]
	 Opposite-Spin Energy      =      -0.9254185126231572 [Eh]
	 Correlation Energy        =      -1.2514621253153762 [Eh]
	 Total Energy              =    -643.4481720858100289 [Eh]

	 ================> DF-SCS-MP2 Energies <==================
	-----------------------------------------------------------
	 SCS Same-Spin Scale       =       0.3333333333333333 [-]
	 SCS Opposite-Spin Scale   =       1.2000000000000000 [-]
	 SCS Same-Spin Energy      =      -0.1086812042307396 [Eh]
	 SCS Opposite-Spin Energy  =      -1.1105022151477886 [Eh]
	 SCS Correlation Energy    =      -1.2191834193785283 [Eh]
	 SCS Total Energy          =    -643.4158933798731823 [Eh]
	-----------------------------------------------------------

  Dipole Moment: [D]
     X:     1.5914      Y:     3.6449      Z:     2.2015     Total:     4.5458

*** Psi4 exiting successfully. Buy a developer a beer!
