                               Psi4 1.3.2 release

  ==> Input File <==

--------------------------------------------------------------------------
#psi4
#
memory 32 gb

molecule  {
0 1
  P       -0.0550195    -0.0454682    -0.0714853
  O       -0.7240330     0.8430000     1.0823540
  O        0.9169770     0.9699500    -0.7813470
  O       -1.0889050    -0.8012840    -0.9028220
  O        0.9882750    -1.0520330     0.6191980
  H        0.4349990     1.7159670    -1.1819520
  H        1.7169640    -0.5519720     1.0297980
  H       -1.6059160     0.5037490     1.3234160
units angstrom
no_reorient  #important for SAPT in psi4, default
symmetry c1  #important for SAPT in psi4, default
}

set PROPERTIES_ORIGIN ["COM"]
properties('MP2/aug-cc-pvtz', properties = ['dipole'])
--------------------------------------------------------------------------

    Molecular point group: c1
  Charge       = 0
  Multiplicity = 1
  Basis Set: AUG-CC-PVTZ
    Blend: AUG-CC-PVTZ
  Basis Set: (AUG-CC-PVTZ AUX)
    Blend: AUG-CC-PVTZ-JKFIT

    Orbital Energies [Eh]
    ---------------------

    Doubly Occupied:

       1A    -80.127156     2A    -20.632248     3A    -20.622413
       4A    -20.618495     5A    -20.514991     6A     -7.642104
       7A     -5.540831     8A     -5.540435     9A     -5.538622
      10A     -1.476120    11A     -1.407359    12A     -1.398588
      13A     -1.275477    14A     -0.875436    15A     -0.780508
      16A     -0.773144    17A     -0.682907    18A     -0.662444
      19A     -0.620938    20A     -0.605560    21A     -0.593717
      22A     -0.549508    23A     -0.544840    24A     -0.462162
      25A     -0.458854

  @DF-RHF Final Energy:  -642.21048313185895

   => Energetics <=

    Nuclear Repulsion Energy =            277.7922009623673034
    One-Electron Energy =               -1440.1156521224611424
    Two-Electron Energy =                 520.1129680282348318
    Total Energy =                       -642.2104831318589504
  Basis Set: (AUG-CC-PVTZ AUX)
    Blend: AUG-CC-PVTZ-RI
    Molecular point group: c1

    Geometry (in Angstrom), charge = 0, multiplicity = 1:

       Center              X                  Y                   Z               Mass
    ------------   -----------------  -----------------  -----------------  -----------------
         P           -0.058313271286    -0.041659202266    -0.063772237646    30.973761998420
         O           -0.727326771286     0.846808997734     1.090067062354    15.994914619570
         O            0.913683228714     0.973758997734    -0.773633937646    15.994914619570
         O           -1.092198771286    -0.797475002266    -0.895108937646    15.994914619570
         O            0.984981228714    -1.048224002266     0.626911062354    15.994914619570
         H            0.431705228714     1.719775997734    -1.174238937646     1.007825032230
         H            1.713670228714    -0.548163002266     1.037511062354     1.007825032230
         H           -1.609209771286     0.507557997734     1.331129062354     1.007825032230

  Basis Set: AUG-CC-PVTZ
    Blend: AUG-CC-PVTZ
  Basis Set: (AUG-CC-PVTZ AUX)
    Blend: AUG-CC-PVTZ-JKFIT
	 Reference Energy          =    -642.2104831318589504 [Eh]
	 Singles Energy            =      -0.0000000000000000 [Eh]
	 Same-Spin Energy          =      -0.3255645952571000 [Eh]
	 Opposite-Spin Energy      =      -0.9248579927743886 [Eh]
	 Correlation Energy        =      -1.2504225880314885 [Eh]
	 Total Energy              =    -643.4609057198904338 [Eh]

	 ================> DF-SCS-MP2 Energies <==================
	-----------------------------------------------------------
	 SCS Same-Spin Scale       =       0.3333333333333333 [-]
	 SCS Opposite-Spin Scale   =       1.2000000000000000 [-]
	 SCS Same-Spin Energy      =      -0.1085215317523666 [Eh]
	 SCS Opposite-Spin Energy  =      -1.1098295913292664 [Eh]
	 SCS Correlation Energy    =      -1.2183511230816331 [Eh]
	 SCS Total Energy          =    -643.4288342549406252 [Eh]
	-----------------------------------------------------------

  Dipole Moment: [D]
     X:     1.2461      Y:     3.1826      Z:     2.0194     Total:     3.9698

*** Psi4 exiting successfully. Buy a developer a beer!
