                               Psi4 1.3.2 release

  ==> Input File <==

--------------------------------------------------------------------------
#psi4
#
memory 32 gb

molecule  {
0 1
  P       -0.1695019    -0.2290241    -0.1297270
  O       -0.7240330     0.8430000     1.0823540
  O        0.9169770     0.9699500    -0.7813470
  O       -1.0889050    -0.8012840    -0.9028220
  O        0.9882750    -1.0520330     0.6191980
  H        0.4349990     1.7159670    -1.1819520
  H        1.7169640    -0.5519720     1.0297980
  H       -1.6059160     0.5037490     1.3234160
units angstrom
no_reorient  #important for SAPT in psi4, default
symmetry c1  #important for SAPT in psi4, default
}

set PROPERTIES_ORIGIN ["COM"]
properties('MP2/aug-cc-pvtz', properties = ['dipole'])
--------------------------------------------------------------------------

    Molecular point group: c1
  Charge       = 0
  Multiplicity = 1
  Basis Set: AUG-CC-PVTZ
    Blend: AUG-CC-PVTZ
  Basis Set: (AUG-CC-PVTZ AUX)
    Blend: AUG-CC-PVTZ-JKFIT

    Orbital Energies [Eh]
    ---------------------

    Doubly Occupied:

       1A    -80.117599     2A    -20.615986     3A    -20.604701
       4A    -20.587690     5A    -20.557060     6A     -7.639629
       7A     -5.538571     8A     -5.536697     9A     -5.536326
      10A     -1.459964    11A     -1.393823    12A     -1.367112
      13A     -1.340813    14A     -0.846899    15A     -0.762679
      16A     -0.716568    17A     -0.678153    18A     -0.649356
      19A     -0.613501    20A     -0.599922    21A     -0.574969
      22A     -0.546051    23A     -0.542217    24A     -0.517646
      25A     -0.513936

  @DF-RHF Final Energy:  -642.16577656404968

   => Energetics <=

    Nuclear Repulsion Energy =            277.0849966825301181
    One-Electron Energy =               -1438.7858121551068962
    Two-Electron Energy =                 519.5350389085270990
    Total Energy =                       -642.1657765640496791
  Basis Set: (AUG-CC-PVTZ AUX)
    Blend: AUG-CC-PVTZ-RI
    Molecular point group: c1

    Geometry (in Angstrom), charge = 0, multiplicity = 1:

       Center              X                  Y                   Z               Mass
    ------------   -----------------  -----------------  -----------------  -----------------
         P           -0.136603969254    -0.167186964849    -0.103601795236    30.973761998420
         O           -0.691135069254     0.904837135151     1.108479204764    15.994914619570
         O            0.949874930746     1.031787135151    -0.755221795236    15.994914619570
         O           -1.056007069254    -0.739446864849    -0.876696795236    15.994914619570
         O            1.021172930746    -0.990195864849     0.645323204764    15.994914619570
         H            0.467896930746     1.777804135151    -1.155826795236     1.007825032230
         H            1.749861930746    -0.490134864849     1.055923204764     1.007825032230
         H           -1.573018069254     0.565586135151     1.349541204764     1.007825032230

  Basis Set: AUG-CC-PVTZ
    Blend: AUG-CC-PVTZ
  Basis Set: (AUG-CC-PVTZ AUX)
    Blend: AUG-CC-PVTZ-JKFIT
	 Reference Energy          =    -642.1657765640496791 [Eh]
	 Singles Energy            =      -0.0000000000000000 [Eh]
	 Same-Spin Energy          =      -0.3237245758093031 [Eh]
	 Opposite-Spin Energy      =      -0.9236791499589581 [Eh]
	 Correlation Energy        =      -1.2474037257682613 [Eh]
	 Total Energy              =    -643.4131802898178876 [Eh]

	 ================> DF-SCS-MP2 Energies <==================
	-----------------------------------------------------------
	 SCS Same-Spin Scale       =       0.3333333333333333 [-]
	 SCS Opposite-Spin Scale   =       1.2000000000000000 [-]
	 SCS Same-Spin Energy      =      -0.1079081919364344 [Eh]
	 SCS Opposite-Spin Energy  =      -1.1084149799507497 [Eh]
	 SCS Correlation Energy    =      -1.2163231718871841 [Eh]
	 SCS Total Energy          =    -643.3820997359368903 [Eh]
	-----------------------------------------------------------

  Dipole Moment: [D]
     X:     0.0752      Y:     1.2180      Z:     1.4475     Total:     1.8932

*** Psi4 exiting successfully. Buy a developer a beer!
