                               Psi4 1.4a3.dev225

  ==> Input File <==

--------------------------------------------------------------------------
#psi4
#
memory 32 gb

molecule  {
0 1
  P       -0.0856920    -0.0896190    -0.0873670
  O       -0.7236680     0.8429270     1.0826000
  O        0.9171570     0.9699100    -0.7812610
  O       -1.0552028    -0.7767194    -0.8752743
  O        0.9880740    -1.0524230     0.6189030
  H        0.4352420     1.7161240    -1.1815840
  H        1.7168380    -0.5525180     1.0295720
  H       -1.6055880     0.5038950     1.3238320
units angstrom
no_reorient  #important for SAPT in psi4, default
symmetry c1  #important for SAPT in psi4, default
}

set PROPERTIES_ORIGIN ["COM"]
properties('MP2/aug-cc-pvtz', properties = ['dipole'])
--------------------------------------------------------------------------

    Molecular point group: c1
  Charge       = 0
  Multiplicity = 1
  Basis Set: AUG-CC-PVTZ
    Blend: AUG-CC-PVTZ
  Basis Set: (AUG-CC-PVTZ AUX)
    Blend: AUG-CC-PVTZ-JKFIT

    Orbital Energies [Eh]
    ---------------------

    Doubly Occupied:

       1A    -80.115243     2A    -20.617676     3A    -20.614433
       4A    -20.613475     5A    -20.524448     6A     -7.633179
       7A     -5.531349     8A     -5.531012     9A     -5.530659
      10A     -1.463879    11A     -1.390641    12A     -1.388510
      13A     -1.328338    14A     -0.861149    15A     -0.771184
      16A     -0.759439    17A     -0.674562    18A     -0.656939
      19A     -0.612278    20A     -0.594826    21A     -0.586492
      22A     -0.565064    23A     -0.541394    24A     -0.494339
      25A     -0.487782

  @DF-RHF Final Energy:  -642.21745024905135

   => Energetics <=

    Nuclear Repulsion Energy =            279.7122968926773297
    One-Electron Energy =               -1444.0829171711534400
    Two-Electron Energy =                 522.1531700294247003
    Total Energy =                       -642.2174502490513532
  Basis Set: (AUG-CC-PVTZ AUX)
    Blend: AUG-CC-PVTZ-RI
    Molecular point group: c1

    Geometry (in Angstrom), charge = 0, multiplicity = 1:

       Center              X                  Y                   Z               Mass
    ------------   -----------------  -----------------  -----------------  -----------------
         P           -0.084851856159    -0.075778065355    -0.079142197526    30.973761998420
         O           -0.722827856159     0.856767934645     1.090824802474    15.994914619570
         O            0.917997143841     0.983750934645    -0.773036197526    15.994914619570
         O           -1.054362656159    -0.762878465355    -0.867049497526    15.994914619570
         O            0.988914143841    -1.038582065355     0.627127802474    15.994914619570
         H            0.436082143841     1.729964934645    -1.173359197526     1.007825032230
         H            1.717678143841    -0.538677065355     1.037796802474     1.007825032230
         H           -1.604747856159     0.517735934645     1.332056802474     1.007825032230

  Basis Set: AUG-CC-PVTZ
    Blend: AUG-CC-PVTZ
  Basis Set: (AUG-CC-PVTZ AUX)
    Blend: AUG-CC-PVTZ-JKFIT
	 Reference Energy          =    -642.2174502490513532 [Eh]
	 Singles Energy            =      -0.0000000000000000 [Eh]
	 Same-Spin Energy          =      -0.3238647057093895 [Eh]
	 Opposite-Spin Energy      =      -0.9215173176698107 [Eh]
	 Correlation Energy        =      -1.2453820233792001 [Eh]
	 Total Energy              =    -643.4628322724305463 [Eh]

	 ================> DF-SCS-MP2 Energies <==================
	-----------------------------------------------------------
	 SCS Same-Spin Scale       =       0.3333333333333333 [-]
	 SCS Opposite-Spin Scale   =       1.2000000000000000 [-]
	 SCS Same-Spin Energy      =      -0.1079549019031298 [Eh]
	 SCS Opposite-Spin Energy  =      -1.1058207812037728 [Eh]
	 SCS Correlation Energy    =      -1.2137756831069026 [Eh]
	 SCS Total Energy          =    -643.4312259321582133 [Eh]
	-----------------------------------------------------------

  Dipole Moment: [D]
     X:     0.7635      Y:     2.5869      Z:     1.7177     Total:     3.1977

*** Psi4 exiting successfully. Buy a developer a beer!
