                               Psi4 1.4a3.dev225

  ==> Input File <==

--------------------------------------------------------------------------
#psi4
#
memory 32 gb

molecule  {
0 1
  P       -0.0856920    -0.0896190    -0.0873670
  O       -0.7315128     0.8543940     1.0969864
  O        0.9171570     0.9699100    -0.7812610
  O       -1.0892020    -0.8008150    -0.9029050
  O        0.9880740    -1.0524230     0.6189030
  H        0.4352420     1.7161240    -1.1815840
  H        1.7168380    -0.5525180     1.0295720
  H       -1.6055880     0.5038950     1.3238320
units angstrom
no_reorient  #important for SAPT in psi4, default
symmetry c1  #important for SAPT in psi4, default
}

set PROPERTIES_ORIGIN ["COM"]
properties('MP2/aug-cc-pvtz', properties = ['dipole'])
--------------------------------------------------------------------------

    Molecular point group: c1
  Charge       = 0
  Multiplicity = 1
  Basis Set: AUG-CC-PVTZ
    Blend: AUG-CC-PVTZ
  Basis Set: (AUG-CC-PVTZ AUX)
    Blend: AUG-CC-PVTZ-JKFIT

    Orbital Energies [Eh]
    ---------------------

    Doubly Occupied:

       1A    -80.128341     2A    -20.622973     3A    -20.618691
       4A    -20.617171     5A    -20.528390     6A     -7.643299
       7A     -5.541847     8A     -5.541453     9A     -5.540197
      10A     -1.463103    11A     -1.393601    12A     -1.390966
      13A     -1.308584    14A     -0.865061    15A     -0.773088
      16A     -0.761034    17A     -0.675653    18A     -0.656897
      19A     -0.613828    20A     -0.595039    21A     -0.588511
      22A     -0.560498    23A     -0.543618    24A     -0.484629
      25A     -0.479409

  @DF-RHF Final Energy:  -642.21413739912043

   => Energetics <=

    Nuclear Repulsion Energy =            276.8208860771852642
    One-Electron Energy =               -1438.1982857746470472
    Two-Electron Energy =                 519.1632622983414649
    Total Energy =                       -642.2141373991204318
  Basis Set: (AUG-CC-PVTZ AUX)
    Blend: AUG-CC-PVTZ-RI
    Molecular point group: c1

    Geometry (in Angstrom), charge = 0, multiplicity = 1:

       Center              X                  Y                   Z               Mass
    ------------   -----------------  -----------------  -----------------  -----------------
         P           -0.078020743544    -0.073716422377    -0.076980040352    30.973761998420
         O           -0.723841543544     0.870296577623     1.107373359648    15.994914619570
         O            0.924828256456     0.985812577623    -0.770874040352    15.994914619570
         O           -1.081530743544    -0.784912422377    -0.892518040352    15.994914619570
         O            0.995745256456    -1.036520422377     0.629289959648    15.994914619570
         H            0.442913256456     1.732026577623    -1.171197040352     1.007825032230
         H            1.724509256456    -0.536615422377     1.039958959648     1.007825032230
         H           -1.597916743544     0.519797577623     1.334218959648     1.007825032230

  Basis Set: AUG-CC-PVTZ
    Blend: AUG-CC-PVTZ
  Basis Set: (AUG-CC-PVTZ AUX)
    Blend: AUG-CC-PVTZ-JKFIT
	 Reference Energy          =    -642.2141373991204318 [Eh]
	 Singles Energy            =      -0.0000000000000000 [Eh]
	 Same-Spin Energy          =      -0.3252006506903548 [Eh]
	 Opposite-Spin Energy      =      -0.9249339342190095 [Eh]
	 Correlation Energy        =      -1.2501345849093644 [Eh]
	 Total Energy              =    -643.4642719840297787 [Eh]

	 ================> DF-SCS-MP2 Energies <==================
	-----------------------------------------------------------
	 SCS Same-Spin Scale       =       0.3333333333333333 [-]
	 SCS Opposite-Spin Scale   =       1.2000000000000000 [-]
	 SCS Same-Spin Energy      =      -0.1084002168967849 [Eh]
	 SCS Opposite-Spin Energy  =      -1.1099207210628113 [Eh]
	 SCS Correlation Energy    =      -1.2183209379595963 [Eh]
	 SCS Total Energy          =    -643.4324583370799928 [Eh]
	-----------------------------------------------------------

  Dipole Moment: [D]
     X:     0.9842      Y:     2.6437      Z:     1.7606     Total:     3.3253

*** Psi4 exiting successfully. Buy a developer a beer!
