                               Psi4 1.3.2 release

  ==> Input File <==

--------------------------------------------------------------------------
#psi4
#
memory 32 gb

molecule  {
0 1
  P       -0.1004589    -0.1121900    -0.0949682
  O       -0.7240330     0.8430000     1.0823540
  O        0.9169770     0.9699500    -0.7813470
  O       -1.0889050    -0.8012840    -0.9028220
  O        0.9882750    -1.0520330     0.6191980
  H        0.4349990     1.7159670    -1.1819520
  H        1.7169640    -0.5519720     1.0297980
  H       -1.6059160     0.5037490     1.3234160
units angstrom
no_reorient  #important for SAPT in psi4, default
symmetry c1  #important for SAPT in psi4, default
}

set PROPERTIES_ORIGIN ["COM"]
properties('MP2/aug-cc-pvtz', properties = ['dipole'])
--------------------------------------------------------------------------

    Molecular point group: c1
  Charge       = 0
  Multiplicity = 1
  Basis Set: AUG-CC-PVTZ
    Blend: AUG-CC-PVTZ
  Basis Set: (AUG-CC-PVTZ AUX)
    Blend: AUG-CC-PVTZ-JKFIT

    Orbital Energies [Eh]
    ---------------------

    Doubly Occupied:

       1A    -80.124972     2A    -20.616660     3A    -20.616337
       4A    -20.616039     5A    -20.531914     6A     -7.640784
       7A     -5.539175     8A     -5.538855     9A     -5.537921
      10A     -1.459779    11A     -1.390994    12A     -1.383783
      13A     -1.322562    14A     -0.861348    15A     -0.772376
      16A     -0.754211    17A     -0.673936    18A     -0.655164
      19A     -0.611184    20A     -0.591837    21A     -0.585691
      22A     -0.562877    23A     -0.541448    24A     -0.493403
      25A     -0.487183

  @DF-RHF Final Energy:  -642.21427756911794

   => Energetics <=

    Nuclear Repulsion Energy =            277.4189801785185523
    One-Electron Energy =               -1439.4456502808877758
    Two-Electron Energy =                 519.8123925332513409
    Total Energy =                       -642.2142775691179395
  Basis Set: (AUG-CC-PVTZ AUX)
    Blend: AUG-CC-PVTZ-RI
    Molecular point group: c1

    Geometry (in Angstrom), charge = 0, multiplicity = 1:

       Center              X                  Y                   Z               Mass
    ------------   -----------------  -----------------  -----------------  -----------------
         P           -0.089387762572    -0.087288017627    -0.079831410333    30.973761998420
         O           -0.712961862572     0.867901982373     1.097490789667    15.994914619570
         O            0.928048137428     0.994851982373    -0.766210210333    15.994914619570
         O           -1.077833862572    -0.776382017627    -0.887685210333    15.994914619570
         O            0.999346137428    -1.027131017627     0.634334789667    15.994914619570
         H            0.446070137428     1.740868982373    -1.166815210333     1.007825032230
         H            1.728035137428    -0.527070017627     1.044934789667     1.007825032230
         H           -1.594844862572     0.528650982373     1.338552789667     1.007825032230

  Basis Set: AUG-CC-PVTZ
    Blend: AUG-CC-PVTZ
  Basis Set: (AUG-CC-PVTZ AUX)
    Blend: AUG-CC-PVTZ-JKFIT
	 Reference Energy          =    -642.2142775691179395 [Eh]
	 Singles Energy            =      -0.0000000000000000 [Eh]
	 Same-Spin Energy          =      -0.3248167264464322 [Eh]
	 Opposite-Spin Energy      =      -0.9241708258172189 [Eh]
	 Correlation Energy        =      -1.2489875522636511 [Eh]
	 Total Energy              =    -643.4632651213815961 [Eh]

	 ================> DF-SCS-MP2 Energies <==================
	-----------------------------------------------------------
	 SCS Same-Spin Scale       =       0.3333333333333333 [-]
	 SCS Opposite-Spin Scale   =       1.2000000000000000 [-]
	 SCS Same-Spin Energy      =      -0.1082722421488107 [Eh]
	 SCS Opposite-Spin Energy  =      -1.1090049909806625 [Eh]
	 SCS Correlation Energy    =      -1.2172772331294732 [Eh]
	 SCS Total Energy          =    -643.4315548022474331 [Eh]
	-----------------------------------------------------------

  Dipole Moment: [D]
     X:     0.7684      Y:     2.4677      Z:     1.7749     Total:     3.1353

*** Psi4 exiting successfully. Buy a developer a beer!
