                               Psi4 1.3.2 release

  ==> Input File <==

--------------------------------------------------------------------------
#psi4
#
memory 32 gb

molecule  {
0 1
  P       -0.0856380    -0.0896540    -0.0873550
  O       -0.7398378     0.8210239     1.0909061
  O        0.9169770     0.9699500    -0.7813470
  O       -1.0889050    -0.8012840    -0.9028220
  O        0.9882750    -1.0520330     0.6191980
  H        0.4349990     1.7159670    -1.1819520
  H        1.7169640    -0.5519720     1.0297980
  H       -1.6059160     0.5037490     1.3234160
units angstrom
no_reorient  #important for SAPT in psi4, default
symmetry c1  #important for SAPT in psi4, default
}

set PROPERTIES_ORIGIN ["COM"]
properties('MP2/aug-cc-pvtz', properties = ['dipole'])
--------------------------------------------------------------------------

    Molecular point group: c1
  Charge       = 0
  Multiplicity = 1
  Basis Set: AUG-CC-PVTZ
    Blend: AUG-CC-PVTZ
  Basis Set: (AUG-CC-PVTZ AUX)
    Blend: AUG-CC-PVTZ-JKFIT

    Orbital Energies [Eh]
    ---------------------

    Doubly Occupied:

       1A    -80.126442     2A    -20.623486     3A    -20.617041
       4A    -20.615659     5A    -20.525439     6A     -7.641656
       7A     -5.540178     8A     -5.539846     9A     -5.538588
      10A     -1.465454    11A     -1.397569    12A     -1.392807
      13A     -1.306434    14A     -0.868857    15A     -0.775967
      16A     -0.765979    17A     -0.676371    18A     -0.657210
      19A     -0.615052    20A     -0.596120    21A     -0.588674
      22A     -0.560018    23A     -0.544092    24A     -0.482432
      25A     -0.477252

  @DF-RHF Final Energy:  -642.21648324818420

   => Energetics <=

    Nuclear Repulsion Energy =            277.5948829650120047
    One-Electron Energy =               -1439.7454866544564993
    Two-Electron Energy =                 519.9341204412603474
    Total Energy =                       -642.2164832481842041
  Basis Set: (AUG-CC-PVTZ AUX)
    Blend: AUG-CC-PVTZ-RI
    Molecular point group: c1

    Geometry (in Angstrom), charge = 0, multiplicity = 1:

       Center              X                  Y                   Z               Mass
    ------------   -----------------  -----------------  -----------------  -----------------
         P           -0.076672079332    -0.068288758154    -0.076021143178    30.973761998420
         O           -0.730871879332     0.842389141846     1.102239956822    15.994914619570
         O            0.925942920668     0.991315241846    -0.770013143178    15.994914619570
         O           -1.079939079332    -0.779918758154    -0.891488143178    15.994914619570
         O            0.997240920668    -1.030667758154     0.630531856822    15.994914619570
         H            0.443964920668     1.737332241846    -1.170618143178     1.007825032230
         H            1.725929920668    -0.530606758154     1.041131856822     1.007825032230
         H           -1.596950079332     0.525114241846     1.334749856822     1.007825032230

  Basis Set: AUG-CC-PVTZ
    Blend: AUG-CC-PVTZ
  Basis Set: (AUG-CC-PVTZ AUX)
    Blend: AUG-CC-PVTZ-JKFIT
	 Reference Energy          =    -642.2164832481842041 [Eh]
	 Singles Energy            =      -0.0000000000000000 [Eh]
	 Same-Spin Energy          =      -0.3247319792432073 [Eh]
	 Opposite-Spin Energy      =      -0.9236089323293718 [Eh]
	 Correlation Energy        =      -1.2483409115725792 [Eh]
	 Total Energy              =    -643.4648241597567448 [Eh]

	 ================> DF-SCS-MP2 Energies <==================
	-----------------------------------------------------------
	 SCS Same-Spin Scale       =       0.3333333333333333 [-]
	 SCS Opposite-Spin Scale   =       1.2000000000000000 [-]
	 SCS Same-Spin Energy      =      -0.1082439930810691 [Eh]
	 SCS Opposite-Spin Energy  =      -1.1083307187952460 [Eh]
	 SCS Correlation Energy    =      -1.2165747118763151 [Eh]
	 SCS Total Energy          =    -643.4330579600605233 [Eh]
	-----------------------------------------------------------

  Dipole Moment: [D]
     X:     0.9668      Y:     2.7593      Z:     1.8222     Total:     3.4451

*** Psi4 exiting successfully. Buy a developer a beer!
