                               Psi4 1.3.2 release

  ==> Input File <==

--------------------------------------------------------------------------
#psi4
#
memory 32 gb

molecule  {
0 1
  P       -0.0856380    -0.0896540    -0.0873550
  O       -0.8157784     0.7071191     1.1282347
  O        0.9169770     0.9699500    -0.7813470
  O       -1.0889050    -0.8012840    -0.9028220
  O        0.9882750    -1.0520330     0.6191980
  H        0.4349990     1.7159670    -1.1819520
  H        1.7169640    -0.5519720     1.0297980
  H       -1.6059160     0.5037490     1.3234160
units angstrom
no_reorient  #important for SAPT in psi4, default
symmetry c1  #important for SAPT in psi4, default
}

set PROPERTIES_ORIGIN ["COM"]
properties('MP2/aug-cc-pvtz', properties = ['dipole'])
--------------------------------------------------------------------------

    Molecular point group: c1
  Charge       = 0
  Multiplicity = 1
  Basis Set: AUG-CC-PVTZ
    Blend: AUG-CC-PVTZ
  Basis Set: (AUG-CC-PVTZ AUX)
    Blend: AUG-CC-PVTZ-JKFIT

    Orbital Energies [Eh]
    ---------------------

    Doubly Occupied:

       1A    -80.129871     2A    -20.633000     3A    -20.616911
       4A    -20.600248     5A    -20.520523     6A     -7.644494
       7A     -5.543081     8A     -5.542603     9A     -5.541529
      10A     -1.473518    11A     -1.419314    12A     -1.395626
      13A     -1.303763    14A     -0.889824    15A     -0.797771
      16A     -0.771532    17A     -0.678949    18A     -0.652301
      19A     -0.619620    20A     -0.604877    21A     -0.590619
      22A     -0.558355    23A     -0.545199    24A     -0.478863
      25A     -0.472771

  @DF-RHF Final Energy:  -642.19871932457704

   => Energetics <=

    Nuclear Repulsion Energy =            278.0296097937574018
    One-Electron Energy =               -1440.4063327344654226
    Two-Electron Energy =                 520.1780036161310363
    Total Energy =                       -642.1987193245770413
  Basis Set: (AUG-CC-PVTZ AUX)
    Blend: AUG-CC-PVTZ-RI
    Molecular point group: c1

    Geometry (in Angstrom), charge = 0, multiplicity = 1:

       Center              X                  Y                   Z               Mass
    ------------   -----------------  -----------------  -----------------  -----------------
         P           -0.064274631892    -0.049693582831    -0.082115108152    30.973761998420
         O           -0.794415031892     0.747079517169     1.133474591848    15.994914619570
         O            0.938340368108     1.009910417169    -0.776107108152    15.994914619570
         O           -1.067541631892    -0.761323582831    -0.897582108152    15.994914619570
         O            1.009638368108    -1.012072582831     0.624437891848    15.994914619570
         H            0.456362368108     1.755927417169    -1.176712108152     1.007825032230
         H            1.738327368108    -0.512011582831     1.035037891848     1.007825032230
         H           -1.584552631892     0.543709417169     1.328655891848     1.007825032230

  Basis Set: AUG-CC-PVTZ
    Blend: AUG-CC-PVTZ
  Basis Set: (AUG-CC-PVTZ AUX)
    Blend: AUG-CC-PVTZ-JKFIT
	 Reference Energy          =    -642.1987193245770413 [Eh]
	 Singles Energy            =      -0.0000000000000000 [Eh]
	 Same-Spin Energy          =      -0.3233671079716921 [Eh]
	 Opposite-Spin Energy      =      -0.9206119230803230 [Eh]
	 Correlation Energy        =      -1.2439790310520151 [Eh]
	 Total Energy              =    -643.4426983556290907 [Eh]

	 ================> DF-SCS-MP2 Energies <==================
	-----------------------------------------------------------
	 SCS Same-Spin Scale       =       0.3333333333333333 [-]
	 SCS Opposite-Spin Scale   =       1.2000000000000000 [-]
	 SCS Same-Spin Energy      =      -0.1077890359905640 [Eh]
	 SCS Opposite-Spin Energy  =      -1.1047343076963876 [Eh]
	 SCS Correlation Energy    =      -1.2125233436869516 [Eh]
	 SCS Total Energy          =    -643.4112426682639807 [Eh]
	-----------------------------------------------------------

  Dipole Moment: [D]
     X:     1.2009      Y:     3.0282      Z:     1.6695     Total:     3.6605

*** Psi4 exiting successfully. Buy a developer a beer!
