                               Psi4 1.4a3.dev225

  ==> Input File <==

--------------------------------------------------------------------------
#psi4
#
memory 32 gb

molecule  {
0 1
  P       -0.0856920    -0.0896190    -0.0873670
  O       -0.7236680     0.8429270     1.0826000
  O        0.9171570     0.9699100    -0.7812610
  O       -1.0892020    -0.8008150    -0.9029050
  O        0.9880740    -1.0524230     0.6189030
  H        0.4352420     1.7161240    -1.1815840
  H        1.7168380    -0.5525180     1.0295720
  H       -1.6508077     0.4865114     1.3362010
units angstrom
no_reorient  #important for SAPT in psi4, default
symmetry c1  #important for SAPT in psi4, default
}

set PROPERTIES_ORIGIN ["COM"]
properties('MP2/aug-cc-pvtz', properties = ['dipole'])
--------------------------------------------------------------------------

    Molecular point group: c1
  Charge       = 0
  Multiplicity = 1
  Basis Set: AUG-CC-PVTZ
    Blend: AUG-CC-PVTZ
  Basis Set: (AUG-CC-PVTZ AUX)
    Blend: AUG-CC-PVTZ-JKFIT

    Orbital Energies [Eh]
    ---------------------

    Doubly Occupied:

       1A    -80.124873     2A    -20.621275     3A    -20.620999
       4A    -20.616466     5A    -20.525481     6A     -7.640183
       7A     -5.538714     8A     -5.538367     9A     -5.537095
      10A     -1.461566    11A     -1.391598    12A     -1.384440
      13A     -1.305688    14A     -0.861313    15A     -0.770149
      16A     -0.755841    17A     -0.672958    18A     -0.655330
      19A     -0.613053    20A     -0.592330    21A     -0.587111
      22A     -0.559232    23A     -0.542167    24A     -0.482296
      25A     -0.476949

  @DF-RHF Final Energy:  -642.21054635174289

   => Energetics <=

    Nuclear Repulsion Energy =            277.2169174724902518
    One-Electron Energy =               -1439.1039778159492926
    Two-Electron Energy =                 519.6765139917162060
    Total Energy =                       -642.2105463517428916
  Basis Set: (AUG-CC-PVTZ AUX)
    Blend: AUG-CC-PVTZ-RI
    Molecular point group: c1

    Geometry (in Angstrom), charge = 0, multiplicity = 1:

       Center              X                  Y                   Z               Mass
    ------------   -----------------  -----------------  -----------------  -----------------
         P           -0.078836276228    -0.071665598946    -0.074758665092    30.973761998420
         O           -0.716812276228     0.860880401054     1.095208334908    15.994914619570
         O            0.924012723772     0.987863401054    -0.768652665092    15.994914619570
         O           -1.082346276228    -0.782861598946    -0.890296665092    15.994914619570
         O            0.994929723772    -1.034469598946     0.631511334908    15.994914619570
         H            0.442097723772     1.734077401054    -1.168975665092     1.007825032230
         H            1.723693723772    -0.534564598946     1.042180334908     1.007825032230
         H           -1.643951976228     0.504464801054     1.348809334908     1.007825032230

  Basis Set: AUG-CC-PVTZ
    Blend: AUG-CC-PVTZ
  Basis Set: (AUG-CC-PVTZ AUX)
    Blend: AUG-CC-PVTZ-JKFIT
	 Reference Energy          =    -642.2105463517428916 [Eh]
	 Singles Energy            =      -0.0000000000000000 [Eh]
	 Same-Spin Energy          =      -0.3256091484250163 [Eh]
	 Opposite-Spin Energy      =      -0.9257203226745242 [Eh]
	 Correlation Energy        =      -1.2513294710995404 [Eh]
	 Total Energy              =    -643.4618758228424440 [Eh]

	 ================> DF-SCS-MP2 Energies <==================
	-----------------------------------------------------------
	 SCS Same-Spin Scale       =       0.3333333333333333 [-]
	 SCS Opposite-Spin Scale   =       1.2000000000000000 [-]
	 SCS Same-Spin Energy      =      -0.1085363828083387 [Eh]
	 SCS Opposite-Spin Energy  =      -1.1108643872094290 [Eh]
	 SCS Correlation Energy    =      -1.2194007700177678 [Eh]
	 SCS Total Energy          =    -643.4299471217606197 [Eh]
	-----------------------------------------------------------

  Dipole Moment: [D]
     X:     0.8511      Y:     2.7014      Z:     1.8887     Total:     3.4043

*** Psi4 exiting successfully. Buy a developer a beer!
