                               Psi4 1.3.2 release

  ==> Input File <==

--------------------------------------------------------------------------
#psi4
#
memory 32 gb

molecule  {
0 1
  P       -0.0856380    -0.0896540    -0.0873550
  O       -0.5642589     0.8842023     1.1243119
  O        0.9169770     0.9699500    -0.7813470
  O       -1.0889050    -0.8012840    -0.9028220
  O        0.9882750    -1.0520330     0.6191980
  H        0.4349990     1.7159670    -1.1819520
  H        1.7169640    -0.5519720     1.0297980
  H       -1.6059160     0.5037490     1.3234160
units angstrom
no_reorient  #important for SAPT in psi4, default
symmetry c1  #important for SAPT in psi4, default
}

set PROPERTIES_ORIGIN ["COM"]
properties('MP2/aug-cc-pvtz', properties = ['dipole'])
--------------------------------------------------------------------------

    Molecular point group: c1
  Charge       = 0
  Multiplicity = 1
  Basis Set: AUG-CC-PVTZ
    Blend: AUG-CC-PVTZ
  Basis Set: (AUG-CC-PVTZ AUX)
    Blend: AUG-CC-PVTZ-JKFIT

    Orbital Energies [Eh]
    ---------------------

    Doubly Occupied:

       1A    -80.123935     2A    -20.631384     3A    -20.613680
       4A    -20.610429     5A    -20.535834     6A     -7.639641
       7A     -5.538190     8A     -5.537964     9A     -5.536373
      10A     -1.459020    11A     -1.386677    12A     -1.370668
      13A     -1.313481    14A     -0.852251    15A     -0.765517
      16A     -0.731265    17A     -0.675464    18A     -0.654759
      19A     -0.609367    20A     -0.587162    21A     -0.582612
      22A     -0.560152    23A     -0.534968    24A     -0.490361
      25A     -0.485208

  @DF-RHF Final Energy:  -642.18709065025917

   => Energetics <=

    Nuclear Repulsion Energy =            277.3529342180889330
    One-Electron Energy =               -1439.4273294161826016
    Two-Electron Energy =                 519.8873045478345603
    Total Energy =                       -642.1870906502591652
  Basis Set: (AUG-CC-PVTZ AUX)
    Blend: AUG-CC-PVTZ-RI
    Molecular point group: c1

    Geometry (in Angstrom), charge = 0, multiplicity = 1:

       Center              X                  Y                   Z               Mass
    ------------   -----------------  -----------------  -----------------  -----------------
         P           -0.105335668825    -0.078602752161    -0.081474703588    30.973761998420
         O           -0.583956568825     0.895253547839     1.130192196412    15.994914619570
         O            0.897279331175     0.981001247839    -0.775466703588    15.994914619570
         O           -1.108602668825    -0.790232752161    -0.896941703588    15.994914619570
         O            0.968577331175    -1.040981752161     0.625078296412    15.994914619570
         H            0.415301331175     1.727018247839    -1.176071703588     1.007825032230
         H            1.697266331175    -0.540920752161     1.035678296412     1.007825032230
         H           -1.625613668825     0.514800247839     1.329296296412     1.007825032230

  Basis Set: AUG-CC-PVTZ
    Blend: AUG-CC-PVTZ
  Basis Set: (AUG-CC-PVTZ AUX)
    Blend: AUG-CC-PVTZ-JKFIT
	 Reference Energy          =    -642.1870906502591652 [Eh]
	 Singles Energy            =      -0.0000000000000000 [Eh]
	 Same-Spin Energy          =      -0.3273898989599757 [Eh]
	 Opposite-Spin Energy      =      -0.9300682723537391 [Eh]
	 Correlation Energy        =      -1.2574581713137147 [Eh]
	 Total Energy              =    -643.4445488215728801 [Eh]

	 ================> DF-SCS-MP2 Energies <==================
	-----------------------------------------------------------
	 SCS Same-Spin Scale       =       0.3333333333333333 [-]
	 SCS Opposite-Spin Scale   =       1.2000000000000000 [-]
	 SCS Same-Spin Energy      =      -0.1091299663199919 [Eh]
	 SCS Opposite-Spin Energy  =      -1.1160819268244868 [Eh]
	 SCS Correlation Energy    =      -1.2252118931444786 [Eh]
	 SCS Total Energy          =    -643.4123025434035981 [Eh]
	-----------------------------------------------------------

  Dipole Moment: [D]
     X:     0.5048      Y:     2.6300      Z:     1.7511     Total:     3.1997

*** Psi4 exiting successfully. Buy a developer a beer!
