                               Psi4 1.3.2 release

  ==> Input File <==

--------------------------------------------------------------------------
#psi4
#
memory 32 gb

molecule  {
0 1
  P       -0.0856380    -0.0896540    -0.0873550
  O       -0.7554433     0.7987704     1.0990993
  O        0.9169770     0.9699500    -0.7813470
  O       -1.0889050    -0.8012840    -0.9028220
  O        0.9882750    -1.0520330     0.6191980
  H        0.4349990     1.7159670    -1.1819520
  H        1.7169640    -0.5519720     1.0297980
  H       -1.6059160     0.5037490     1.3234160
units angstrom
no_reorient  #important for SAPT in psi4, default
symmetry c1  #important for SAPT in psi4, default
}

set PROPERTIES_ORIGIN ["COM"]
properties('MP2/aug-cc-pvtz', properties = ['dipole'])
--------------------------------------------------------------------------

    Molecular point group: c1
  Charge       = 0
  Multiplicity = 1
  Basis Set: AUG-CC-PVTZ
    Blend: AUG-CC-PVTZ
  Basis Set: (AUG-CC-PVTZ AUX)
    Blend: AUG-CC-PVTZ-JKFIT

    Orbital Energies [Eh]
    ---------------------

    Doubly Occupied:

       1A    -80.127027     2A    -20.625437     3A    -20.616952
       4A    -20.612757     5A    -20.524468     6A     -7.642141
       7A     -5.540665     8A     -5.540318     9A     -5.539098
      10A     -1.466723    11A     -1.401799    12A     -1.393411
      13A     -1.305889    14A     -0.872360    15A     -0.779652
      16A     -0.768290    17A     -0.676857    18A     -0.656486
      19A     -0.615947    20A     -0.598005    21A     -0.589106
      22A     -0.559772    23A     -0.544317    24A     -0.481733
      25A     -0.476436

  @DF-RHF Final Energy:  -642.21615884516029

   => Energetics <=

    Nuclear Repulsion Energy =            277.6669260441045139
    One-Electron Energy =               -1439.8548773020957015
    Two-Electron Energy =                 519.9717924128309505
    Total Energy =                       -642.2161588451602938
  Basis Set: (AUG-CC-PVTZ AUX)
    Blend: AUG-CC-PVTZ-RI
    Molecular point group: c1

    Geometry (in Angstrom), charge = 0, multiplicity = 1:

       Center              X                  Y                   Z               Mass
    ------------   -----------------  -----------------  -----------------  -----------------
         P           -0.074124451765    -0.064655831938    -0.077358698667    30.973761998420
         O           -0.743929751765     0.823768568062     1.109095601333    15.994914619570
         O            0.928490548235     0.994948168062    -0.771350698667    15.994914619570
         O           -1.077391451765    -0.776285831938    -0.892825698667    15.994914619570
         O            0.999788548235    -1.027034831938     0.629194301333    15.994914619570
         H            0.446512548235     1.740965168062    -1.171955698667     1.007825032230
         H            1.728477548235    -0.526973831938     1.039794301333     1.007825032230
         H           -1.594402451765     0.528747168062     1.333412301333     1.007825032230

  Basis Set: AUG-CC-PVTZ
    Blend: AUG-CC-PVTZ
  Basis Set: (AUG-CC-PVTZ AUX)
    Blend: AUG-CC-PVTZ-JKFIT
	 Reference Energy          =    -642.2161588451602938 [Eh]
	 Singles Energy            =      -0.0000000000000000 [Eh]
	 Same-Spin Energy          =      -0.3244160329487714 [Eh]
	 Opposite-Spin Energy      =      -0.9228971859026227 [Eh]
	 Correlation Energy        =      -1.2473132188513940 [Eh]
	 Total Energy              =    -643.4634720640117393 [Eh]

	 ================> DF-SCS-MP2 Energies <==================
	-----------------------------------------------------------
	 SCS Same-Spin Scale       =       0.3333333333333333 [-]
	 SCS Opposite-Spin Scale   =       1.2000000000000000 [-]
	 SCS Same-Spin Energy      =      -0.1081386776495905 [Eh]
	 SCS Opposite-Spin Energy  =      -1.1074766230831472 [Eh]
	 SCS Correlation Energy    =      -1.2156153007327377 [Eh]
	 SCS Total Energy          =    -643.4317741458930868 [Eh]
	-----------------------------------------------------------

  Dipole Moment: [D]
     X:     1.0123      Y:     2.8108      Z:     1.7916     Total:     3.4835

*** Psi4 exiting successfully. Buy a developer a beer!
