                               Psi4 1.4a3.dev225

  ==> Input File <==

--------------------------------------------------------------------------
#psi4
#
memory 32 gb

molecule  {
0 1
  P       -0.0856920    -0.0896190    -0.0873670
  O       -0.7236680     0.8429270     1.0826000
  O        0.9171570     0.9699100    -0.7812610
  O       -1.1028017    -0.8104532    -0.9139573
  O        0.9880740    -1.0524230     0.6189030
  H        0.4352420     1.7161240    -1.1815840
  H        1.7168380    -0.5525180     1.0295720
  H       -1.6055880     0.5038950     1.3238320
units angstrom
no_reorient  #important for SAPT in psi4, default
symmetry c1  #important for SAPT in psi4, default
}

set PROPERTIES_ORIGIN ["COM"]
properties('MP2/aug-cc-pvtz', properties = ['dipole'])
--------------------------------------------------------------------------

    Molecular point group: c1
  Charge       = 0
  Multiplicity = 1
  Basis Set: AUG-CC-PVTZ
    Blend: AUG-CC-PVTZ
  Basis Set: (AUG-CC-PVTZ AUX)
    Blend: AUG-CC-PVTZ-JKFIT

    Orbital Energies [Eh]
    ---------------------

    Doubly Occupied:

       1A    -80.129777     2A    -20.623000     3A    -20.620024
       4A    -20.618581     5A    -20.527103     6A     -7.644241
       7A     -5.542864     8A     -5.542538     9A     -5.540961
      10A     -1.464769    11A     -1.395207    12A     -1.392980
      13A     -1.298526    14A     -0.867460    15A     -0.774508
      16A     -0.763404    17A     -0.676480    18A     -0.658315
      19A     -0.615012    20A     -0.594490    21A     -0.588834
      22A     -0.557596    23A     -0.544816    24A     -0.478818
      25A     -0.474236

  @DF-RHF Final Energy:  -642.21293440366605

   => Energetics <=

    Nuclear Repulsion Energy =            276.6888719838481165
    One-Electron Energy =               -1437.9345282325673452
    Two-Electron Energy =                 519.0327218450530609
    Total Energy =                       -642.2129344036660541
  Basis Set: (AUG-CC-PVTZ AUX)
    Blend: AUG-CC-PVTZ-RI
    Molecular point group: c1

    Geometry (in Angstrom), charge = 0, multiplicity = 1:

       Center              X                  Y                   Z               Mass
    ------------   -----------------  -----------------  -----------------  -----------------
         P           -0.077081245170    -0.070270958321    -0.072827124175    30.973761998420
         O           -0.715057245170     0.862275041679     1.097139875825    15.994914619570
         O            0.925767754830     0.989258041679    -0.766721124175    15.994914619570
         O           -1.094190945170    -0.791105158321    -0.899417424175    15.994914619570
         O            0.996684754830    -1.033074958321     0.633442875825    15.994914619570
         H            0.443852754830     1.735472041679    -1.167044124175     1.007825032230
         H            1.725448754830    -0.533169958321     1.044111875825     1.007825032230
         H           -1.596977245170     0.523243041679     1.338371875825     1.007825032230

  Basis Set: AUG-CC-PVTZ
    Blend: AUG-CC-PVTZ
  Basis Set: (AUG-CC-PVTZ AUX)
    Blend: AUG-CC-PVTZ-JKFIT
	 Reference Energy          =    -642.2129344036660541 [Eh]
	 Singles Energy            =      -0.0000000000000000 [Eh]
	 Same-Spin Energy          =      -0.3255357858470203 [Eh]
	 Opposite-Spin Energy      =      -0.9255115189514288 [Eh]
	 Correlation Energy        =      -1.2510473047984492 [Eh]
	 Total Energy              =    -643.4639817084645301 [Eh]

	 ================> DF-SCS-MP2 Energies <==================
	-----------------------------------------------------------
	 SCS Same-Spin Scale       =       0.3333333333333333 [-]
	 SCS Opposite-Spin Scale   =       1.2000000000000000 [-]
	 SCS Same-Spin Energy      =      -0.1085119286156734 [Eh]
	 SCS Opposite-Spin Energy  =      -1.1106138227417146 [Eh]
	 SCS Correlation Energy    =      -1.2191257513573881 [Eh]
	 SCS Total Energy          =    -643.4320601550234642 [Eh]
	-----------------------------------------------------------

  Dipole Moment: [D]
     X:     0.9851      Y:     2.7562      Z:     1.9070     Total:     3.4934

*** Psi4 exiting successfully. Buy a developer a beer!
