                               Psi4 1.3.2 release

  ==> Input File <==

--------------------------------------------------------------------------
#psi4
#
memory 32 gb

molecule  {
0 1
  P       -0.0856380    -0.0896540    -0.0873550
  O       -0.7632818     0.9003400     1.1542682
  O        0.9169770     0.9699500    -0.7813470
  O       -1.0889050    -0.8012840    -0.9028220
  O        0.9882750    -1.0520330     0.6191980
  H        0.4349990     1.7159670    -1.1819520
  H        1.7169640    -0.5519720     1.0297980
  H       -1.6059160     0.5037490     1.3234160
units angstrom
no_reorient  #important for SAPT in psi4, default
symmetry c1  #important for SAPT in psi4, default
}

set PROPERTIES_ORIGIN ["COM"]
properties('MP2/aug-cc-pvtz', properties = ['dipole'])
--------------------------------------------------------------------------

    Molecular point group: c1
  Charge       = 0
  Multiplicity = 1
  Basis Set: AUG-CC-PVTZ
    Blend: AUG-CC-PVTZ
  Basis Set: (AUG-CC-PVTZ AUX)
    Blend: AUG-CC-PVTZ-JKFIT

    Orbital Energies [Eh]
    ---------------------

    Doubly Occupied:

       1A    -80.137037     2A    -20.628430     3A    -20.624504
       4A    -20.611956     5A    -20.536067     6A     -7.650984
       7A     -5.549541     8A     -5.549020     9A     -5.547798
      10A     -1.461063    11A     -1.397924    12A     -1.380968
      13A     -1.314677    14A     -0.863776    15A     -0.774597
      16A     -0.751065    17A     -0.676051    18A     -0.655015
      19A     -0.612827    20A     -0.599258    21A     -0.588343
      22A     -0.560157    23A     -0.541095    24A     -0.490414
      25A     -0.484305

  @DF-RHF Final Energy:  -642.20431435356545

   => Energetics <=

    Nuclear Repulsion Energy =            274.1075811056601879
    One-Electron Energy =               -1432.6500471312881473
    Two-Electron Energy =                 516.3381516720626223
    Total Energy =                       -642.2043143535654508
  Basis Set: (AUG-CC-PVTZ AUX)
    Blend: AUG-CC-PVTZ-RI
    Molecular point group: c1

    Geometry (in Angstrom), charge = 0, multiplicity = 1:

       Center              X                  Y                   Z               Mass
    ------------   -----------------  -----------------  -----------------  -----------------
         P           -0.072844801726    -0.081237262391    -0.086365126560    30.973761998420
         O           -0.750488601726     0.908756737609     1.155258073440    15.994914619570
         O            0.929770198274     0.978366737609    -0.780357126560    15.994914619570
         O           -1.076111801726    -0.792867262391    -0.901832126560    15.994914619570
         O            1.001068198274    -1.043616262391     0.620187873440    15.994914619570
         H            0.447792198274     1.724383737609    -1.180962126560     1.007825032230
         H            1.729757198274    -0.543555262391     1.030787873440     1.007825032230
         H           -1.593122801726     0.512165737609     1.324405873440     1.007825032230

  Basis Set: AUG-CC-PVTZ
    Blend: AUG-CC-PVTZ
  Basis Set: (AUG-CC-PVTZ AUX)
    Blend: AUG-CC-PVTZ-JKFIT
	 Reference Energy          =    -642.2043143535654508 [Eh]
	 Singles Energy            =      -0.0000000000000000 [Eh]
	 Same-Spin Energy          =      -0.3258349637797389 [Eh]
	 Opposite-Spin Energy      =      -0.9273648463100861 [Eh]
	 Correlation Energy        =      -1.2531998100898250 [Eh]
	 Total Energy              =    -643.4575141636553326 [Eh]

	 ================> DF-SCS-MP2 Energies <==================
	-----------------------------------------------------------
	 SCS Same-Spin Scale       =       0.3333333333333333 [-]
	 SCS Opposite-Spin Scale   =       1.2000000000000000 [-]
	 SCS Same-Spin Energy      =      -0.1086116545932463 [Eh]
	 SCS Opposite-Spin Energy  =      -1.1128378155721033 [Eh]
	 SCS Correlation Energy    =      -1.2214494701653495 [Eh]
	 SCS Total Energy          =    -643.4257638237307901 [Eh]
	-----------------------------------------------------------

  Dipole Moment: [D]
     X:     1.2200      Y:     2.3918      Z:     1.3994     Total:     3.0278

*** Psi4 exiting successfully. Buy a developer a beer!
