                               Psi4 1.3.2 release

  ==> Input File <==

--------------------------------------------------------------------------
#psi4
#
memory 32 gb

molecule  {
0 1
  P       -0.0856380    -0.0896540    -0.0873550
  O       -0.6978433     0.8505903     1.0902511
  O        0.9169770     0.9699500    -0.7813470
  O       -1.0889050    -0.8012840    -0.9028220
  O        0.9882750    -1.0520330     0.6191980
  H        0.4349990     1.7159670    -1.1819520
  H        1.7169640    -0.5519720     1.0297980
  H       -1.6059160     0.5037490     1.3234160
units angstrom
no_reorient  #important for SAPT in psi4, default
symmetry c1  #important for SAPT in psi4, default
}

set PROPERTIES_ORIGIN ["COM"]
properties('MP2/aug-cc-pvtz', properties = ['dipole'])
--------------------------------------------------------------------------

    Molecular point group: c1
  Charge       = 0
  Multiplicity = 1
  Basis Set: AUG-CC-PVTZ
    Blend: AUG-CC-PVTZ
  Basis Set: (AUG-CC-PVTZ AUX)
    Blend: AUG-CC-PVTZ-JKFIT

    Orbital Energies [Eh]
    ---------------------

    Doubly Occupied:

       1A    -80.125449     2A    -20.620968     3A    -20.620155
       4A    -20.616022     5A    -20.528027     6A     -7.640841
       7A     -5.539363     8A     -5.539061     9A     -5.537722
      10A     -1.463209    11A     -1.391556    12A     -1.388973
      13A     -1.308067    14A     -0.862853    15A     -0.771199
      16A     -0.757667    17A     -0.676196    18A     -0.657494
      19A     -0.612956    20A     -0.593309    21A     -0.587202
      22A     -0.560562    23A     -0.542413    24A     -0.484357
      25A     -0.479407

  @DF-RHF Final Energy:  -642.21318154955782

   => Energetics <=

    Nuclear Repulsion Energy =            277.4813995527972565
    One-Electron Energy =               -1439.5791047218165204
    Two-Electron Energy =                 519.8845236194614472
    Total Energy =                       -642.2131815495578167
  Basis Set: (AUG-CC-PVTZ AUX)
    Blend: AUG-CC-PVTZ-RI
    Molecular point group: c1

    Geometry (in Angstrom), charge = 0, multiplicity = 1:

       Center              X                  Y                   Z               Mass
    ------------   -----------------  -----------------  -----------------  -----------------
         P           -0.083527761358    -0.073115529209    -0.075914213181    30.973761998420
         O           -0.695733061358     0.867128770791     1.101691886819    15.994914619570
         O            0.919087238642     0.986488470791    -0.769906213181    15.994914619570
         O           -1.086794761358    -0.784745529209    -0.891381213181    15.994914619570
         O            0.990385238642    -1.035494529209     0.630638786819    15.994914619570
         H            0.437109238642     1.732505470791    -1.170511213181     1.007825032230
         H            1.719074238642    -0.535433529209     1.041238786819     1.007825032230
         H           -1.603805761358     0.520287470791     1.334856786819     1.007825032230

  Basis Set: AUG-CC-PVTZ
    Blend: AUG-CC-PVTZ
  Basis Set: (AUG-CC-PVTZ AUX)
    Blend: AUG-CC-PVTZ-JKFIT
	 Reference Energy          =    -642.2131815495578167 [Eh]
	 Singles Energy            =      -0.0000000000000000 [Eh]
	 Same-Spin Energy          =      -0.3254233218547559 [Eh]
	 Opposite-Spin Energy      =      -0.9252055526760721 [Eh]
	 Correlation Energy        =      -1.2506288745308280 [Eh]
	 Total Energy              =    -643.4638104240885923 [Eh]

	 ================> DF-SCS-MP2 Energies <==================
	-----------------------------------------------------------
	 SCS Same-Spin Scale       =       0.3333333333333333 [-]
	 SCS Opposite-Spin Scale   =       1.2000000000000000 [-]
	 SCS Same-Spin Energy      =      -0.1084744406182520 [Eh]
	 SCS Opposite-Spin Energy  =      -1.1102466632112864 [Eh]
	 SCS Correlation Energy    =      -1.2187211038295382 [Eh]
	 SCS Total Energy          =    -643.4319026533873966 [Eh]
	-----------------------------------------------------------

  Dipole Moment: [D]
     X:     0.8489      Y:     2.6944      Z:     1.8353     Total:     3.3688

*** Psi4 exiting successfully. Buy a developer a beer!
