                               Psi4 1.3.2 release

  ==> Input File <==

--------------------------------------------------------------------------
#psi4
#
memory 32 gb

molecule  {
0 1
  P       -0.0856380    -0.0896540    -0.0873550
  O       -0.6714671     0.8578941     1.0977896
  O        0.9169770     0.9699500    -0.7813470
  O       -1.0889050    -0.8012840    -0.9028220
  O        0.9882750    -1.0520330     0.6191980
  H        0.4349990     1.7159670    -1.1819520
  H        1.7169640    -0.5519720     1.0297980
  H       -1.6059160     0.5037490     1.3234160
units angstrom
no_reorient  #important for SAPT in psi4, default
symmetry c1  #important for SAPT in psi4, default
}

set PROPERTIES_ORIGIN ["COM"]
properties('MP2/aug-cc-pvtz', properties = ['dipole'])
--------------------------------------------------------------------------

    Molecular point group: c1
  Charge       = 0
  Multiplicity = 1
  Basis Set: AUG-CC-PVTZ
    Blend: AUG-CC-PVTZ
  Basis Set: (AUG-CC-PVTZ AUX)
    Blend: AUG-CC-PVTZ-JKFIT

    Orbital Energies [Eh]
    ---------------------

    Doubly Occupied:

       1A    -80.125039     2A    -20.623337     3A    -20.618812
       4A    -20.614888     5A    -20.529631     6A     -7.640511
       7A     -5.539030     8A     -5.538753     9A     -5.537366
      10A     -1.462198    11A     -1.390410    12A     -1.385149
      13A     -1.309150    14A     -0.860281    15A     -0.769589
      16A     -0.752386    17A     -0.676389    18A     -0.657101
      19A     -0.611895    20A     -0.592312    21A     -0.586208
      22A     -0.560790    23A     -0.540956    24A     -0.485581
      25A     -0.480713

  @DF-RHF Final Energy:  -642.20977629305628

   => Energetics <=

    Nuclear Repulsion Energy =            277.4400427222572603
    One-Electron Energy =               -1439.5226930887113213
    Two-Electron Energy =                 519.8728740733978384
    Total Energy =                       -642.2097762930562794
  Basis Set: (AUG-CC-PVTZ AUX)
    Blend: AUG-CC-PVTZ-RI
    Molecular point group: c1

    Geometry (in Angstrom), charge = 0, multiplicity = 1:

       Center              X                  Y                   Z               Mass
    ------------   -----------------  -----------------  -----------------  -----------------
         P           -0.087833726193    -0.074307888455    -0.077144887650    30.973761998420
         O           -0.673662826193     0.873240211545     1.107999712350    15.994914619570
         O            0.914781273807     0.985296111545    -0.771136887650    15.994914619570
         O           -1.091100726193    -0.785937888455    -0.892611887650    15.994914619570
         O            0.986079273807    -1.036686888455     0.629408112350    15.994914619570
         H            0.432803273807     1.731313111545    -1.171741887650     1.007825032230
         H            1.714768273807    -0.536625888455     1.040008112350     1.007825032230
         H           -1.608111726193     0.519095111545     1.333626112350     1.007825032230

  Basis Set: AUG-CC-PVTZ
    Blend: AUG-CC-PVTZ
  Basis Set: (AUG-CC-PVTZ AUX)
    Blend: AUG-CC-PVTZ-JKFIT
	 Reference Energy          =    -642.2097762930562794 [Eh]
	 Singles Energy            =      -0.0000000000000000 [Eh]
	 Same-Spin Energy          =      -0.3257948679344722 [Eh]
	 Opposite-Spin Energy      =      -0.9260851838465550 [Eh]
	 Correlation Energy        =      -1.2518800517810273 [Eh]
	 Total Energy              =    -643.4616563448372517 [Eh]

	 ================> DF-SCS-MP2 Energies <==================
	-----------------------------------------------------------
	 SCS Same-Spin Scale       =       0.3333333333333333 [-]
	 SCS Opposite-Spin Scale   =       1.2000000000000000 [-]
	 SCS Same-Spin Energy      =      -0.1085982893114907 [Eh]
	 SCS Opposite-Spin Energy  =      -1.1113022206158660 [Eh]
	 SCS Correlation Energy    =      -1.2199005099273568 [Eh]
	 SCS Total Energy          =    -643.4296768029836358 [Eh]
	-----------------------------------------------------------

  Dipole Moment: [D]
     X:     0.7770      Y:     2.6805      Z:     1.8183     Total:     3.3309

*** Psi4 exiting successfully. Buy a developer a beer!
