                               Psi4 1.4a3.dev225

  ==> Input File <==

--------------------------------------------------------------------------
#psi4
#
memory 32 gb

molecule  {
0 1
  P       -0.0856920    -0.0896190    -0.0873670
  O       -0.7236680     0.8429270     1.0826000
  O        0.9171570     0.9699100    -0.7812610
  O       -1.0892020    -0.8008150    -0.9029050
  O        0.9880740    -1.0524230     0.6189030
  H        0.4352420     1.7161240    -1.1815840
  H        1.7168380    -0.5525180     1.0295720
  H       -1.5875001     0.5108484     1.3188844
units angstrom
no_reorient  #important for SAPT in psi4, default
symmetry c1  #important for SAPT in psi4, default
}

set PROPERTIES_ORIGIN ["COM"]
properties('MP2/aug-cc-pvtz', properties = ['dipole'])
--------------------------------------------------------------------------

    Molecular point group: c1
  Charge       = 0
  Multiplicity = 1
  Basis Set: AUG-CC-PVTZ
    Blend: AUG-CC-PVTZ
  Basis Set: (AUG-CC-PVTZ AUX)
    Blend: AUG-CC-PVTZ-JKFIT

    Orbital Energies [Eh]
    ---------------------

    Doubly Occupied:

       1A    -80.126336     2A    -20.621725     3A    -20.617439
       4A    -20.617177     5A    -20.526782     6A     -7.641638
       7A     -5.540164     8A     -5.539842     9A     -5.538540
      10A     -1.465676    11A     -1.397501    12A     -1.392227
      13A     -1.307507    14A     -0.867719    15A     -0.775705
      16A     -0.764060    17A     -0.677030    18A     -0.658701
      19A     -0.614652    20A     -0.594871    21A     -0.588648
      22A     -0.560610    23A     -0.544534    24A     -0.483469
      25A     -0.478460

  @DF-RHF Final Energy:  -642.21623059533579

   => Energetics <=

    Nuclear Repulsion Energy =            277.6608338582107649
    One-Electron Energy =               -1439.8720996875019864
    Two-Electron Energy =                 519.9950352339554911
    Total Energy =                       -642.2162305953357873
  Basis Set: (AUG-CC-PVTZ AUX)
    Blend: AUG-CC-PVTZ-RI
    Molecular point group: c1

    Geometry (in Angstrom), charge = 0, multiplicity = 1:

       Center              X                  Y                   Z               Mass
    ------------   -----------------  -----------------  -----------------  -----------------
         P           -0.079487480613    -0.071915937944    -0.074580540414    30.973761998420
         O           -0.717463480613     0.860630062056     1.095386459586    15.994914619570
         O            0.923361519387     0.987613062056    -0.768474540414    15.994914619570
         O           -1.082997480613    -0.783111937944    -0.890118540414    15.994914619570
         O            0.994278519387    -1.034719937944     0.631689459586    15.994914619570
         H            0.441446519387     1.733827062056    -1.168797540414     1.007825032230
         H            1.723042519387    -0.534814937944     1.042358459586     1.007825032230
         H           -1.581295580613     0.528551462056     1.331670859586     1.007825032230

  Basis Set: AUG-CC-PVTZ
    Blend: AUG-CC-PVTZ
  Basis Set: (AUG-CC-PVTZ AUX)
    Blend: AUG-CC-PVTZ-JKFIT
	 Reference Energy          =    -642.2162305953357873 [Eh]
	 Singles Energy            =      -0.0000000000000000 [Eh]
	 Same-Spin Energy          =      -0.3248470248492077 [Eh]
	 Opposite-Spin Energy      =      -0.9238586280564619 [Eh]
	 Correlation Energy        =      -1.2487056529056697 [Eh]
	 Total Energy              =    -643.4649362482414290 [Eh]

	 ================> DF-SCS-MP2 Energies <==================
	-----------------------------------------------------------
	 SCS Same-Spin Scale       =       0.3333333333333333 [-]
	 SCS Opposite-Spin Scale   =       1.2000000000000000 [-]
	 SCS Same-Spin Energy      =      -0.1082823416164026 [Eh]
	 SCS Opposite-Spin Energy  =      -1.1086303536677542 [Eh]
	 SCS Correlation Energy    =      -1.2169126952841567 [Eh]
	 SCS Total Energy          =    -643.4331432906199097 [Eh]
	-----------------------------------------------------------

  Dipole Moment: [D]
     X:     0.9507      Y:     2.7107      Z:     1.8392     Total:     3.4110

*** Psi4 exiting successfully. Buy a developer a beer!
