                               Psi4 1.4a3.dev225

  ==> Input File <==

--------------------------------------------------------------------------
#psi4
#
memory 32 gb

molecule  {
0 1
  P       -0.0856920    -0.0896190    -0.0873670
  O       -0.7236680     0.8429270     1.0826000
  O        0.9171570     0.9699100    -0.7812610
  O       -1.0756023    -0.7911768    -0.8918527
  O        0.9880740    -1.0524230     0.6189030
  H        0.4352420     1.7161240    -1.1815840
  H        1.7168380    -0.5525180     1.0295720
  H       -1.6055880     0.5038950     1.3238320
units angstrom
no_reorient  #important for SAPT in psi4, default
symmetry c1  #important for SAPT in psi4, default
}

set PROPERTIES_ORIGIN ["COM"]
properties('MP2/aug-cc-pvtz', properties = ['dipole'])
--------------------------------------------------------------------------

    Molecular point group: c1
  Charge       = 0
  Multiplicity = 1
  Basis Set: AUG-CC-PVTZ
    Blend: AUG-CC-PVTZ
  Basis Set: (AUG-CC-PVTZ AUX)
    Blend: AUG-CC-PVTZ-JKFIT

    Orbital Energies [Eh]
    ---------------------

    Doubly Occupied:

       1A    -80.121821     2A    -20.620000     3A    -20.616869
       4A    -20.615708     5A    -20.525667     6A     -7.638083
       7A     -5.536489     8A     -5.536157     9A     -5.535197
      10A     -1.464002    11A     -1.392621    12A     -1.390446
      13A     -1.315531    14A     -0.863896    15A     -0.772575
      16A     -0.761137    17A     -0.675304    18A     -0.657397
      19A     -0.613396    20A     -0.594157    21A     -0.587561
      22A     -0.562478    23A     -0.542859    24A     -0.487558
      25A     -0.481900

  @DF-RHF Final Energy:  -642.21703389900824

   => Energetics <=

    Nuclear Repulsion Energy =            278.3881903222900860
    One-Electron Energy =               -1441.3928307803466851
    Two-Electron Energy =                 520.7876065590484131
    Total Energy =                       -642.2170338990082428
  Basis Set: (AUG-CC-PVTZ AUX)
    Blend: AUG-CC-PVTZ-RI
    Molecular point group: c1

    Geometry (in Angstrom), charge = 0, multiplicity = 1:

       Center              X                  Y                   Z               Mass
    ------------   -----------------  -----------------  -----------------  -----------------
         P           -0.081521598971    -0.073417867298    -0.076435742183    30.973761998420
         O           -0.719497598971     0.859128132702     1.093531257817    15.994914619570
         O            0.921327401029     0.986111132702    -0.770329742183    15.994914619570
         O           -1.071431898971    -0.774975667298    -0.880921442183    15.994914619570
         O            0.992244401029    -1.036221867298     0.629834257817    15.994914619570
         H            0.439412401029     1.732325132702    -1.170652742183     1.007825032230
         H            1.721008401029    -0.536316867298     1.040503257817     1.007825032230
         H           -1.601417598971     0.520096132702     1.334763257817     1.007825032230

  Basis Set: AUG-CC-PVTZ
    Blend: AUG-CC-PVTZ
  Basis Set: (AUG-CC-PVTZ AUX)
    Blend: AUG-CC-PVTZ-JKFIT
	 Reference Energy          =    -642.2170338990082428 [Eh]
	 Singles Energy            =      -0.0000000000000000 [Eh]
	 Same-Spin Energy          =      -0.3245894599081594 [Eh]
	 Opposite-Spin Energy      =      -0.9232361635599439 [Eh]
	 Correlation Energy        =      -1.2478256234681033 [Eh]
	 Total Energy              =    -643.4648595224763312 [Eh]

	 ================> DF-SCS-MP2 Energies <==================
	-----------------------------------------------------------
	 SCS Same-Spin Scale       =       0.3333333333333333 [-]
	 SCS Opposite-Spin Scale   =       1.2000000000000000 [-]
	 SCS Same-Spin Energy      =      -0.1081964866360531 [Eh]
	 SCS Opposite-Spin Energy  =      -1.1078833962719326 [Eh]
	 SCS Correlation Energy    =      -1.2160798829079857 [Eh]
	 SCS Total Energy          =    -643.4331137819161768 [Eh]
	-----------------------------------------------------------

  Dipole Moment: [D]
     X:     0.8592      Y:     2.6601      Z:     1.7996     Total:     3.3246

*** Psi4 exiting successfully. Buy a developer a beer!
