                               Psi4 1.3.2 release

  ==> Input File <==

--------------------------------------------------------------------------
#psi4
#
memory 32 gb

molecule  {
0 1
  P       -0.0856380    -0.0896540    -0.0873550
  O       -0.7240330     0.8430000     1.0823540
  O        0.9169770     0.9699500    -0.7813470
  O       -1.0889050    -0.8012840    -0.9028220
  O        0.9882750    -1.0520330     0.6191980
  H        0.4349990     1.7159670    -1.1819520
  H        1.7169640    -0.5519720     1.0297980
  H       -1.4250450     0.5733282     1.2739750
units angstrom
no_reorient  #important for SAPT in psi4, default
symmetry c1  #important for SAPT in psi4, default
}

set PROPERTIES_ORIGIN ["COM"]
properties('MP2/aug-cc-pvtz', properties = ['dipole'])
--------------------------------------------------------------------------

    Molecular point group: c1
  Charge       = 0
  Multiplicity = 1
  Basis Set: AUG-CC-PVTZ
    Blend: AUG-CC-PVTZ
  Basis Set: (AUG-CC-PVTZ AUX)
    Blend: AUG-CC-PVTZ-JKFIT

    Orbital Energies [Eh]
    ---------------------

    Doubly Occupied:

       1A    -80.130140     2A    -20.623694     3A    -20.619928
       4A    -20.601381     5A    -20.530140     6A     -7.645411
       7A     -5.543932     8A     -5.543667     9A     -5.542286
      10A     -1.494308    11A     -1.431441    12A     -1.394604
      13A     -1.311839    14A     -0.894863    15A     -0.801639
      16A     -0.769885    17A     -0.686573    18A     -0.665032
      19A     -0.618910    20A     -0.600424    21A     -0.592647
      22A     -0.564249    23A     -0.550724    24A     -0.486525
      25A     -0.482133

  @DF-RHF Final Energy:  -642.16866549910890

   => Energetics <=

    Nuclear Repulsion Energy =            279.0627761445110195
    One-Electron Energy =               -1442.2101299578926046
    Two-Electron Energy =                 520.9786883142727447
    Total Energy =                       -642.1686654991088972
  Basis Set: (AUG-CC-PVTZ AUX)
    Blend: AUG-CC-PVTZ-RI
    Molecular point group: c1

    Geometry (in Angstrom), charge = 0, multiplicity = 1:

       Center              X                  Y                   Z               Mass
    ------------   -----------------  -----------------  -----------------  -----------------
         P           -0.081112746138    -0.072592114574    -0.074116428953    30.973761998420
         O           -0.719507746138     0.860061885426     1.095592571047    15.994914619570
         O            0.921502253862     0.987011885426    -0.768108428953    15.994914619570
         O           -1.084379746138    -0.784222114574    -0.889583428953    15.994914619570
         O            0.992800253862    -1.034971114574     0.632436571047    15.994914619570
         H            0.439524253862     1.733028885426    -1.168713428953     1.007825032230
         H            1.721489253862    -0.534910114574     1.043036571047     1.007825032230
         H           -1.420519746138     0.590390085426     1.287213571047     1.007825032230

  Basis Set: AUG-CC-PVTZ
    Blend: AUG-CC-PVTZ
  Basis Set: (AUG-CC-PVTZ AUX)
    Blend: AUG-CC-PVTZ-JKFIT
	 Reference Energy          =    -642.1686654991088972 [Eh]
	 Singles Energy            =      -0.0000000000000000 [Eh]
	 Same-Spin Energy          =      -0.3229409109878394 [Eh]
	 Opposite-Spin Energy      =      -0.9197275128546428 [Eh]
	 Correlation Energy        =      -1.2426684238424821 [Eh]
	 Total Energy              =    -643.4113339229513713 [Eh]

	 ================> DF-SCS-MP2 Energies <==================
	-----------------------------------------------------------
	 SCS Same-Spin Scale       =       0.3333333333333333 [-]
	 SCS Opposite-Spin Scale   =       1.2000000000000000 [-]
	 SCS Same-Spin Energy      =      -0.1076469703292798 [Eh]
	 SCS Opposite-Spin Energy  =      -1.1036730154255714 [Eh]
	 SCS Correlation Energy    =      -1.2113199857548511 [Eh]
	 SCS Total Energy          =    -643.3799854848637096 [Eh]
	-----------------------------------------------------------

  Dipole Moment: [D]
     X:     1.1939      Y:     2.7200      Z:     1.7028     Total:     3.4240

*** Psi4 exiting successfully. Buy a developer a beer!
