                               Psi4 1.3.2 release

  ==> Input File <==

--------------------------------------------------------------------------
#psi4
#
memory 32 gb

molecule  {
0 1
  P       -0.0856380    -0.0896540    -0.0873550
  O       -0.6847842     0.7856600     1.0104398
  O        0.9169770     0.9699500    -0.7813470
  O       -1.0889050    -0.8012840    -0.9028220
  O        0.9882750    -1.0520330     0.6191980
  H        0.4349990     1.7159670    -1.1819520
  H        1.7169640    -0.5519720     1.0297980
  H       -1.6059160     0.5037490     1.3234160
units angstrom
no_reorient  #important for SAPT in psi4, default
symmetry c1  #important for SAPT in psi4, default
}

set PROPERTIES_ORIGIN ["COM"]
properties('MP2/aug-cc-pvtz', properties = ['dipole'])
--------------------------------------------------------------------------

    Molecular point group: c1
  Charge       = 0
  Multiplicity = 1
  Basis Set: AUG-CC-PVTZ
    Blend: AUG-CC-PVTZ
  Basis Set: (AUG-CC-PVTZ AUX)
    Blend: AUG-CC-PVTZ-JKFIT

    Orbital Energies [Eh]
    ---------------------

    Doubly Occupied:

       1A    -80.111995     2A    -20.624483     3A    -20.613623
       4A    -20.609026     5A    -20.516123     6A     -7.629810
       7A     -5.528462     8A     -5.528045     9A     -5.526573
      10A     -1.476879    11A     -1.401681    12A     -1.385651
      13A     -1.298672    14A     -0.870714    15A     -0.779345
      16A     -0.761617    17A     -0.680208    18A     -0.665330
      19A     -0.615858    20A     -0.591770    21A     -0.582934
      22A     -0.556910    23A     -0.542805    24A     -0.475321
      25A     -0.470422

  @DF-RHF Final Energy:  -642.21209696863741

   => Energetics <=

    Nuclear Repulsion Energy =            281.2784628389530894
    One-Electron Energy =               -1447.2926057354084151
    Two-Electron Energy =                 523.8020459278178578
    Total Energy =                       -642.2120969686374110
  Basis Set: (AUG-CC-PVTZ AUX)
    Blend: AUG-CC-PVTZ-RI
    Molecular point group: c1

    Geometry (in Angstrom), charge = 0, multiplicity = 1:

       Center              X                  Y                   Z               Mass
    ------------   -----------------  -----------------  -----------------  -----------------
         P           -0.085659684280    -0.062515534193    -0.062884866602    30.973761998420
         O           -0.684805884280     0.812798465807     1.034909933398    15.994914619570
         O            0.916955315720     0.997088465807    -0.756876866602    15.994914619570
         O           -1.088926684280    -0.774145534193    -0.878351866602    15.994914619570
         O            0.988253315720    -1.024894534193     0.643668133398    15.994914619570
         H            0.434977315720     1.743105465807    -1.157481866602     1.007825032230
         H            1.716942315720    -0.524833534193     1.054268133398     1.007825032230
         H           -1.605937684280     0.530887465807     1.347886133398     1.007825032230

  Basis Set: AUG-CC-PVTZ
    Blend: AUG-CC-PVTZ
  Basis Set: (AUG-CC-PVTZ AUX)
    Blend: AUG-CC-PVTZ-JKFIT
	 Reference Energy          =    -642.2120969686374110 [Eh]
	 Singles Energy            =      -0.0000000000000000 [Eh]
	 Same-Spin Energy          =      -0.3245419202660182 [Eh]
	 Opposite-Spin Energy      =      -0.9219046281399192 [Eh]
	 Correlation Energy        =      -1.2464465484059375 [Eh]
	 Total Energy              =    -643.4585435170433811 [Eh]

	 ================> DF-SCS-MP2 Energies <==================
	-----------------------------------------------------------
	 SCS Same-Spin Scale       =       0.3333333333333333 [-]
	 SCS Opposite-Spin Scale   =       1.2000000000000000 [-]
	 SCS Same-Spin Energy      =      -0.1081806400886727 [Eh]
	 SCS Opposite-Spin Energy  =      -1.1062855537679031 [Eh]
	 SCS Correlation Energy    =      -1.2144661938565757 [Eh]
	 SCS Total Energy          =    -643.4265631624939488 [Eh]
	-----------------------------------------------------------

  Dipole Moment: [D]
     X:     0.5958      Y:     3.0418      Z:     2.3343     Total:     3.8802

*** Psi4 exiting successfully. Buy a developer a beer!
