                               Psi4 1.3.2 release

  ==> Input File <==

--------------------------------------------------------------------------
#psi4
#
memory 32 gb

molecule  {
0 1
  P       -0.0856380    -0.0896540    -0.0873550
  O       -0.7860375     0.7534584     1.1143991
  O        0.9169770     0.9699500    -0.7813470
  O       -1.0889050    -0.8012840    -0.9028220
  O        0.9882750    -1.0520330     0.6191980
  H        0.4349990     1.7159670    -1.1819520
  H        1.7169640    -0.5519720     1.0297980
  H       -1.6059160     0.5037490     1.3234160
units angstrom
no_reorient  #important for SAPT in psi4, default
symmetry c1  #important for SAPT in psi4, default
}

set PROPERTIES_ORIGIN ["COM"]
properties('MP2/aug-cc-pvtz', properties = ['dipole'])
--------------------------------------------------------------------------

    Molecular point group: c1
  Charge       = 0
  Multiplicity = 1
  Basis Set: AUG-CC-PVTZ
    Blend: AUG-CC-PVTZ
  Basis Set: (AUG-CC-PVTZ AUX)
    Blend: AUG-CC-PVTZ-JKFIT

    Orbital Energies [Eh]
    ---------------------

    Doubly Occupied:

       1A    -80.128355     2A    -20.629276     3A    -20.616868
       4A    -20.606656     5A    -20.522510     6A     -7.643240
       7A     -5.541786     8A     -5.541384     9A     -5.540242
      10A     -1.469740    11A     -1.410567    12A     -1.394513
      13A     -1.304817    14A     -0.880430    15A     -0.788794
      16A     -0.770458    17A     -0.677852    18A     -0.654654
      19A     -0.617781    20A     -0.601588    21A     -0.589903
      22A     -0.559141    23A     -0.544751    24A     -0.480318
      25A     -0.474684

  @DF-RHF Final Energy:  -642.21090041817820

   => Energetics <=

    Nuclear Repulsion Energy =            277.8339056484634852
    One-Electron Energy =               -1440.1089955252432446
    Two-Electron Energy =                 520.0641894586015042
    Total Energy =                       -642.2109004181781984
  Basis Set: (AUG-CC-PVTZ AUX)
    Blend: AUG-CC-PVTZ-RI
    Molecular point group: c1

    Geometry (in Angstrom), charge = 0, multiplicity = 1:

       Center              X                  Y                   Z               Mass
    ------------   -----------------  -----------------  -----------------  -----------------
         P           -0.069129890404    -0.057258561724    -0.079856420127    30.973761998420
         O           -0.769529390404     0.785853838276     1.121897679873    15.994914619570
         O            0.933485109596     1.002345438276    -0.773848420127    15.994914619570
         O           -1.072396890404    -0.768888561724    -0.895323420127    15.994914619570
         O            1.004783109596    -1.019637561724     0.626696579873    15.994914619570
         H            0.451507109596     1.748362438276    -1.174453420127     1.007825032230
         H            1.733472109596    -0.519576561724     1.037296579873     1.007825032230
         H           -1.589407890404     0.536144438276     1.330914579873     1.007825032230

  Basis Set: AUG-CC-PVTZ
    Blend: AUG-CC-PVTZ
  Basis Set: (AUG-CC-PVTZ AUX)
    Blend: AUG-CC-PVTZ-JKFIT
	 Reference Energy          =    -642.2109004181781984 [Eh]
	 Singles Energy            =      -0.0000000000000000 [Eh]
	 Same-Spin Energy          =      -0.3238456687330368 [Eh]
	 Opposite-Spin Energy      =      -0.9216421481429058 [Eh]
	 Correlation Energy        =      -1.2454878168759427 [Eh]
	 Total Energy              =    -643.4563882350541917 [Eh]

	 ================> DF-SCS-MP2 Energies <==================
	-----------------------------------------------------------
	 SCS Same-Spin Scale       =       0.3333333333333333 [-]
	 SCS Opposite-Spin Scale   =       1.2000000000000000 [-]
	 SCS Same-Spin Energy      =      -0.1079485562443456 [Eh]
	 SCS Opposite-Spin Energy  =      -1.1059705777714870 [Eh]
	 SCS Correlation Energy    =      -1.2139191340158326 [Eh]
	 SCS Total Energy          =    -643.4248195521939806 [Eh]
	-----------------------------------------------------------

  Dipole Moment: [D]
     X:     1.1055      Y:     2.9171      Z:     1.7302     Total:     3.5672

*** Psi4 exiting successfully. Buy a developer a beer!
