                               Psi4 1.3.2 release

  ==> Input File <==

--------------------------------------------------------------------------
#psi4
#
memory 32 gb

molecule  {
0 1
  P       -0.1149481    -0.1350123    -0.1023639
  O       -0.7240330     0.8430000     1.0823540
  O        0.9169770     0.9699500    -0.7813470
  O       -1.0889050    -0.8012840    -0.9028220
  O        0.9882750    -1.0520330     0.6191980
  H        0.4349990     1.7159670    -1.1819520
  H        1.7169640    -0.5519720     1.0297980
  H       -1.6059160     0.5037490     1.3234160
units angstrom
no_reorient  #important for SAPT in psi4, default
symmetry c1  #important for SAPT in psi4, default
}

set PROPERTIES_ORIGIN ["COM"]
properties('MP2/aug-cc-pvtz', properties = ['dipole'])
--------------------------------------------------------------------------

    Molecular point group: c1
  Charge       = 0
  Multiplicity = 1
  Basis Set: AUG-CC-PVTZ
    Blend: AUG-CC-PVTZ
  Basis Set: (AUG-CC-PVTZ AUX)
    Blend: AUG-CC-PVTZ-JKFIT

    Orbital Energies [Eh]
    ---------------------

    Doubly Occupied:

       1A    -80.123830     2A    -20.616273     3A    -20.614143
       4A    -20.610490     5A    -20.537273     6A     -7.640383
       7A     -5.538603     8A     -5.538283     9A     -5.537785
      10A     -1.456338    11A     -1.388117    12A     -1.375463
      13A     -1.337650    14A     -0.857418    15A     -0.771034
      16A     -0.746145    17A     -0.673026    18A     -0.652621
      19A     -0.608669    20A     -0.593290    21A     -0.582719
      22A     -0.561630    23A     -0.538995    24A     -0.503183
      25A     -0.495743

  @DF-RHF Final Energy:  -642.21048824490424

   => Energetics <=

    Nuclear Repulsion Energy =            277.3213955454876327
    One-Electron Energy =               -1439.2655625054260327
    Two-Electron Energy =                 519.7336787150342161
    Total Energy =                       -642.2104882449042407
  Basis Set: (AUG-CC-PVTZ AUX)
    Blend: AUG-CC-PVTZ-RI
    Molecular point group: c1

    Geometry (in Angstrom), charge = 0, multiplicity = 1:

       Center              X                  Y                   Z               Mass
    ------------   -----------------  -----------------  -----------------  -----------------
         P           -0.099296443566    -0.102895427991    -0.084889083084    30.973761998420
         O           -0.708381343566     0.875116872009     1.099828816916    15.994914619570
         O            0.932628656434     1.002066872009    -0.763872183084    15.994914619570
         O           -1.073253343566    -0.769167127991    -0.885347183084    15.994914619570
         O            1.003926656434    -1.019916127991     0.636672816916    15.994914619570
         H            0.450650656434     1.748083872009    -1.164477183084     1.007825032230
         H            1.732615656434    -0.519855127991     1.047272816916     1.007825032230
         H           -1.590264343566     0.535865872009     1.340890816916     1.007825032230

  Basis Set: AUG-CC-PVTZ
    Blend: AUG-CC-PVTZ
  Basis Set: (AUG-CC-PVTZ AUX)
    Blend: AUG-CC-PVTZ-JKFIT
	 Reference Energy          =    -642.2104882449042407 [Eh]
	 Singles Energy            =      -0.0000000000000000 [Eh]
	 Same-Spin Energy          =      -0.3245719942628151 [Eh]
	 Opposite-Spin Energy      =      -0.9239937876133368 [Eh]
	 Correlation Energy        =      -1.2485657818761520 [Eh]
	 Total Energy              =    -643.4590540267803362 [Eh]

	 ================> DF-SCS-MP2 Energies <==================
	-----------------------------------------------------------
	 SCS Same-Spin Scale       =       0.3333333333333333 [-]
	 SCS Opposite-Spin Scale   =       1.2000000000000000 [-]
	 SCS Same-Spin Energy      =      -0.1081906647542717 [Eh]
	 SCS Opposite-Spin Energy  =      -1.1087925451360041 [Eh]
	 SCS Correlation Energy    =      -1.2169832098902758 [Eh]
	 SCS Total Energy          =    -643.4274714547944996 [Eh]
	-----------------------------------------------------------

  Dipole Moment: [D]
     X:     0.6196      Y:     2.2236      Z:     1.7013     Total:     2.8675

*** Psi4 exiting successfully. Buy a developer a beer!
