                               Psi4 1.3.2 release

  ==> Input File <==

--------------------------------------------------------------------------
#psi4
#
memory 32 gb

molecule  {
0 1
  P       -0.0856380    -0.0896540    -0.0873550
  O       -0.6181874     0.8716338     1.1117812
  O        0.9169770     0.9699500    -0.7813470
  O       -1.0889050    -0.8012840    -0.9028220
  O        0.9882750    -1.0520330     0.6191980
  H        0.4349990     1.7159670    -1.1819520
  H        1.7169640    -0.5519720     1.0297980
  H       -1.6059160     0.5037490     1.3234160
units angstrom
no_reorient  #important for SAPT in psi4, default
symmetry c1  #important for SAPT in psi4, default
}

set PROPERTIES_ORIGIN ["COM"]
properties('MP2/aug-cc-pvtz', properties = ['dipole'])
--------------------------------------------------------------------------

    Molecular point group: c1
  Charge       = 0
  Multiplicity = 1
  Basis Set: AUG-CC-PVTZ
    Blend: AUG-CC-PVTZ
  Basis Set: (AUG-CC-PVTZ AUX)
    Blend: AUG-CC-PVTZ-JKFIT

    Orbital Energies [Eh]
    ---------------------

    Doubly Occupied:

       1A    -80.124382     2A    -20.627640     3A    -20.616195
       4A    -20.612641     5A    -20.532776     6A     -7.639987
       7A     -5.538512     8A     -5.538274     9A     -5.536783
      10A     -1.460448    11A     -1.388478    12A     -1.377633
      13A     -1.311318    14A     -0.855862    15A     -0.767305
      16A     -0.741429    17A     -0.676294    18A     -0.656097
      19A     -0.610299    20A     -0.589942    21A     -0.584313
      22A     -0.560814    23A     -0.537991    24A     -0.488000
      25A     -0.483106

  @DF-RHF Final Energy:  -642.20002270358020

   => Energetics <=

    Nuclear Repulsion Energy =            277.3809794477011792
    One-Electron Energy =               -1439.4489629516581317
    Two-Electron Energy =                 519.8679608003766361
    Total Energy =                       -642.2000227035802027
  Basis Set: (AUG-CC-PVTZ AUX)
    Blend: AUG-CC-PVTZ-RI
    Molecular point group: c1

    Geometry (in Angstrom), charge = 0, multiplicity = 1:

       Center              X                  Y                   Z               Mass
    ------------   -----------------  -----------------  -----------------  -----------------
         P           -0.096531738592    -0.076550920622    -0.079429042971    30.973761998420
         O           -0.629081138592     0.884736879378     1.119707157029    15.994914619570
         O            0.906083261408     0.983053079378    -0.773421042971    15.994914619570
         O           -1.099798738592    -0.788180920622    -0.894896042971    15.994914619570
         O            0.977381261408    -1.038929920622     0.627123957029    15.994914619570
         H            0.424105261408     1.729070079378    -1.174026042971     1.007825032230
         H            1.706070261408    -0.538868920622     1.037723957029     1.007825032230
         H           -1.616809738592     0.516852079378     1.331341957029     1.007825032230

  Basis Set: AUG-CC-PVTZ
    Blend: AUG-CC-PVTZ
  Basis Set: (AUG-CC-PVTZ AUX)
    Blend: AUG-CC-PVTZ-JKFIT
	 Reference Energy          =    -642.2000227035802027 [Eh]
	 Singles Energy            =      -0.0000000000000000 [Eh]
	 Same-Spin Energy          =      -0.3265739062962483 [Eh]
	 Opposite-Spin Energy      =      -0.9279884375994034 [Eh]
	 Correlation Energy        =      -1.2545623438956517 [Eh]
	 Total Energy              =    -643.4545850474758026 [Eh]

	 ================> DF-SCS-MP2 Energies <==================
	-----------------------------------------------------------
	 SCS Same-Spin Scale       =       0.3333333333333333 [-]
	 SCS Opposite-Spin Scale   =       1.2000000000000000 [-]
	 SCS Same-Spin Energy      =      -0.1088579687654161 [Eh]
	 SCS Opposite-Spin Energy  =      -1.1135861251192840 [Eh]
	 SCS Correlation Energy    =      -1.2224440938847001 [Eh]
	 SCS Total Energy          =    -643.4224667974649492 [Eh]
	-----------------------------------------------------------

  Dipole Moment: [D]
     X:     0.6377      Y:     2.6543      Z:     1.7847     Total:     3.2614

*** Psi4 exiting successfully. Buy a developer a beer!
