                               Psi4 1.3.2 release

  ==> Input File <==

--------------------------------------------------------------------------
#psi4
#
memory 32 gb

molecule  {
0 1
  P       -0.0856380    -0.0896540    -0.0873550
  O       -0.7240330     0.8430000     1.0823540
  O        0.9169770     0.9699500    -0.7813470
  O       -1.0889050    -0.8012840    -0.9028220
  O        0.9882750    -1.0520330     0.6191980
  H        0.4349990     1.7159670    -1.1819520
  H        1.7169640    -0.5519720     1.0297980
  H       -1.6963515     0.4689594     1.3481365
units angstrom
no_reorient  #important for SAPT in psi4, default
symmetry c1  #important for SAPT in psi4, default
}

set PROPERTIES_ORIGIN ["COM"]
properties('MP2/aug-cc-pvtz', properties = ['dipole'])
--------------------------------------------------------------------------

    Molecular point group: c1
  Charge       = 0
  Multiplicity = 1
  Basis Set: AUG-CC-PVTZ
    Blend: AUG-CC-PVTZ
  Basis Set: (AUG-CC-PVTZ AUX)
    Blend: AUG-CC-PVTZ-JKFIT

    Orbital Energies [Eh]
    ---------------------

    Doubly Occupied:

       1A    -80.123832     2A    -20.623539     3A    -20.620495
       4A    -20.615772     5A    -20.524552     6A     -7.639148
       7A     -5.537683     8A     -5.537317     9A     -5.536067
      10A     -1.459457    11A     -1.390940    12A     -1.376434
      13A     -1.304350    14A     -0.857760    15A     -0.768445
      16A     -0.748145    17A     -0.670147    18A     -0.652313
      19A     -0.611923    20A     -0.590301    21A     -0.586009
      22A     -0.558259    23A     -0.540502    24A     -0.481461
      25A     -0.475834

  @DF-RHF Final Energy:  -642.20251227237850

   => Energetics <=

    Nuclear Repulsion Energy =            276.9265762696047659
    One-Electron Energy =               -1438.5968010888896060
    Two-Electron Energy =                 519.4677125469063412
    Total Energy =                       -642.2025122723784989
  Basis Set: (AUG-CC-PVTZ AUX)
    Blend: AUG-CC-PVTZ-RI
    Molecular point group: c1

    Geometry (in Angstrom), charge = 0, multiplicity = 1:

       Center              X                  Y                   Z               Mass
    ------------   -----------------  -----------------  -----------------  -----------------
         P           -0.078321991435    -0.071518540151    -0.074879280395    30.973761998420
         O           -0.716716991435     0.861135459849     1.094829719605    15.994914619570
         O            0.924293008565     0.988085459849    -0.768871280395    15.994914619570
         O           -1.081588991435    -0.783148540151    -0.890346280395    15.994914619570
         O            0.995591008565    -1.033897540151     0.631673719605    15.994914619570
         H            0.442315008565     1.734102459849    -1.169476280395     1.007825032230
         H            1.724280008565    -0.533836540151     1.042273719605     1.007825032230
         H           -1.689035491435     0.487094859849     1.360612219605     1.007825032230

  Basis Set: AUG-CC-PVTZ
    Blend: AUG-CC-PVTZ
  Basis Set: (AUG-CC-PVTZ AUX)
    Blend: AUG-CC-PVTZ-JKFIT
	 Reference Energy          =    -642.2025122723784989 [Eh]
	 Singles Energy            =      -0.0000000000000000 [Eh]
	 Same-Spin Energy          =      -0.3261378617611410 [Eh]
	 Opposite-Spin Energy      =      -0.9271203438140265 [Eh]
	 Correlation Energy        =      -1.2532582055751675 [Eh]
	 Total Energy              =    -643.4557704779537062 [Eh]

	 ================> DF-SCS-MP2 Energies <==================
	-----------------------------------------------------------
	 SCS Same-Spin Scale       =       0.3333333333333333 [-]
	 SCS Opposite-Spin Scale   =       1.2000000000000000 [-]
	 SCS Same-Spin Energy      =      -0.1087126205870470 [Eh]
	 SCS Opposite-Spin Energy  =      -1.1125444125768318 [Eh]
	 SCS Correlation Energy    =      -1.2212570331638788 [Eh]
	 SCS Total Energy          =    -643.4237693055423506 [Eh]
	-----------------------------------------------------------

  Dipole Moment: [D]
     X:     0.7791      Y:     2.6936      Z:     1.9215     Total:     3.3991

*** Psi4 exiting successfully. Buy a developer a beer!
