                               Psi4 1.3.2 release

  ==> Input File <==

--------------------------------------------------------------------------
#psi4
#
memory 32 gb

molecule  {
0 1
  P       -0.0856380    -0.0896540    -0.0873550
  O       -0.8768127     0.7915794     1.0275805
  O        0.9169770     0.9699500    -0.7813470
  O       -1.0889050    -0.8012840    -0.9028220
  O        0.9882750    -1.0520330     0.6191980
  H        0.4349990     1.7159670    -1.1819520
  H        1.7169640    -0.5519720     1.0297980
  H       -1.6059160     0.5037490     1.3234160
units angstrom
no_reorient  #important for SAPT in psi4, default
symmetry c1  #important for SAPT in psi4, default
}

set PROPERTIES_ORIGIN ["COM"]
properties('MP2/aug-cc-pvtz', properties = ['dipole'])
--------------------------------------------------------------------------

    Molecular point group: c1
  Charge       = 0
  Multiplicity = 1
  Basis Set: AUG-CC-PVTZ
    Blend: AUG-CC-PVTZ
  Basis Set: (AUG-CC-PVTZ AUX)
    Blend: AUG-CC-PVTZ-JKFIT

    Orbital Energies [Eh]
    ---------------------

    Doubly Occupied:

       1A    -80.129796     2A    -20.629985     3A    -20.624038
       4A    -20.600606     5A    -20.516294     6A     -7.644406
       7A     -5.543010     8A     -5.542544     9A     -5.541366
      10A     -1.473943    11A     -1.420050    12A     -1.398141
      13A     -1.300625    14A     -0.889449    15A     -0.801270
      16A     -0.773024    17A     -0.672616    18A     -0.657447
      19A     -0.623962    20A     -0.597983    21A     -0.593847
      22A     -0.556117    23A     -0.551898    24A     -0.475612
      25A     -0.468285

  @DF-RHF Final Energy:  -642.19733993371892

   => Energetics <=

    Nuclear Repulsion Energy =            277.9909205808046977
    One-Electron Energy =               -1440.3238923041390080
    Two-Electron Energy =                 520.1356317896154451
    Total Energy =                       -642.1973399337189221
  Basis Set: (AUG-CC-PVTZ AUX)
    Blend: AUG-CC-PVTZ-RI
    Molecular point group: c1

    Geometry (in Angstrom), charge = 0, multiplicity = 1:

       Center              X                  Y                   Z               Mass
    ------------   -----------------  -----------------  -----------------  -----------------
         P           -0.054310666289    -0.063481887506    -0.065683118490    30.973761998420
         O           -0.845485366289     0.817751512494     1.049252381510    15.994914619570
         O            0.948304333711     0.996122112494    -0.759675118490    15.994914619570
         O           -1.057577666289    -0.775111887506    -0.881150118490    15.994914619570
         O            1.019602333711    -1.025860887506     0.640869881510    15.994914619570
         H            0.466326333711     1.742139112494    -1.160280118490     1.007825032230
         H            1.748291333711    -0.525799887506     1.051469881510     1.007825032230
         H           -1.574588666289     0.529921112494     1.345087881510     1.007825032230

  Basis Set: AUG-CC-PVTZ
    Blend: AUG-CC-PVTZ
  Basis Set: (AUG-CC-PVTZ AUX)
    Blend: AUG-CC-PVTZ-JKFIT
	 Reference Energy          =    -642.1973399337189221 [Eh]
	 Singles Energy            =      -0.0000000000000000 [Eh]
	 Same-Spin Energy          =      -0.3233368513440728 [Eh]
	 Opposite-Spin Energy      =      -0.9205433431825654 [Eh]
	 Correlation Energy        =      -1.2438801945266382 [Eh]
	 Total Energy              =    -643.4412201282455044 [Eh]

	 ================> DF-SCS-MP2 Energies <==================
	-----------------------------------------------------------
	 SCS Same-Spin Scale       =       0.3333333333333333 [-]
	 SCS Opposite-Spin Scale   =       1.2000000000000000 [-]
	 SCS Same-Spin Energy      =      -0.1077789504480242 [Eh]
	 SCS Opposite-Spin Energy  =      -1.1046520118190783 [Eh]
	 SCS Correlation Energy    =      -1.2124309622671026 [Eh]
	 SCS Total Energy          =    -643.4097708959860711 [Eh]
	-----------------------------------------------------------

  Dipole Moment: [D]
     X:     1.3883      Y:     2.8089      Z:     1.9673     Total:     3.6997

*** Psi4 exiting successfully. Buy a developer a beer!
