                               Psi4 1.3.2 release

  ==> Input File <==

--------------------------------------------------------------------------
#psi4
#
memory 32 gb

molecule  {
0 1
  P       -0.0856380    -0.0896540    -0.0873550
  O       -0.8025306     0.9576800     1.2261825
  O        0.9169770     0.9699500    -0.7813470
  O       -1.0889050    -0.8012840    -0.9028220
  O        0.9882750    -1.0520330     0.6191980
  H        0.4349990     1.7159670    -1.1819520
  H        1.7169640    -0.5519720     1.0297980
  H       -1.6059160     0.5037490     1.3234160
units angstrom
no_reorient  #important for SAPT in psi4, default
symmetry c1  #important for SAPT in psi4, default
}

set PROPERTIES_ORIGIN ["COM"]
properties('MP2/aug-cc-pvtz', properties = ['dipole'])
--------------------------------------------------------------------------

    Molecular point group: c1
  Charge       = 0
  Multiplicity = 1
  Basis Set: AUG-CC-PVTZ
    Blend: AUG-CC-PVTZ
  Basis Set: (AUG-CC-PVTZ AUX)
    Blend: AUG-CC-PVTZ-JKFIT

    Orbital Energies [Eh]
    ---------------------

    Doubly Occupied:

       1A    -80.146090     2A    -20.634522     3A    -20.631143
       4A    -20.605757     5A    -20.545169     6A     -7.659380
       7A     -5.557841     8A     -5.557336     9A     -5.556042
      10A     -1.462141    11A     -1.403110    12A     -1.367344
      13A     -1.321596    14A     -0.864405    15A     -0.778645
      16A     -0.734584    17A     -0.677614    18A     -0.655744
      19A     -0.613538    20A     -0.604044    21A     -0.588228
      22A     -0.556281    23A     -0.534929    24A     -0.497250
      25A     -0.488692

  @DF-RHF Final Energy:  -642.18493778269408

   => Energetics <=

    Nuclear Repulsion Energy =            270.9481038906948811
    One-Electron Energy =               -1426.1832355829174048
    Two-Electron Energy =                 513.0501939095283888
    Total Energy =                       -642.1849377826940781
  Basis Set: (AUG-CC-PVTZ AUX)
    Blend: AUG-CC-PVTZ-RI
    Molecular point group: c1

    Geometry (in Angstrom), charge = 0, multiplicity = 1:

       Center              X                  Y                   Z               Mass
    ------------   -----------------  -----------------  -----------------  -----------------
         P           -0.066437360448    -0.090598126489    -0.098105272863    30.973761998420
         O           -0.783329960448     0.956735873511     1.215432227137    15.994914619570
         O            0.936177639552     0.969005873511    -0.792097272863    15.994914619570
         O           -1.069704360448    -0.802228126489    -0.913572272863    15.994914619570
         O            1.007475639552    -1.052977126489     0.608447727137    15.994914619570
         H            0.454199639552     1.715022873511    -1.192702272863     1.007825032230
         H            1.736164639552    -0.552916126489     1.019047727137     1.007825032230
         H           -1.586715360448     0.502804873511     1.312665727137     1.007825032230

  Basis Set: AUG-CC-PVTZ
    Blend: AUG-CC-PVTZ
  Basis Set: (AUG-CC-PVTZ AUX)
    Blend: AUG-CC-PVTZ-JKFIT
	 Reference Energy          =    -642.1849377826940781 [Eh]
	 Singles Energy            =      -0.0000000000000000 [Eh]
	 Same-Spin Energy          =      -0.3268473633134225 [Eh]
	 Opposite-Spin Energy      =      -0.9308814807276787 [Eh]
	 Correlation Energy        =      -1.2577288440411012 [Eh]
	 Total Energy              =    -643.4426666267352175 [Eh]

	 ================> DF-SCS-MP2 Energies <==================
	-----------------------------------------------------------
	 SCS Same-Spin Scale       =       0.3333333333333333 [-]
	 SCS Opposite-Spin Scale   =       1.2000000000000000 [-]
	 SCS Same-Spin Energy      =      -0.1089491211044741 [Eh]
	 SCS Opposite-Spin Energy  =      -1.1170577768732144 [Eh]
	 SCS Correlation Energy    =      -1.2260068979776886 [Eh]
	 SCS Total Energy          =    -643.4109446806717187 [Eh]
	-----------------------------------------------------------

  Dipole Moment: [D]
     X:     1.4909      Y:     2.0907      Z:     0.9733     Total:     2.7462

*** Psi4 exiting successfully. Buy a developer a beer!
