                               Psi4 1.3.2 release

  ==> Input File <==

--------------------------------------------------------------------------
#psi4
#
memory 32 gb

molecule  {
0 1
  P       -0.0856380    -0.0896540    -0.0873550
  O       -0.6918449     0.8860933     1.0641836
  O        0.9169770     0.9699500    -0.7813470
  O       -1.0889050    -0.8012840    -0.9028220
  O        0.9882750    -1.0520330     0.6191980
  H        0.4349990     1.7159670    -1.1819520
  H        1.7169640    -0.5519720     1.0297980
  H       -1.6059160     0.5037490     1.3234160
units angstrom
no_reorient  #important for SAPT in psi4, default
symmetry c1  #important for SAPT in psi4, default
}

set PROPERTIES_ORIGIN ["COM"]
properties('MP2/aug-cc-pvtz', properties = ['dipole'])
--------------------------------------------------------------------------

    Molecular point group: c1
  Charge       = 0
  Multiplicity = 1
  Basis Set: AUG-CC-PVTZ
    Blend: AUG-CC-PVTZ
  Basis Set: (AUG-CC-PVTZ AUX)
    Blend: AUG-CC-PVTZ-JKFIT

    Orbital Energies [Eh]
    ---------------------

    Doubly Occupied:

       1A    -80.125023     2A    -20.623683     3A    -20.617554
       4A    -20.617494     5A    -20.528321     6A     -7.640482
       7A     -5.539042     8A     -5.538684     9A     -5.537331
      10A     -1.462424    11A     -1.391912    12A     -1.384694
      13A     -1.308118    14A     -0.860359    15A     -0.771140
      16A     -0.752361    17A     -0.674736    18A     -0.658704
      19A     -0.612563    20A     -0.590245    21A     -0.587164
      22A     -0.560397    23A     -0.543290    24A     -0.484518
      25A     -0.479454

  @DF-RHF Final Energy:  -642.20975389753528

   => Energetics <=

    Nuclear Repulsion Energy =            277.4263378745174009
    One-Electron Energy =               -1439.4927976675212449
    Two-Electron Energy =                 519.8567058954685081
    Total Energy =                       -642.2097538975352791
  Basis Set: (AUG-CC-PVTZ AUX)
    Blend: AUG-CC-PVTZ-RI
    Molecular point group: c1

    Geometry (in Angstrom), charge = 0, multiplicity = 1:

       Center              X                  Y                   Z               Mass
    ------------   -----------------  -----------------  -----------------  -----------------
         P           -0.084507011571    -0.078911461509    -0.071658644209    30.973761998420
         O           -0.690713911571     0.896835838491     1.079879955791    15.994914619570
         O            0.918107988429     0.980692538491    -0.765650644209    15.994914619570
         O           -1.087774011571    -0.790541461509    -0.887125644209    15.994914619570
         O            0.989405988429    -1.041290461509     0.634894355791    15.994914619570
         H            0.436129988429     1.726709538491    -1.166255644209     1.007825032230
         H            1.718094988429    -0.541229461509     1.045494355791     1.007825032230
         H           -1.604785011571     0.514491538491     1.339112355791     1.007825032230

  Basis Set: AUG-CC-PVTZ
    Blend: AUG-CC-PVTZ
  Basis Set: (AUG-CC-PVTZ AUX)
    Blend: AUG-CC-PVTZ-JKFIT
	 Reference Energy          =    -642.2097538975352791 [Eh]
	 Singles Energy            =      -0.0000000000000000 [Eh]
	 Same-Spin Energy          =      -0.3257828245883402 [Eh]
	 Opposite-Spin Energy      =      -0.9260765617578984 [Eh]
	 Correlation Energy        =      -1.2518593863462386 [Eh]
	 Total Energy              =    -643.4616132838815474 [Eh]

	 ================> DF-SCS-MP2 Energies <==================
	-----------------------------------------------------------
	 SCS Same-Spin Scale       =       0.3333333333333333 [-]
	 SCS Opposite-Spin Scale   =       1.2000000000000000 [-]
	 SCS Same-Spin Energy      =      -0.1085942748627801 [Eh]
	 SCS Opposite-Spin Energy  =      -1.1112918741094782 [Eh]
	 SCS Correlation Energy    =      -1.2198861489722583 [Eh]
	 SCS Total Energy          =    -643.4296400465075294 [Eh]
	-----------------------------------------------------------

  Dipole Moment: [D]
     X:     0.8368      Y:     2.6111      Z:     1.9117     Total:     3.3426

*** Psi4 exiting successfully. Buy a developer a beer!
