                               Psi4 1.3.2 release

  ==> Input File <==

--------------------------------------------------------------------------
#psi4
#
memory 32 gb

molecule  {
0 1
  P       -0.0704900    -0.0674111    -0.0795266
  O       -0.7240330     0.8430000     1.0823540
  O        0.9169770     0.9699500    -0.7813470
  O       -1.0889050    -0.8012840    -0.9028220
  O        0.9882750    -1.0520330     0.6191980
  H        0.4349990     1.7159670    -1.1819520
  H        1.7169640    -0.5519720     1.0297980
  H       -1.6059160     0.5037490     1.3234160
units angstrom
no_reorient  #important for SAPT in psi4, default
symmetry c1  #important for SAPT in psi4, default
}

set PROPERTIES_ORIGIN ["COM"]
properties('MP2/aug-cc-pvtz', properties = ['dipole'])
--------------------------------------------------------------------------

    Molecular point group: c1
  Charge       = 0
  Multiplicity = 1
  Basis Set: AUG-CC-PVTZ
    Blend: AUG-CC-PVTZ
  Basis Set: (AUG-CC-PVTZ AUX)
    Blend: AUG-CC-PVTZ-JKFIT

    Orbital Energies [Eh]
    ---------------------

    Doubly Occupied:

       1A    -80.126641     2A    -20.626924     3A    -20.620479
       4A    -20.617775     5A    -20.520758     6A     -7.641663
       7A     -5.540299     8A     -5.539947     9A     -5.538363
      10A     -1.469808    11A     -1.399950    12A     -1.396113
      13A     -1.291229    14A     -0.870418    15A     -0.775155
      16A     -0.769690    17A     -0.678881    18A     -0.660288
      19A     -0.617473    20A     -0.599242    21A     -0.590855
      22A     -0.554316    23A     -0.545969    24A     -0.472658
      25A     -0.468527

  @DF-RHF Final Energy:  -642.21412778591650

   => Energetics <=

    Nuclear Repulsion Energy =            277.6555233016887314
    One-Electron Energy =               -1439.8724604496946995
    Two-Electron Energy =                 520.0028093620893515
    Total Energy =                       -642.2141277859165029
  Basis Set: (AUG-CC-PVTZ AUX)
    Blend: AUG-CC-PVTZ-RI
    Molecular point group: c1

    Geometry (in Angstrom), charge = 0, multiplicity = 1:

       Center              X                  Y                   Z               Mass
    ------------   -----------------  -----------------  -----------------  -----------------
         P           -0.068893030645    -0.056665220278    -0.069271414721    30.973761998420
         O           -0.722436030645     0.853745879722     1.092609185279    15.994914619570
         O            0.918573969355     0.980695879722    -0.771091814721    15.994914619570
         O           -1.087308030645    -0.790538120278    -0.892566814721    15.994914619570
         O            0.989871969355    -1.041287120278     0.629453185279    15.994914619570
         H            0.436595969355     1.726712879722    -1.171696814721     1.007825032230
         H            1.718560969355    -0.541226120278     1.040053185279     1.007825032230
         H           -1.604319030645     0.514494879722     1.333671185279     1.007825032230

  Basis Set: AUG-CC-PVTZ
    Blend: AUG-CC-PVTZ
  Basis Set: (AUG-CC-PVTZ AUX)
    Blend: AUG-CC-PVTZ-JKFIT
	 Reference Energy          =    -642.2141277859165029 [Eh]
	 Singles Energy            =      -0.0000000000000000 [Eh]
	 Same-Spin Energy          =      -0.3253165856064569 [Eh]
	 Opposite-Spin Energy      =      -0.9246065814485640 [Eh]
	 Correlation Energy        =      -1.2499231670550208 [Eh]
	 Total Energy              =    -643.4640509529715473 [Eh]

	 ================> DF-SCS-MP2 Energies <==================
	-----------------------------------------------------------
	 SCS Same-Spin Scale       =       0.3333333333333333 [-]
	 SCS Opposite-Spin Scale   =       1.2000000000000000 [-]
	 SCS Same-Spin Energy      =      -0.1084388618688190 [Eh]
	 SCS Opposite-Spin Energy  =      -1.1095278977382768 [Eh]
	 SCS Correlation Energy    =      -1.2179667596070958 [Eh]
	 SCS Total Energy          =    -643.4320945455235687 [Eh]
	-----------------------------------------------------------

  Dipole Moment: [D]
     X:     1.0815      Y:     2.9472      Z:     1.9340     Total:     3.6872

*** Psi4 exiting successfully. Buy a developer a beer!
