                               Psi4 1.3.2 release

  ==> Input File <==

--------------------------------------------------------------------------
#psi4
#
memory 32 gb

molecule  {
0 1
  P       -0.0856380    -0.0896540    -0.0873550
  O       -0.6589183     0.9279978     1.0446102
  O        0.9169770     0.9699500    -0.7813470
  O       -1.0889050    -0.8012840    -0.9028220
  O        0.9882750    -1.0520330     0.6191980
  H        0.4349990     1.7159670    -1.1819520
  H        1.7169640    -0.5519720     1.0297980
  H       -1.6059160     0.5037490     1.3234160
units angstrom
no_reorient  #important for SAPT in psi4, default
symmetry c1  #important for SAPT in psi4, default
}

set PROPERTIES_ORIGIN ["COM"]
properties('MP2/aug-cc-pvtz', properties = ['dipole'])
--------------------------------------------------------------------------

    Molecular point group: c1
  Charge       = 0
  Multiplicity = 1
  Basis Set: AUG-CC-PVTZ
    Blend: AUG-CC-PVTZ
  Basis Set: (AUG-CC-PVTZ AUX)
    Blend: AUG-CC-PVTZ-JKFIT

    Orbital Energies [Eh]
    ---------------------

    Doubly Occupied:

       1A    -80.124364     2A    -20.628434     3A    -20.617950
       4A    -20.613567     5A    -20.530221     6A     -7.639943
       7A     -5.538557     8A     -5.538136     9A     -5.536733
      10A     -1.460956    11A     -1.391126    12A     -1.377063
      13A     -1.309288    14A     -0.856147    15A     -0.769787
      16A     -0.741902    17A     -0.673240    18A     -0.659246
      19A     -0.611149    20A     -0.586967    21A     -0.585302
      22A     -0.560251    23A     -0.542525    24A     -0.485918
      25A     -0.480700

  @DF-RHF Final Energy:  -642.20005694450981

   => Energetics <=

    Nuclear Repulsion Energy =            277.3543353076022981
    One-Electron Energy =               -1439.3898426857206232
    Two-Electron Energy =                 519.8354504336085711
    Total Energy =                       -642.2000569445098108
  Basis Set: (AUG-CC-PVTZ AUX)
    Blend: AUG-CC-PVTZ-RI
    Molecular point group: c1

    Geometry (in Angstrom), charge = 0, multiplicity = 1:

       Center              X                  Y                   Z               Mass
    ------------   -----------------  -----------------  -----------------  -----------------
         P           -0.089882341669    -0.085752450864    -0.068463249417    30.973761998420
         O           -0.663162641669     0.931899349136     1.063501950583    15.994914619570
         O            0.912732658331     0.973851549136    -0.762455249417    15.994914619570
         O           -1.093149341669    -0.797382450864    -0.883930249417    15.994914619570
         O            0.984030658331    -1.048131450864     0.638089750583    15.994914619570
         H            0.430754658331     1.719868549136    -1.163060249417     1.007825032230
         H            1.712719658331    -0.548070450864     1.048689750583     1.007825032230
         H           -1.610160341669     0.507650549136     1.342307750583     1.007825032230

  Basis Set: AUG-CC-PVTZ
    Blend: AUG-CC-PVTZ
  Basis Set: (AUG-CC-PVTZ AUX)
    Blend: AUG-CC-PVTZ-JKFIT
	 Reference Energy          =    -642.2000569445098108 [Eh]
	 Singles Energy            =      -0.0000000000000000 [Eh]
	 Same-Spin Energy          =      -0.3265542347064766 [Eh]
	 Opposite-Spin Energy      =      -0.9279902452412800 [Eh]
	 Correlation Energy        =      -1.2545444799477568 [Eh]
	 Total Energy              =    -643.4546014244575645 [Eh]

	 ================> DF-SCS-MP2 Energies <==================
	-----------------------------------------------------------
	 SCS Same-Spin Scale       =       0.3333333333333333 [-]
	 SCS Opposite-Spin Scale   =       1.2000000000000000 [-]
	 SCS Same-Spin Energy      =      -0.1088514115688255 [Eh]
	 SCS Opposite-Spin Energy  =      -1.1135882942895361 [Eh]
	 SCS Correlation Energy    =      -1.2224397058583616 [Eh]
	 SCS Total Energy          =    -643.4224966503682026 [Eh]
	-----------------------------------------------------------

  Dipole Moment: [D]
     X:     0.7567      Y:     2.5173      Z:     1.9681     Total:     3.2837

*** Psi4 exiting successfully. Buy a developer a beer!
