                               Psi4 1.3.2 release

  ==> Input File <==

--------------------------------------------------------------------------
#psi4
#
memory 32 gb

molecule  {
0 1
  P        0.0099919     0.0391721    -0.0372419
  O       -0.7240330     0.8430000     1.0823540
  O        0.9169770     0.9699500    -0.7813470
  O       -1.0889050    -0.8012840    -0.9028220
  O        0.9882750    -1.0520330     0.6191980
  H        0.4349990     1.7159670    -1.1819520
  H        1.7169640    -0.5519720     1.0297980
  H       -1.6059160     0.5037490     1.3234160
units angstrom
no_reorient  #important for SAPT in psi4, default
symmetry c1  #important for SAPT in psi4, default
}

set PROPERTIES_ORIGIN ["COM"]
properties('MP2/aug-cc-pvtz', properties = ['dipole'])
--------------------------------------------------------------------------

    Molecular point group: c1
  Charge       = 0
  Multiplicity = 1
  Basis Set: AUG-CC-PVTZ
    Blend: AUG-CC-PVTZ
  Basis Set: (AUG-CC-PVTZ AUX)
    Blend: AUG-CC-PVTZ-JKFIT

    Orbital Energies [Eh]
    ---------------------

    Doubly Occupied:

       1A    -80.127223     2A    -20.652613     3A    -20.629118
       4A    -20.622362     5A    -20.491106     6A     -7.643713
       7A     -5.542750     8A     -5.541867     9A     -5.539607
      10A     -1.507746    11A     -1.432877    12A     -1.406936
      13A     -1.214621    14A     -0.897491    15A     -0.812391
      16A     -0.774020    17A     -0.705458    18A     -0.668620
      19A     -0.637656    20A     -0.632489    21A     -0.604950
      22A     -0.556141    23A     -0.504654    24A     -0.421687
      25A     -0.420369

  @DF-RHF Final Energy:  -642.17503637646416

   => Energetics <=

    Nuclear Repulsion Energy =            278.4262742020724204
    One-Electron Energy =               -1441.2256906613383762
    Two-Electron Energy =                 520.6243800828018493
    Total Energy =                       -642.1750363764641634
  Basis Set: (AUG-CC-PVTZ AUX)
    Blend: AUG-CC-PVTZ-RI
    Molecular point group: c1

    Geometry (in Angstrom), charge = 0, multiplicity = 1:

       Center              X                  Y                   Z               Mass
    ------------   -----------------  -----------------  -----------------  -----------------
         P           -0.013854141482     0.016223478069    -0.040354317626    30.973761998420
         O           -0.747879041482     0.820051378069     1.079241582374    15.994914619570
         O            0.893130958518     0.947001378069    -0.784459417626    15.994914619570
         O           -1.112751041482    -0.824232621931    -0.905934417626    15.994914619570
         O            0.964428958518    -1.074981621931     0.616085582374    15.994914619570
         H            0.411152958518     1.693018378069    -1.185064417626     1.007825032230
         H            1.693117958518    -0.574920621931     1.026685582374     1.007825032230
         H           -1.629762041482     0.480800378069     1.320303582374     1.007825032230

  Basis Set: AUG-CC-PVTZ
    Blend: AUG-CC-PVTZ
  Basis Set: (AUG-CC-PVTZ AUX)
    Blend: AUG-CC-PVTZ-JKFIT
	 Reference Energy          =    -642.1750363764641634 [Eh]
	 Singles Energy            =      -0.0000000000000000 [Eh]
	 Same-Spin Energy          =      -0.3264927196053772 [Eh]
	 Opposite-Spin Energy      =      -0.9260607630277996 [Eh]
	 Correlation Energy        =      -1.2525534826331768 [Eh]
	 Total Energy              =    -643.4275898590973384 [Eh]

	 ================> DF-SCS-MP2 Energies <==================
	-----------------------------------------------------------
	 SCS Same-Spin Scale       =       0.3333333333333333 [-]
	 SCS Opposite-Spin Scale   =       1.2000000000000000 [-]
	 SCS Same-Spin Energy      =      -0.1088309065351257 [Eh]
	 SCS Opposite-Spin Energy  =      -1.1112729156333594 [Eh]
	 SCS Correlation Energy    =      -1.2201038221684852 [Eh]
	 SCS Total Energy          =    -643.3951401986327028 [Eh]
	-----------------------------------------------------------

  Dipole Moment: [D]
     X:     1.9586      Y:     4.0957      Z:     2.3985     Total:     5.1346

*** Psi4 exiting successfully. Buy a developer a beer!
