                               Psi4 1.3.2 release

  ==> Input File <==

--------------------------------------------------------------------------
#psi4
#
memory 32 gb

molecule  {
0 1
  P       -0.0856380    -0.0896540    -0.0873550
  O       -0.7240330     0.8430000     1.0823540
  O        0.9169770     0.9699500    -0.7813470
  O       -1.1568868    -0.8495044    -0.9580784
  O        0.9882750    -1.0520330     0.6191980
  H        0.4349990     1.7159670    -1.1819520
  H        1.7169640    -0.5519720     1.0297980
  H       -1.6059160     0.5037490     1.3234160
units angstrom
no_reorient  #important for SAPT in psi4, default
symmetry c1  #important for SAPT in psi4, default
}

set PROPERTIES_ORIGIN ["COM"]
properties('MP2/aug-cc-pvtz', properties = ['dipole'])
--------------------------------------------------------------------------

    Molecular point group: c1
  Charge       = 0
  Multiplicity = 1
  Basis Set: AUG-CC-PVTZ
    Blend: AUG-CC-PVTZ
  Basis Set: (AUG-CC-PVTZ AUX)
    Blend: AUG-CC-PVTZ-JKFIT

    Orbital Energies [Eh]
    ---------------------

    Doubly Occupied:

       1A    -80.142817     2A    -20.628539     3A    -20.625871
       4A    -20.623853     5A    -20.529537     6A     -7.654926
       7A     -5.553723     8A     -5.553409     9A     -5.551089
      10A     -1.467359    11A     -1.400039    12A     -1.397730
      13A     -1.266157    14A     -0.874144    15A     -0.778399
      16A     -0.767761    17A     -0.679238    18A     -0.660713
      19A     -0.618335    20A     -0.597159    21A     -0.591507
      22A     -0.550377    23A     -0.542482    24A     -0.463058
      25A     -0.460132

  @DF-RHF Final Energy:  -642.19602992971954

   => Energetics <=

    Nuclear Repulsion Energy =            273.4991460286242955
    One-Electron Energy =               -1431.4336438881487084
    Two-Electron Energy =                 515.7384679298049832
    Total Energy =                       -642.1960299297195434
  Basis Set: (AUG-CC-PVTZ AUX)
    Blend: AUG-CC-PVTZ-RI
    Molecular point group: c1

    Geometry (in Angstrom), charge = 0, multiplicity = 1:

       Center              X                  Y                   Z               Mass
    ------------   -----------------  -----------------  -----------------  -----------------
         P           -0.068154084806    -0.064004326245    -0.065604284146    30.973761998420
         O           -0.706549084806     0.868649673755     1.104104715854    15.994914619570
         O            0.934460915194     0.995599673755    -0.759596284146    15.994914619570
         O           -1.139402884806    -0.823854726245    -0.936327684146    15.994914619570
         O            1.005758915194    -1.026383326245     0.640948715854    15.994914619570
         H            0.452482915194     1.741616673755    -1.160201284146     1.007825032230
         H            1.734447915194    -0.526322326245     1.051548715854     1.007825032230
         H           -1.588432084806     0.529398673755     1.345166715854     1.007825032230

  Basis Set: AUG-CC-PVTZ
    Blend: AUG-CC-PVTZ
  Basis Set: (AUG-CC-PVTZ AUX)
    Blend: AUG-CC-PVTZ-JKFIT
	 Reference Energy          =    -642.1960299297195434 [Eh]
	 Singles Energy            =      -0.0000000000000000 [Eh]
	 Same-Spin Energy          =      -0.3272686993211540 [Eh]
	 Opposite-Spin Energy      =      -0.9298545516398724 [Eh]
	 Correlation Energy        =      -1.2571232509610264 [Eh]
	 Total Energy              =    -643.4531531806806015 [Eh]

	 ================> DF-SCS-MP2 Energies <==================
	-----------------------------------------------------------
	 SCS Same-Spin Scale       =       0.3333333333333333 [-]
	 SCS Opposite-Spin Scale   =       1.2000000000000000 [-]
	 SCS Same-Spin Energy      =      -0.1090895664403847 [Eh]
	 SCS Opposite-Spin Energy  =      -1.1158254619678469 [Eh]
	 SCS Correlation Energy    =      -1.2249150284082315 [Eh]
	 SCS Total Energy          =    -643.4209449581277340 [Eh]
	-----------------------------------------------------------

  Dipole Moment: [D]
     X:     1.2316      Y:     2.9452      Z:     2.1157     Total:     3.8298

*** Psi4 exiting successfully. Buy a developer a beer!
