                               Psi4 1.3.2 release

  ==> Input File <==

--------------------------------------------------------------------------
#psi4
#
memory 32 gb

molecule  {
0 1
  P       -0.0856380    -0.0896540    -0.0873550
  O       -0.7758211     0.8269696     1.0654933
  O        0.9169770     0.9699500    -0.7813470
  O       -1.0889050    -0.8012840    -0.9028220
  O        0.9882750    -1.0520330     0.6191980
  H        0.4349990     1.7159670    -1.1819520
  H        1.7169640    -0.5519720     1.0297980
  H       -1.6059160     0.5037490     1.3234160
units angstrom
no_reorient  #important for SAPT in psi4, default
symmetry c1  #important for SAPT in psi4, default
}

set PROPERTIES_ORIGIN ["COM"]
properties('MP2/aug-cc-pvtz', properties = ['dipole'])
--------------------------------------------------------------------------

    Molecular point group: c1
  Charge       = 0
  Multiplicity = 1
  Basis Set: AUG-CC-PVTZ
    Blend: AUG-CC-PVTZ
  Basis Set: (AUG-CC-PVTZ AUX)
    Blend: AUG-CC-PVTZ-JKFIT

    Orbital Energies [Eh]
    ---------------------

    Doubly Occupied:

       1A    -80.127002     2A    -20.624299     3A    -20.619453
       4A    -20.612994     5A    -20.523103     6A     -7.642107
       7A     -5.540653     8A     -5.540271     9A     -5.539049
      10A     -1.466901    11A     -1.402228    12A     -1.394050
      13A     -1.304840    14A     -0.872319    15A     -0.781535
      16A     -0.768017    17A     -0.674915    18A     -0.658203
      19A     -0.617069    20A     -0.595628    21A     -0.590242
      22A     -0.559181    23A     -0.546660    24A     -0.480652
      25A     -0.475055

  @DF-RHF Final Energy:  -642.21597987828648

   => Energetics <=

    Nuclear Repulsion Energy =            277.6531591219547863
    One-Electron Energy =               -1439.8254265066407243
    Two-Electron Energy =                 519.9562875063994625
    Total Energy =                       -642.2159798782864755
  Basis Set: (AUG-CC-PVTZ AUX)
    Blend: AUG-CC-PVTZ-RI
    Molecular point group: c1

    Geometry (in Angstrom), charge = 0, multiplicity = 1:

       Center              X                  Y                   Z               Mass
    ------------   -----------------  -----------------  -----------------  -----------------
         P           -0.070797737143    -0.069259404991    -0.071872455226    30.973761998420
         O           -0.760980837143     0.847364195009     1.080975844774    15.994914619570
         O            0.931817262857     0.990344595009    -0.765864455226    15.994914619570
         O           -1.074064737143    -0.780889404991    -0.887339455226    15.994914619570
         O            1.003115262857    -1.031638404991     0.634680544774    15.994914619570
         H            0.449839262857     1.736361595009    -1.166469455226     1.007825032230
         H            1.731804262857    -0.531577404991     1.045280544774     1.007825032230
         H           -1.591075737143     0.524143595009     1.338898544774     1.007825032230

  Basis Set: AUG-CC-PVTZ
    Blend: AUG-CC-PVTZ
  Basis Set: (AUG-CC-PVTZ AUX)
    Blend: AUG-CC-PVTZ-JKFIT
	 Reference Energy          =    -642.2159798782864755 [Eh]
	 Singles Energy            =      -0.0000000000000000 [Eh]
	 Same-Spin Energy          =      -0.3244031247246320 [Eh]
	 Opposite-Spin Energy      =      -0.9228763037185467 [Eh]
	 Correlation Energy        =      -1.2472794284431787 [Eh]
	 Total Energy              =    -643.4632593067296966 [Eh]

	 ================> DF-SCS-MP2 Energies <==================
	-----------------------------------------------------------
	 SCS Same-Spin Scale       =       0.3333333333333333 [-]
	 SCS Opposite-Spin Scale   =       1.2000000000000000 [-]
	 SCS Same-Spin Energy      =      -0.1081343749082107 [Eh]
	 SCS Opposite-Spin Energy  =      -1.1074515644622560 [Eh]
	 SCS Correlation Energy    =      -1.2155859393704667 [Eh]
	 SCS Total Energy          =    -643.4315658176569741 [Eh]
	-----------------------------------------------------------

  Dipole Moment: [D]
     X:     1.0731      Y:     2.7396      Z:     1.8880     Total:     3.4959

*** Psi4 exiting successfully. Buy a developer a beer!
