                               Psi4 1.4a3.dev225

  ==> Input File <==

--------------------------------------------------------------------------
#psi4
#
memory 32 gb

molecule  {
0 1
  P       -0.0856920    -0.0896190    -0.0873670
  O       -0.7236680     0.8429270     1.0826000
  O        0.9171570     0.9699100    -0.7812610
  O       -1.0892020    -0.8008150    -0.9029050
  O        0.9880740    -1.0524230     0.6189030
  H        0.4352420     1.7161240    -1.1815840
  H        1.7168380    -0.5525180     1.0295720
  H       -1.6236759     0.4969416     1.3287796
units angstrom
no_reorient  #important for SAPT in psi4, default
symmetry c1  #important for SAPT in psi4, default
}

set PROPERTIES_ORIGIN ["COM"]
properties('MP2/aug-cc-pvtz', properties = ['dipole'])
--------------------------------------------------------------------------

    Molecular point group: c1
  Charge       = 0
  Multiplicity = 1
  Basis Set: AUG-CC-PVTZ
    Blend: AUG-CC-PVTZ
  Basis Set: (AUG-CC-PVTZ AUX)
    Blend: AUG-CC-PVTZ-JKFIT

    Orbital Energies [Eh]
    ---------------------

    Doubly Occupied:

       1A    -80.125498     2A    -20.621308     3A    -20.619654
       4A    -20.616883     5A    -20.526037     6A     -7.640805
       7A     -5.539334     8A     -5.538998     9A     -5.537713
      10A     -1.463120    11A     -1.392173    12A     -1.389522
      13A     -1.306475    14A     -0.863831    15A     -0.771866
      16A     -0.759988    17A     -0.674702    18A     -0.656878
      19A     -0.613734    20A     -0.593458    21A     -0.587769
      22A     -0.559820    23A     -0.543176    24A     -0.482797
      25A     -0.477602

  @DF-RHF Final Energy:  -642.21393351078132

   => Energetics <=

    Nuclear Repulsion Energy =            277.4017091505760959
    One-Electron Energy =               -1439.4249980750767008
    Two-Electron Energy =                 519.8093554137192314
    Total Energy =                       -642.2139335107813167
  Basis Set: (AUG-CC-PVTZ AUX)
    Blend: AUG-CC-PVTZ-RI
    Molecular point group: c1

    Geometry (in Angstrom), charge = 0, multiplicity = 1:

       Center              X                  Y                   Z               Mass
    ------------   -----------------  -----------------  -----------------  -----------------
         P           -0.079115363528    -0.071772887676    -0.074682325944    30.973761998420
         O           -0.717091363528     0.860773112324     1.095284674056    15.994914619570
         O            0.923733636472     0.987756112324    -0.768576325944    15.994914619570
         O           -1.082625363528    -0.782968887676    -0.890220325944    15.994914619570
         O            0.994650636472    -1.034576887676     0.631587674056    15.994914619570
         H            0.441818636472     1.733970112324    -1.168899325944     1.007825032230
         H            1.723414636472    -0.534671887676     1.042256674056     1.007825032230
         H           -1.617099263528     0.514787712324     1.341464274056     1.007825032230

  Basis Set: AUG-CC-PVTZ
    Blend: AUG-CC-PVTZ
  Basis Set: (AUG-CC-PVTZ AUX)
    Blend: AUG-CC-PVTZ-JKFIT
	 Reference Energy          =    -642.2139335107813167 [Eh]
	 Singles Energy            =      -0.0000000000000000 [Eh]
	 Same-Spin Energy          =      -0.3252849508037014 [Eh]
	 Opposite-Spin Energy      =      -0.9249076256906751 [Eh]
	 Correlation Energy        =      -1.2501925764943764 [Eh]
	 Total Energy              =    -643.4641260872756447 [Eh]

	 ================> DF-SCS-MP2 Energies <==================
	-----------------------------------------------------------
	 SCS Same-Spin Scale       =       0.3333333333333333 [-]
	 SCS Opposite-Spin Scale   =       1.2000000000000000 [-]
	 SCS Same-Spin Energy      =      -0.1084283169345671 [Eh]
	 SCS Opposite-Spin Energy  =      -1.1098891508288100 [Eh]
	 SCS Correlation Energy    =      -1.2183174677633772 [Eh]
	 SCS Total Energy          =    -643.4322509785447437 [Eh]
	-----------------------------------------------------------

  Dipole Moment: [D]
     X:     0.8940      Y:     2.7058      Z:     1.8677     Total:     3.4072

*** Psi4 exiting successfully. Buy a developer a beer!
