                               Psi4 1.3.2 release

  ==> Input File <==

--------------------------------------------------------------------------
#psi4
#
memory 32 gb

molecule  {
0 1
  P       -0.0856380    -0.0896540    -0.0873550
  O       -0.7240330     0.8430000     1.0823540
  O        0.9169770     0.9699500    -0.7813470
  O       -1.0889050    -0.8012840    -0.9028220
  O        0.9882750    -1.0520330     0.6191980
  H        0.4349990     1.7159670    -1.1819520
  H        1.7169640    -0.5519720     1.0297980
  H       -1.5154805     0.5385386     1.2986955
units angstrom
no_reorient  #important for SAPT in psi4, default
symmetry c1  #important for SAPT in psi4, default
}

set PROPERTIES_ORIGIN ["COM"]
properties('MP2/aug-cc-pvtz', properties = ['dipole'])
--------------------------------------------------------------------------

    Molecular point group: c1
  Charge       = 0
  Multiplicity = 1
  Basis Set: AUG-CC-PVTZ
    Blend: AUG-CC-PVTZ
  Basis Set: (AUG-CC-PVTZ AUX)
    Blend: AUG-CC-PVTZ-JKFIT

    Orbital Energies [Eh]
    ---------------------

    Doubly Occupied:

       1A    -80.128016     2A    -20.622583     3A    -20.618550
       4A    -20.611078     5A    -20.528271     6A     -7.643309
       7A     -5.541831     8A     -5.541537     9A     -5.540198
      10A     -1.473620    11A     -1.413482    12A     -1.393339
      13A     -1.309495    14A     -0.877699    15A     -0.787375
      16A     -0.767749    17A     -0.681512    18A     -0.661772
      19A     -0.616511    20A     -0.597464    21A     -0.590423
      22A     -0.562208    23A     -0.547276    24A     -0.484817
      25A     -0.480126

  @DF-RHF Final Energy:  -642.21001554781412

   => Energetics <=

    Nuclear Repulsion Energy =            278.2310777084055644
    One-Electron Energy =               -1440.8417029800687033
    Two-Electron Energy =                 520.4006097238490156
    Total Energy =                       -642.2100155478141232
  Basis Set: (AUG-CC-PVTZ AUX)
    Blend: AUG-CC-PVTZ-RI
    Molecular point group: c1

    Geometry (in Angstrom), charge = 0, multiplicity = 1:

       Center              X                  Y                   Z               Mass
    ------------   -----------------  -----------------  -----------------  -----------------
         P           -0.080182494571    -0.072234256433    -0.074370712767    30.973761998420
         O           -0.718577494571     0.860419743567     1.095338287233    15.994914619570
         O            0.922432505429     0.987369743567    -0.768362712767    15.994914619570
         O           -1.083449494571    -0.783864256433    -0.889837712767    15.994914619570
         O            0.993730505429    -1.034613256433     0.632182287233    15.994914619570
         H            0.440454505429     1.733386743567    -1.168967712767     1.007825032230
         H            1.722419505429    -0.534552256433     1.042782287233     1.007825032230
         H           -1.510024994571     0.555958343567     1.311679787233     1.007825032230

  Basis Set: AUG-CC-PVTZ
    Blend: AUG-CC-PVTZ
  Basis Set: (AUG-CC-PVTZ AUX)
    Blend: AUG-CC-PVTZ-JKFIT
	 Reference Energy          =    -642.2100155478141232 [Eh]
	 Singles Energy            =      -0.0000000000000000 [Eh]
	 Same-Spin Energy          =      -0.3239697366286106 [Eh]
	 Opposite-Spin Energy      =      -0.9218885693041995 [Eh]
	 Correlation Energy        =      -1.2458583059328101 [Eh]
	 Total Energy              =    -643.4558738537468798 [Eh]

	 ================> DF-SCS-MP2 Energies <==================
	-----------------------------------------------------------
	 SCS Same-Spin Scale       =       0.3333333333333333 [-]
	 SCS Opposite-Spin Scale   =       1.2000000000000000 [-]
	 SCS Same-Spin Energy      =      -0.1079899122095369 [Eh]
	 SCS Opposite-Spin Energy  =      -1.1062662831650394 [Eh]
	 SCS Correlation Energy    =      -1.2142561953745763 [Eh]
	 SCS Total Energy          =    -643.4242717431886831 [Eh]
	-----------------------------------------------------------

  Dipole Moment: [D]
     X:     1.0615      Y:     2.7180      Z:     1.7794     Total:     3.4177

*** Psi4 exiting successfully. Buy a developer a beer!
