                               Psi4 1.3.2 release

  ==> Input File <==

--------------------------------------------------------------------------
#psi4
#
memory 32 gb

molecule  {
0 1
  P       -0.0856380    -0.0896540    -0.0873550
  O       -0.7080338     0.8646920     1.0734456
  O        0.9169770     0.9699500    -0.7813470
  O       -1.0889050    -0.8012840    -0.9028220
  O        0.9882750    -1.0520330     0.6191980
  H        0.4349990     1.7159670    -1.1819520
  H        1.7169640    -0.5519720     1.0297980
  H       -1.6059160     0.5037490     1.3234160
units angstrom
no_reorient  #important for SAPT in psi4, default
symmetry c1  #important for SAPT in psi4, default
}

set PROPERTIES_ORIGIN ["COM"]
properties('MP2/aug-cc-pvtz', properties = ['dipole'])
--------------------------------------------------------------------------

    Molecular point group: c1
  Charge       = 0
  Multiplicity = 1
  Basis Set: AUG-CC-PVTZ
    Blend: AUG-CC-PVTZ
  Basis Set: (AUG-CC-PVTZ AUX)
    Blend: AUG-CC-PVTZ-JKFIT

    Orbital Energies [Eh]
    ---------------------

    Doubly Occupied:

       1A    -80.125439     2A    -20.621127     3A    -20.619540
       4A    -20.617313     5A    -20.527365     6A     -7.640826
       7A     -5.539366     8A     -5.539028     9A     -5.537703
      10A     -1.463315    11A     -1.392476    12A     -1.388579
      13A     -1.307548    14A     -0.862876    15A     -0.772096
      16A     -0.757544    17A     -0.675334    18A     -0.658308
      19A     -0.613351    20A     -0.592214    21A     -0.587718
      22A     -0.560339    23A     -0.543588    24A     -0.483822
      25A     -0.478762

  @DF-RHF Final Energy:  -642.21315589064920

   => Energetics <=

    Nuclear Repulsion Energy =            277.4744943856543955
    One-Electron Energy =               -1439.5641398790282892
    Two-Electron Energy =                 519.8764896027246323
    Total Energy =                       -642.2131558906492046
  Basis Set: (AUG-CC-PVTZ AUX)
    Blend: AUG-CC-PVTZ-RI
    Molecular point group: c1

    Geometry (in Angstrom), charge = 0, multiplicity = 1:

       Center              X                  Y                   Z               Mass
    ------------   -----------------  -----------------  -----------------  -----------------
         P           -0.081864142844    -0.075417658564    -0.073170683331    30.973761998420
         O           -0.704259942844     0.878928341436     1.087629916669    15.994914619570
         O            0.920750857156     0.984186341436    -0.767162683331    15.994914619570
         O           -1.085131142844    -0.787047658564    -0.888637683331    15.994914619570
         O            0.992048857156    -1.037796658564     0.633382316669    15.994914619570
         H            0.438772857156     1.730203341436    -1.167767683331     1.007825032230
         H            1.720737857156    -0.537735658564     1.043982316669     1.007825032230
         H           -1.602142142844     0.517985341436     1.337600316669     1.007825032230

  Basis Set: AUG-CC-PVTZ
    Blend: AUG-CC-PVTZ
  Basis Set: (AUG-CC-PVTZ AUX)
    Blend: AUG-CC-PVTZ-JKFIT
	 Reference Energy          =    -642.2131558906492046 [Eh]
	 Singles Energy            =      -0.0000000000000000 [Eh]
	 Same-Spin Energy          =      -0.3254169894691255 [Eh]
	 Opposite-Spin Energy      =      -0.9251992818865853 [Eh]
	 Correlation Energy        =      -1.2506162713557107 [Eh]
	 Total Energy              =    -643.4637721620049433 [Eh]

	 ================> DF-SCS-MP2 Energies <==================
	-----------------------------------------------------------
	 SCS Same-Spin Scale       =       0.3333333333333333 [-]
	 SCS Opposite-Spin Scale   =       1.2000000000000000 [-]
	 SCS Same-Spin Energy      =      -0.1084723298230418 [Eh]
	 SCS Opposite-Spin Energy  =      -1.1102391382639023 [Eh]
	 SCS Correlation Energy    =      -1.2187114680869442 [Eh]
	 SCS Total Energy          =    -643.4318673587360990 [Eh]
	-----------------------------------------------------------

  Dipole Moment: [D]
     X:     0.8789      Y:     2.6595      Z:     1.8823     Total:     3.3747

*** Psi4 exiting successfully. Buy a developer a beer!
