                               Psi4 1.4a3.dev225

  ==> Input File <==

--------------------------------------------------------------------------
#psi4
#
memory 32 gb

molecule  {
0 1
  P       -0.0856920    -0.0896190    -0.0873670
  O       -0.7040560     0.8142596     1.0466341
  O        0.9171570     0.9699100    -0.7812610
  O       -1.0892020    -0.8008150    -0.9029050
  O        0.9880740    -1.0524230     0.6189030
  H        0.4352420     1.7161240    -1.1815840
  H        1.7168380    -0.5525180     1.0295720
  H       -1.6055880     0.5038950     1.3238320
units angstrom
no_reorient  #important for SAPT in psi4, default
symmetry c1  #important for SAPT in psi4, default
}

set PROPERTIES_ORIGIN ["COM"]
properties('MP2/aug-cc-pvtz', properties = ['dipole'])
--------------------------------------------------------------------------

    Molecular point group: c1
  Charge       = 0
  Multiplicity = 1
  Basis Set: AUG-CC-PVTZ
    Blend: AUG-CC-PVTZ
  Basis Set: (AUG-CC-PVTZ AUX)
    Blend: AUG-CC-PVTZ-JKFIT

    Orbital Energies [Eh]
    ---------------------

    Doubly Occupied:

       1A    -80.119354     2A    -20.621594     3A    -20.617697
       4A    -20.613194     5A    -20.521348     6A     -7.635733
       7A     -5.534187     8A     -5.534074     9A     -5.532612
      10A     -1.469098    11A     -1.398468    12A     -1.388902
      13A     -1.302909    14A     -0.867840    15A     -0.776253
      16A     -0.762825    17A     -0.677260    18A     -0.660980
      19A     -0.615128    20A     -0.592754    21A     -0.586234
      22A     -0.558930    23A     -0.543768    24A     -0.479299
      25A     -0.474371

  @DF-RHF Final Energy:  -642.21605718572391

   => Energetics <=

    Nuclear Repulsion Energy =            279.3583951371999206
    One-Electron Energy =               -1443.3792832229753458
    Two-Electron Energy =                 521.8048309000514564
    Total Energy =                       -642.2160571857239120
  Basis Set: (AUG-CC-PVTZ AUX)
    Blend: AUG-CC-PVTZ-RI
    Molecular point group: c1

    Geometry (in Angstrom), charge = 0, multiplicity = 1:

       Center              X                  Y                   Z               Mass
    ------------   -----------------  -----------------  -----------------  -----------------
         P           -0.082503118385    -0.067164405215    -0.068759931573    30.973761998420
         O           -0.700867118385     0.836714194785     1.065241168427    15.994914619570
         O            0.920345881615     0.992364594785    -0.762653931573    15.994914619570
         O           -1.086013118385    -0.778360405215    -0.884297931573    15.994914619570
         O            0.991262881615    -1.029968405215     0.637510068427    15.994914619570
         H            0.438430881615     1.738578594785    -1.162976931573     1.007825032230
         H            1.720026881615    -0.530063405215     1.048179068427     1.007825032230
         H           -1.602399118385     0.526349594785     1.342439068427     1.007825032230

  Basis Set: AUG-CC-PVTZ
    Blend: AUG-CC-PVTZ
  Basis Set: (AUG-CC-PVTZ AUX)
    Blend: AUG-CC-PVTZ-JKFIT
	 Reference Energy          =    -642.2160571857239120 [Eh]
	 Singles Energy            =      -0.0000000000000000 [Eh]
	 Same-Spin Energy          =      -0.3247743100879833 [Eh]
	 Opposite-Spin Energy      =      -0.9230784641519141 [Eh]
	 Correlation Energy        =      -1.2478527742398975 [Eh]
	 Total Energy              =    -643.4639099599637575 [Eh]

	 ================> DF-SCS-MP2 Energies <==================
	-----------------------------------------------------------
	 SCS Same-Spin Scale       =       0.3333333333333333 [-]
	 SCS Opposite-Spin Scale   =       1.2000000000000000 [-]
	 SCS Same-Spin Energy      =      -0.1082581033626611 [Eh]
	 SCS Opposite-Spin Energy  =      -1.1076941569822969 [Eh]
	 SCS Correlation Energy    =      -1.2159522603449580 [Eh]
	 SCS Total Energy          =    -643.4320094460688324 [Eh]
	-----------------------------------------------------------

  Dipole Moment: [D]
     X:     0.7629      Y:     2.8729      Z:     2.0910     Total:     3.6343

*** Psi4 exiting successfully. Buy a developer a beer!
