                               Psi4 1.3.2 release

  ==> Input File <==

--------------------------------------------------------------------------
#psi4
#
memory 32 gb

molecule  {
0 1
  P       -0.0856380    -0.0896540    -0.0873550
  O       -0.7500283     0.8351256     1.0741005
  O        0.9169770     0.9699500    -0.7813470
  O       -1.0889050    -0.8012840    -0.9028220
  O        0.9882750    -1.0520330     0.6191980
  H        0.4349990     1.7159670    -1.1819520
  H        1.7169640    -0.5519720     1.0297980
  H       -1.6059160     0.5037490     1.3234160
units angstrom
no_reorient  #important for SAPT in psi4, default
symmetry c1  #important for SAPT in psi4, default
}

set PROPERTIES_ORIGIN ["COM"]
properties('MP2/aug-cc-pvtz', properties = ['dipole'])
--------------------------------------------------------------------------

    Molecular point group: c1
  Charge       = 0
  Multiplicity = 1
  Basis Set: AUG-CC-PVTZ
    Blend: AUG-CC-PVTZ
  Basis Set: (AUG-CC-PVTZ AUX)
    Blend: AUG-CC-PVTZ-JKFIT

    Orbital Energies [Eh]
    ---------------------

    Doubly Occupied:

       1A    -80.126430     2A    -20.622901     3A    -20.618306
       4A    -20.615792     5A    -20.524762     6A     -7.641640
       7A     -5.540175     8A     -5.539819     9A     -5.538565
      10A     -1.465548    11A     -1.397915    12A     -1.392992
      13A     -1.305911    14A     -0.868850    15A     -0.777019
      16A     -0.765722    17A     -0.675435    18A     -0.658055
      19A     -0.615561    20A     -0.594950    21A     -0.589231
      22A     -0.559746    23A     -0.545268    24A     -0.481893
      25A     -0.476577

  @DF-RHF Final Energy:  -642.21641863824982

   => Energetics <=

    Nuclear Repulsion Energy =            277.5879648691476973
    One-Electron Energy =               -1439.7306377996860647
    Two-Electron Energy =                 519.9262542922884904
    Total Energy =                       -642.2164186382498201
  Basis Set: (AUG-CC-PVTZ AUX)
    Blend: AUG-CC-PVTZ-RI
    Molecular point group: c1

    Geometry (in Angstrom), charge = 0, multiplicity = 1:

       Center              X                  Y                   Z               Mass
    ------------   -----------------  -----------------  -----------------  -----------------
         P           -0.075008460818    -0.070590887510    -0.073277597002    30.973761998420
         O           -0.739398760818     0.854188712490     1.088177902998    15.994914619570
         O            0.927606539182     0.989013112490    -0.767269597002    15.994914619570
         O           -1.078275460818    -0.782220887510    -0.888744597002    15.994914619570
         O            0.998904539182    -1.032969887510     0.633275402998    15.994914619570
         H            0.445628539182     1.735030112490    -1.167874597002     1.007825032230
         H            1.727593539182    -0.532908887510     1.043875402998     1.007825032230
         H           -1.595286460818     0.522812112490     1.337493402998     1.007825032230

  Basis Set: AUG-CC-PVTZ
    Blend: AUG-CC-PVTZ
  Basis Set: (AUG-CC-PVTZ AUX)
    Blend: AUG-CC-PVTZ-JKFIT
	 Reference Energy          =    -642.2164186382498201 [Eh]
	 Singles Energy            =      -0.0000000000000000 [Eh]
	 Same-Spin Energy          =      -0.3247254424459579 [Eh]
	 Opposite-Spin Energy      =      -0.9235995809320349 [Eh]
	 Correlation Energy        =      -1.2483250233779928 [Eh]
	 Total Energy              =    -643.4647436616278355 [Eh]

	 ================> DF-SCS-MP2 Energies <==================
	-----------------------------------------------------------
	 SCS Same-Spin Scale       =       0.3333333333333333 [-]
	 SCS Opposite-Spin Scale   =       1.2000000000000000 [-]
	 SCS Same-Spin Energy      =      -0.1082418141486526 [Eh]
	 SCS Opposite-Spin Energy  =      -1.1083194971184418 [Eh]
	 SCS Correlation Energy    =      -1.2165613112670943 [Eh]
	 SCS Total Energy          =    -643.4329799495169482 [Eh]
	-----------------------------------------------------------

  Dipole Moment: [D]
     X:     0.9971      Y:     2.7239      Z:     1.8700     Total:     3.4512

*** Psi4 exiting successfully. Buy a developer a beer!
