                               Psi4 1.4a3.dev225

  ==> Input File <==

--------------------------------------------------------------------------
#psi4
#
memory 32 gb

molecule  {
0 1
  P       -0.0856920    -0.0896190    -0.0873670
  O       -0.7158232     0.8314600     1.0682136
  O        0.9171570     0.9699100    -0.7812610
  O       -1.0892020    -0.8008150    -0.9029050
  O        0.9880740    -1.0524230     0.6189030
  H        0.4352420     1.7161240    -1.1815840
  H        1.7168380    -0.5525180     1.0295720
  H       -1.6055880     0.5038950     1.3238320
units angstrom
no_reorient  #important for SAPT in psi4, default
symmetry c1  #important for SAPT in psi4, default
}

set PROPERTIES_ORIGIN ["COM"]
properties('MP2/aug-cc-pvtz', properties = ['dipole'])
--------------------------------------------------------------------------

    Molecular point group: c1
  Charge       = 0
  Multiplicity = 1
  Basis Set: AUG-CC-PVTZ
    Blend: AUG-CC-PVTZ
  Basis Set: (AUG-CC-PVTZ AUX)
    Blend: AUG-CC-PVTZ-JKFIT

    Orbital Energies [Eh]
    ---------------------

    Doubly Occupied:

       1A    -80.123381     2A    -20.620019     3A    -20.619734
       4A    -20.615598     5A    -20.524404     6A     -7.639077
       7A     -5.537576     8A     -5.537329     9A     -5.535980
      10A     -1.465906    11A     -1.395791    12A     -1.390730
      13A     -1.305378    14A     -0.866457    15A     -0.774419
      16A     -0.762863    17A     -0.676265    18A     -0.658937
      19A     -0.614570    20A     -0.593488    21A     -0.587632
      22A     -0.559795    23A     -0.543933    24A     -0.481616
      25A     -0.476605

  @DF-RHF Final Energy:  -642.21616625290585

   => Energetics <=

    Nuclear Repulsion Energy =            278.2507883921507528
    One-Electron Energy =               -1441.1189434777429597
    Two-Electron Energy =                 520.6519888326863565
    Total Energy =                       -642.2161662529058503
  Basis Set: (AUG-CC-PVTZ AUX)
    Blend: AUG-CC-PVTZ-RI
    Molecular point group: c1

    Geometry (in Angstrom), charge = 0, multiplicity = 1:

       Center              X                  Y                   Z               Mass
    ------------   -----------------  -----------------  -----------------  -----------------
         P           -0.080582100596    -0.069972403242    -0.072282826007    30.973761998420
         O           -0.710713300596     0.851106596758     1.083297773993    15.994914619570
         O            0.922266899404     0.989556596758    -0.766176826007    15.994914619570
         O           -1.084092100596    -0.781168403242    -0.887820826007    15.994914619570
         O            0.993183899404    -1.032776403242     0.633987173993    15.994914619570
         H            0.440351899404     1.735770596758    -1.166499826007     1.007825032230
         H            1.721947899404    -0.532871403242     1.044656173993     1.007825032230
         H           -1.600478100596     0.523541596758     1.338916173993     1.007825032230

  Basis Set: AUG-CC-PVTZ
    Blend: AUG-CC-PVTZ
  Basis Set: (AUG-CC-PVTZ AUX)
    Blend: AUG-CC-PVTZ-JKFIT
	 Reference Energy          =    -642.2161662529058503 [Eh]
	 Singles Energy            =      -0.0000000000000000 [Eh]
	 Same-Spin Energy          =      -0.3249423644047749 [Eh]
	 Opposite-Spin Energy      =      -0.9238428360045123 [Eh]
	 Correlation Energy        =      -1.2487852004092872 [Eh]
	 Total Energy              =    -643.4649514533151660 [Eh]

	 ================> DF-SCS-MP2 Energies <==================
	-----------------------------------------------------------
	 SCS Same-Spin Scale       =       0.3333333333333333 [-]
	 SCS Opposite-Spin Scale   =       1.2000000000000000 [-]
	 SCS Same-Spin Energy      =      -0.1083141214682583 [Eh]
	 SCS Opposite-Spin Energy  =      -1.1086114032054148 [Eh]
	 SCS Correlation Energy    =      -1.2169255246736732 [Eh]
	 SCS Total Energy          =    -643.4330917775795342 [Eh]
	-----------------------------------------------------------

  Dipole Moment: [D]
     X:     0.8595      Y:     2.7737      Z:     1.9477     Total:     3.4965

*** Psi4 exiting successfully. Buy a developer a beer!
