                               Psi4 1.3.2 release

  ==> Input File <==

--------------------------------------------------------------------------
#psi4
#
memory 32 gb

molecule  {
0 1
  P       -0.0856380    -0.0896540    -0.0873550
  O       -0.7240330     0.8430000     1.0823540
  O        0.9169770     0.9699500    -0.7813470
  O       -1.2248686    -0.8977247    -1.0133348
  O        0.9882750    -1.0520330     0.6191980
  H        0.4349990     1.7159670    -1.1819520
  H        1.7169640    -0.5519720     1.0297980
  H       -1.6059160     0.5037490     1.3234160
units angstrom
no_reorient  #important for SAPT in psi4, default
symmetry c1  #important for SAPT in psi4, default
}

set PROPERTIES_ORIGIN ["COM"]
properties('MP2/aug-cc-pvtz', properties = ['dipole'])
--------------------------------------------------------------------------

    Molecular point group: c1
  Charge       = 0
  Multiplicity = 1
  Basis Set: AUG-CC-PVTZ
    Blend: AUG-CC-PVTZ
  Basis Set: (AUG-CC-PVTZ AUX)
    Blend: AUG-CC-PVTZ-JKFIT

    Orbital Energies [Eh]
    ---------------------

    Doubly Occupied:

       1A    -80.153561     2A    -20.634213     3A    -20.631955
       4A    -20.629212     5A    -20.532482     6A     -7.664525
       7A     -5.563190     8A     -5.562894     9A     -5.560235
      10A     -1.470928    11A     -1.405089    12A     -1.402644
      13A     -1.230933    14A     -0.881317    15A     -0.782718
      16A     -0.772385    17A     -0.682786    18A     -0.663799
      19A     -0.622063    20A     -0.600867    21A     -0.594959
      22A     -0.554255    23A     -0.522621    24A     -0.447760
      25A     -0.446068

  @DF-RHF Final Energy:  -642.16561038431200

   => Energetics <=

    Nuclear Repulsion Energy =            269.8541388713539391
    One-Electron Energy =               -1424.0125791743600985
    Two-Electron Energy =                 511.9928299186939853
    Total Energy =                       -642.1656103843120036
  Basis Set: (AUG-CC-PVTZ AUX)
    Blend: AUG-CC-PVTZ-RI
    Molecular point group: c1

    Geometry (in Angstrom), charge = 0, multiplicity = 1:

       Center              X                  Y                   Z               Mass
    ------------   -----------------  -----------------  -----------------  -----------------
         P           -0.057055926610    -0.056132270523    -0.056583571712    30.973761998420
         O           -0.695450926610     0.876521729477     1.113125428288    15.994914619570
         O            0.945559073390     1.003471729477    -0.750575571712    15.994914619570
         O           -1.196286526610    -0.864202970523    -0.982563371712    15.994914619570
         O            1.016857073390    -1.018511270523     0.649969428288    15.994914619570
         H            0.463581073390     1.749488729477    -1.151180571712     1.007825032230
         H            1.745546073390    -0.518450270523     1.060569428288     1.007825032230
         H           -1.577333926610     0.537270729477     1.354187428288     1.007825032230

  Basis Set: AUG-CC-PVTZ
    Blend: AUG-CC-PVTZ
  Basis Set: (AUG-CC-PVTZ AUX)
    Blend: AUG-CC-PVTZ-JKFIT
	 Reference Energy          =    -642.1656103843120036 [Eh]
	 Singles Energy            =      -0.0000000000000000 [Eh]
	 Same-Spin Energy          =      -0.3288222509179730 [Eh]
	 Opposite-Spin Energy      =      -0.9343890324585897 [Eh]
	 Correlation Energy        =      -1.2632112833765627 [Eh]
	 Total Energy              =    -643.4288216676885668 [Eh]

	 ================> DF-SCS-MP2 Energies <==================
	-----------------------------------------------------------
	 SCS Same-Spin Scale       =       0.3333333333333333 [-]
	 SCS Opposite-Spin Scale   =       1.2000000000000000 [-]
	 SCS Same-Spin Energy      =      -0.1096074169726577 [Eh]
	 SCS Opposite-Spin Energy  =      -1.1212668389503075 [Eh]
	 SCS Correlation Energy    =      -1.2308742559229653 [Eh]
	 SCS Total Energy          =    -643.3964846402349167 [Eh]
	-----------------------------------------------------------

  Dipole Moment: [D]
     X:     1.5419      Y:     3.1824      Z:     2.3782     Total:     4.2616

*** Psi4 exiting successfully. Buy a developer a beer!
