                               Psi4 1.3.2 release

  ==> Input File <==

--------------------------------------------------------------------------
#psi4
#
memory 32 gb

molecule  {
0 1
  P       -0.0856380    -0.0896540    -0.0873550
  O       -0.7240330     0.8430000     1.0823540
  O        0.9169770     0.9699500    -0.7813470
  O       -1.0889050    -0.8012840    -0.9028220
  O        0.9882750    -1.0520330     0.6191980
  H        0.4349990     1.7159670    -1.1819520
  H        1.7169640    -0.5519720     1.0297980
  H       -1.7867870     0.4341698     1.3728570
units angstrom
no_reorient  #important for SAPT in psi4, default
symmetry c1  #important for SAPT in psi4, default
}

set PROPERTIES_ORIGIN ["COM"]
properties('MP2/aug-cc-pvtz', properties = ['dipole'])
--------------------------------------------------------------------------

    Molecular point group: c1
  Charge       = 0
  Multiplicity = 1
  Basis Set: AUG-CC-PVTZ
    Blend: AUG-CC-PVTZ
  Basis Set: (AUG-CC-PVTZ AUX)
    Blend: AUG-CC-PVTZ-JKFIT

    Orbital Energies [Eh]
    ---------------------

    Doubly Occupied:

       1A    -80.121783     2A    -20.626677     3A    -20.619504
       4A    -20.614389     5A    -20.522726     6A     -7.637110
       7A     -5.535653     8A     -5.535251     9A     -5.534041
      10A     -1.456297    11A     -1.389689    12A     -1.363122
      13A     -1.301638    14A     -0.852376    15A     -0.766375
      16A     -0.733670    17A     -0.665313    18A     -0.644475
      19A     -0.609730    20A     -0.585781    21A     -0.583373
      22A     -0.556355    23A     -0.537255    24A     -0.479819
      25A     -0.473530

  @DF-RHF Final Energy:  -642.18062135784555

   => Energetics <=

    Nuclear Repulsion Energy =            276.3956221170170693
    One-Electron Energy =               -1437.6606219263287585
    Two-Electron Energy =                 519.0843784514660229
    Total Energy =                       -642.1806213578455527
  Basis Set: (AUG-CC-PVTZ AUX)
    Blend: AUG-CC-PVTZ-RI
    Molecular point group: c1

    Geometry (in Angstrom), charge = 0, multiplicity = 1:

       Center              X                  Y                   Z               Mass
    ------------   -----------------  -----------------  -----------------  -----------------
         P           -0.077391739868    -0.071160682009    -0.075133564209    30.973761998420
         O           -0.715786739868     0.861493317991     1.094575435791    15.994914619570
         O            0.925223260132     0.988443317991    -0.769125564209    15.994914619570
         O           -1.080658739868    -0.782790682009    -0.890600564209    15.994914619570
         O            0.996521260132    -1.033539682009     0.631419435791    15.994914619570
         H            0.443245260132     1.734460317991    -1.169730564209     1.007825032230
         H            1.725210260132    -0.533478682009     1.042019435791     1.007825032230
         H           -1.778540739868     0.452663117991     1.385078435791     1.007825032230

  Basis Set: AUG-CC-PVTZ
    Blend: AUG-CC-PVTZ
  Basis Set: (AUG-CC-PVTZ AUX)
    Blend: AUG-CC-PVTZ-JKFIT
	 Reference Energy          =    -642.1806213578455527 [Eh]
	 Singles Energy            =      -0.0000000000000000 [Eh]
	 Same-Spin Energy          =      -0.3271497646410009 [Eh]
	 Opposite-Spin Energy      =      -0.9300863405445567 [Eh]
	 Correlation Energy        =      -1.2572361051855576 [Eh]
	 Total Energy              =    -643.4378574630311505 [Eh]

	 ================> DF-SCS-MP2 Energies <==================
	-----------------------------------------------------------
	 SCS Same-Spin Scale       =       0.3333333333333333 [-]
	 SCS Opposite-Spin Scale   =       1.2000000000000000 [-]
	 SCS Same-Spin Energy      =      -0.1090499215470003 [Eh]
	 SCS Opposite-Spin Energy  =      -1.1161036086534681 [Eh]
	 SCS Correlation Energy    =      -1.2251535302004684 [Eh]
	 SCS Total Energy          =    -643.4057748880460395 [Eh]
	-----------------------------------------------------------

  Dipole Moment: [D]
     X:     0.6349      Y:     2.6732      Z:     1.9855     Total:     3.3899

*** Psi4 exiting successfully. Buy a developer a beer!
