                               Psi4 1.4a3.dev225

  ==> Input File <==

--------------------------------------------------------------------------
#psi4
#
memory 32 gb

molecule  {
0 1
  P       -0.0856920    -0.0896190    -0.0873670
  O       -0.7236680     0.8429270     1.0826000
  O        0.9171570     0.9699100    -0.7812610
  O       -1.1232012    -0.8249106    -0.9305357
  O        0.9880740    -1.0524230     0.6189030
  H        0.4352420     1.7161240    -1.1815840
  H        1.7168380    -0.5525180     1.0295720
  H       -1.6055880     0.5038950     1.3238320
units angstrom
no_reorient  #important for SAPT in psi4, default
symmetry c1  #important for SAPT in psi4, default
}

set PROPERTIES_ORIGIN ["COM"]
properties('MP2/aug-cc-pvtz', properties = ['dipole'])
--------------------------------------------------------------------------

    Molecular point group: c1
  Charge       = 0
  Multiplicity = 1
  Basis Set: AUG-CC-PVTZ
    Blend: AUG-CC-PVTZ
  Basis Set: (AUG-CC-PVTZ AUX)
    Blend: AUG-CC-PVTZ-JKFIT

    Orbital Energies [Eh]
    ---------------------

    Doubly Occupied:

       1A    -80.135122     2A    -20.625158     3A    -20.622301
       4A    -20.620640     5A    -20.528068     6A     -7.648524
       7A     -5.547250     8A     -5.546928     9A     -5.545006
      10A     -1.465631    11A     -1.397083    12A     -1.394820
      13A     -1.286055    14A     -0.870042    15A     -0.775979
      16A     -0.765077    17A     -0.677468    18A     -0.659159
      19A     -0.616265    20A     -0.595322    21A     -0.589788
      22A     -0.553328    23A     -0.545983    24A     -0.472602
      25A     -0.468718

  @DF-RHF Final Energy:  -642.20773331567398

   => Energetics <=

    Nuclear Repulsion Energy =            275.4611060256353312
    One-Electron Energy =               -1435.4330386074821035
    Two-Electron Energy =                 517.7641992661729091
    Total Energy =                       -642.2077333156739769
  Basis Set: (AUG-CC-PVTZ AUX)
    Blend: AUG-CC-PVTZ-RI
    Molecular point group: c1

    Geometry (in Angstrom), charge = 0, multiplicity = 1:

       Center              X                  Y                   Z               Mass
    ------------   -----------------  -----------------  -----------------  -----------------
         P           -0.073750987981    -0.067910760264    -0.070120668832    30.973761998420
         O           -0.711726987981     0.864635239736     1.099846331168    15.994914619570
         O            0.929098012019     0.991618239736    -0.764014668832    15.994914619570
         O           -1.111260187981    -0.803202360264    -0.913289368832    15.994914619570
         O            1.000015012019    -1.030714760264     0.636149331168    15.994914619570
         H            0.447183012019     1.737832239736    -1.164337668832     1.007825032230
         H            1.728779012019    -0.530809760264     1.046818331168     1.007825032230
         H           -1.593646987981     0.525603239736     1.341078331168     1.007825032230

  Basis Set: AUG-CC-PVTZ
    Blend: AUG-CC-PVTZ
  Basis Set: (AUG-CC-PVTZ AUX)
    Blend: AUG-CC-PVTZ-JKFIT
	 Reference Energy          =    -642.2077333156739769 [Eh]
	 Singles Energy            =      -0.0000000000000000 [Eh]
	 Same-Spin Energy          =      -0.3262180214301357 [Eh]
	 Opposite-Spin Energy      =      -0.9271849397889050 [Eh]
	 Correlation Energy        =      -1.2534029612190407 [Eh]
	 Total Energy              =    -643.4611362768930576 [Eh]

	 ================> DF-SCS-MP2 Energies <==================
	-----------------------------------------------------------
	 SCS Same-Spin Scale       =       0.3333333333333333 [-]
	 SCS Opposite-Spin Scale   =       1.2000000000000000 [-]
	 SCS Same-Spin Energy      =      -0.1087393404767119 [Eh]
	 SCS Opposite-Spin Energy  =      -1.1126219277466860 [Eh]
	 SCS Correlation Energy    =      -1.2213612682233979 [Eh]
	 SCS Total Energy          =    -643.4290945838973812 [Eh]
	-----------------------------------------------------------

  Dipole Moment: [D]
     X:     1.0782      Y:     2.8273      Z:     1.9863     Total:     3.6196

*** Psi4 exiting successfully. Buy a developer a beer!
