                               Psi4 1.3.2 release

  ==> Input File <==

--------------------------------------------------------------------------
#psi4
#
memory 32 gb

molecule  {
0 1
  P       -0.0856380    -0.0896540    -0.0873550
  O       -0.6455354     0.7283200     0.9385255
  O        0.9169770     0.9699500    -0.7813470
  O       -1.0889050    -0.8012840    -0.9028220
  O        0.9882750    -1.0520330     0.6191980
  H        0.4349990     1.7159670    -1.1819520
  H        1.7169640    -0.5519720     1.0297980
  H       -1.6059160     0.5037490     1.3234160
units angstrom
no_reorient  #important for SAPT in psi4, default
symmetry c1  #important for SAPT in psi4, default
}

set PROPERTIES_ORIGIN ["COM"]
properties('MP2/aug-cc-pvtz', properties = ['dipole'])
--------------------------------------------------------------------------

    Molecular point group: c1
  Charge       = 0
  Multiplicity = 1
  Basis Set: AUG-CC-PVTZ
    Blend: AUG-CC-PVTZ
  Basis Set: (AUG-CC-PVTZ AUX)
    Blend: AUG-CC-PVTZ-JKFIT

    Orbital Energies [Eh]
    ---------------------

    Doubly Occupied:

       1A    -80.094536     2A    -20.629054     3A    -20.604690
       4A    -20.600102     5A    -20.505222     6A     -7.616731
       7A     -5.516387     8A     -5.514252     9A     -5.512855
      10A     -1.502174    11A     -1.402891    12A     -1.378611
      13A     -1.289820    14A     -0.877634    15A     -0.782486
      16A     -0.758853    17A     -0.691756    18A     -0.677215
      19A     -0.615504    20A     -0.588378    21A     -0.574732
      22A     -0.551049    23A     -0.538818    24A     -0.466961
      25A     -0.461834

  @DF-RHF Final Energy:  -642.18507972649286

   => Energetics <=

    Nuclear Repulsion Energy =            285.4252658977521264
    One-Electron Energy =               -1455.7156045711369643
    Two-Electron Energy =                 528.1052589468920360
    Total Energy =                       -642.1850797264928588
  Basis Set: (AUG-CC-PVTZ AUX)
    Blend: AUG-CC-PVTZ-RI
    Molecular point group: c1

    Geometry (in Angstrom), charge = 0, multiplicity = 1:

       Center              X                  Y                   Z               Mass
    ------------   -----------------  -----------------  -----------------  -----------------
         P           -0.092067125558    -0.053154670094    -0.051144720298    30.973761998420
         O           -0.651964525558     0.764819329906     0.974735779702    15.994914619570
         O            0.910547874442     1.006449329906    -0.745136720298    15.994914619570
         O           -1.095334125558    -0.764784670094    -0.866611720298    15.994914619570
         O            0.981845874442    -1.015533670094     0.655408279702    15.994914619570
         H            0.428569874442     1.752466329906    -1.145741720298     1.007825032230
         H            1.710534874442    -0.515472670094     1.066008279702     1.007825032230
         H           -1.612345125558     0.540248329906     1.359626279702     1.007825032230

  Basis Set: AUG-CC-PVTZ
    Blend: AUG-CC-PVTZ
  Basis Set: (AUG-CC-PVTZ AUX)
    Blend: AUG-CC-PVTZ-JKFIT
	 Reference Energy          =    -642.1850797264928588 [Eh]
	 Singles Energy            =      -0.0000000000000000 [Eh]
	 Same-Spin Energy          =      -0.3242529560490481 [Eh]
	 Opposite-Spin Energy      =      -0.9199432067326485 [Eh]
	 Correlation Energy        =      -1.2441961627816966 [Eh]
	 Total Energy              =    -643.4292758892745496 [Eh]

	 ================> DF-SCS-MP2 Energies <==================
	-----------------------------------------------------------
	 SCS Same-Spin Scale       =       0.3333333333333333 [-]
	 SCS Opposite-Spin Scale   =       1.2000000000000000 [-]
	 SCS Same-Spin Energy      =      -0.1080843186830160 [Eh]
	 SCS Opposite-Spin Energy  =      -1.1039318480791782 [Eh]
	 SCS Correlation Energy    =      -1.2120161667621943 [Eh]
	 SCS Total Energy          =    -643.3970958932550275 [Eh]
	-----------------------------------------------------------

  Dipole Moment: [D]
     X:     0.2418      Y:     3.3880      Z:     2.8427     Total:     4.4292

*** Psi4 exiting successfully. Buy a developer a beer!
