                               Psi4 1.3.2 release

  ==> Input File <==

--------------------------------------------------------------------------
#psi4
#
memory 32 gb

molecule  {
0 1
  P       -0.0856380    -0.0896540    -0.0873550
  O       -0.7240330     0.8430000     1.0823540
  O        0.9169770     0.9699500    -0.7813470
  O       -0.9529414    -0.7048433    -0.7923092
  O        0.9882750    -1.0520330     0.6191980
  H        0.4349990     1.7159670    -1.1819520
  H        1.7169640    -0.5519720     1.0297980
  H       -1.6059160     0.5037490     1.3234160
units angstrom
no_reorient  #important for SAPT in psi4, default
symmetry c1  #important for SAPT in psi4, default
}

set PROPERTIES_ORIGIN ["COM"]
properties('MP2/aug-cc-pvtz', properties = ['dipole'])
--------------------------------------------------------------------------

    Molecular point group: c1
  Charge       = 0
  Multiplicity = 1
  Basis Set: AUG-CC-PVTZ
    Blend: AUG-CC-PVTZ
  Basis Set: (AUG-CC-PVTZ AUX)
    Blend: AUG-CC-PVTZ-JKFIT

    Orbital Energies [Eh]
    ---------------------

    Doubly Occupied:

       1A    -80.074929     2A    -20.605586     3A    -20.601836
       4A    -20.601764     5A    -20.515936     6A     -7.606730
       7A     -5.507555     8A     -5.502360     9A     -5.502009
      10A     -1.477602    11A     -1.386677    12A     -1.379731
      13A     -1.375168    14A     -0.846883    15A     -0.766450
      16A     -0.752069    17A     -0.673337    18A     -0.660774
      19A     -0.613163    20A     -0.603393    21A     -0.579946
      22A     -0.566319    23A     -0.542231    24A     -0.522013
      25A     -0.514663

  @DF-RHF Final Energy:  -642.16461030533515

   => Energetics <=

    Nuclear Repulsion Energy =            287.0694150006010545
    One-Electron Energy =               -1458.9098018256845535
    Two-Electron Energy =                 529.6757765197482968
    Total Energy =                       -642.1646103053351453
  Basis Set: (AUG-CC-PVTZ AUX)
    Blend: AUG-CC-PVTZ-RI
    Molecular point group: c1

    Geometry (in Angstrom), charge = 0, multiplicity = 1:

       Center              X                  Y                   Z               Mass
    ------------   -----------------  -----------------  -----------------  -----------------
         P           -0.101448559396    -0.087620526061    -0.092666421450    30.973761998420
         O           -0.739843559396     0.845033473939     1.077042578550    15.994914619570
         O            0.901166440604     0.971983473939    -0.786658421450    15.994914619570
         O           -0.968751959396    -0.702809826061    -0.797620621450    15.994914619570
         O            0.972464440604    -1.049999526061     0.613886578550    15.994914619570
         H            0.419188440604     1.718000473939    -1.187263421450     1.007825032230
         H            1.701153440604    -0.549938526061     1.024486578550     1.007825032230
         H           -1.621726559396     0.505782473939     1.318104578550     1.007825032230

  Basis Set: AUG-CC-PVTZ
    Blend: AUG-CC-PVTZ
  Basis Set: (AUG-CC-PVTZ AUX)
    Blend: AUG-CC-PVTZ-JKFIT
	 Reference Energy          =    -642.1646103053351453 [Eh]
	 Singles Energy            =      -0.0000000000000000 [Eh]
	 Same-Spin Energy          =      -0.3203094671652547 [Eh]
	 Opposite-Spin Energy      =      -0.9132236303242076 [Eh]
	 Correlation Energy        =      -1.2335330974894623 [Eh]
	 Total Energy              =    -643.3981434028246440 [Eh]

	 ================> DF-SCS-MP2 Energies <==================
	-----------------------------------------------------------
	 SCS Same-Spin Scale       =       0.3333333333333333 [-]
	 SCS Opposite-Spin Scale   =       1.2000000000000000 [-]
	 SCS Same-Spin Energy      =      -0.1067698223884182 [Eh]
	 SCS Opposite-Spin Energy  =      -1.0958683563890490 [Eh]
	 SCS Correlation Energy    =      -1.2026381787774671 [Eh]
	 SCS Total Energy          =    -643.3672484841125652 [Eh]
	-----------------------------------------------------------

  Dipole Moment: [D]
     X:     0.2718      Y:     2.2102      Z:     1.2936     Total:     2.5753

*** Psi4 exiting successfully. Buy a developer a beer!
