                               Psi4 1.4a3.dev225

  ==> Input File <==

--------------------------------------------------------------------------
#psi4
#
memory 32 gb

molecule  {
0 1
  P       -0.0856920    -0.0896190    -0.0873670
  O       -0.7236680     0.8429270     1.0826000
  O        0.9171570     0.9699100    -0.7812610
  O       -1.0892020    -0.8008150    -0.9029050
  O        0.9880740    -1.0524230     0.6189030
  H        0.4352420     1.7161240    -1.1815840
  H        1.7168380    -0.5525180     1.0295720
  H       -1.5603683     0.5212786     1.3114630
units angstrom
no_reorient  #important for SAPT in psi4, default
symmetry c1  #important for SAPT in psi4, default
}

set PROPERTIES_ORIGIN ["COM"]
properties('MP2/aug-cc-pvtz', properties = ['dipole'])
--------------------------------------------------------------------------

    Molecular point group: c1
  Charge       = 0
  Multiplicity = 1
  Basis Set: AUG-CC-PVTZ
    Blend: AUG-CC-PVTZ
  Basis Set: (AUG-CC-PVTZ AUX)
    Blend: AUG-CC-PVTZ-JKFIT

    Orbital Energies [Eh]
    ---------------------

    Doubly Occupied:

       1A    -80.126966     2A    -20.622043     3A    -20.617856
       4A    -20.615073     5A    -20.527342     6A     -7.642265
       7A     -5.540789     8A     -5.540478     9A     -5.539162
      10A     -1.468103    11A     -1.403375    12A     -1.392672
      13A     -1.308267    14A     -0.871092    15A     -0.779743
      16A     -0.765909    17A     -0.678748    18A     -0.659928
      19A     -0.615347    20A     -0.595873    21A     -0.589310
      22A     -0.561207    23A     -0.545559    24A     -0.483975
      25A     -0.479094

  @DF-RHF Final Energy:  -642.21586016096978

   => Energetics <=

    Nuclear Repulsion Energy =            277.8656956081026692
    One-Electron Energy =               -1440.2227608606353897
    Two-Electron Energy =                 520.1412050915629379
    Total Energy =                       -642.2158601609697826
  Basis Set: (AUG-CC-PVTZ AUX)
    Blend: AUG-CC-PVTZ-RI
    Molecular point group: c1

    Geometry (in Angstrom), charge = 0, multiplicity = 1:

       Center              X                  Y                   Z               Mass
    ------------   -----------------  -----------------  -----------------  -----------------
         P           -0.079766567912    -0.072023226673    -0.074504201266    30.973761998420
         O           -0.717742567912     0.860522773327     1.095462798734    15.994914619570
         O            0.923082432088     0.987505773327    -0.768398201266    15.994914619570
         O           -1.083276567912    -0.783219226673    -0.890042201266    15.994914619570
         O            0.993999432088    -1.034827226673     0.631765798734    15.994914619570
         H            0.441167432088     1.733719773327    -1.168721201266     1.007825032230
         H            1.722763432088    -0.534922226673     1.042434798734     1.007825032230
         H           -1.554442867912     0.538874373327     1.324325798734     1.007825032230

  Basis Set: AUG-CC-PVTZ
    Blend: AUG-CC-PVTZ
  Basis Set: (AUG-CC-PVTZ AUX)
    Blend: AUG-CC-PVTZ-JKFIT
	 Reference Energy          =    -642.2158601609697826 [Eh]
	 Singles Energy            =      -0.0000000000000000 [Eh]
	 Same-Spin Energy          =      -0.3245167057365377 [Eh]
	 Opposite-Spin Energy      =      -0.9230992001852916 [Eh]
	 Correlation Energy        =      -1.2476159059218292 [Eh]
	 Total Energy              =    -643.4634760668916442 [Eh]

	 ================> DF-SCS-MP2 Energies <==================
	-----------------------------------------------------------
	 SCS Same-Spin Scale       =       0.3333333333333333 [-]
	 SCS Opposite-Spin Scale   =       1.2000000000000000 [-]
	 SCS Same-Spin Energy      =      -0.1081722352455126 [Eh]
	 SCS Opposite-Spin Energy  =      -1.1077190402223498 [Eh]
	 SCS Correlation Energy    =      -1.2158912754678624 [Eh]
	 SCS Total Energy          =    -643.4317514364375938 [Eh]
	-----------------------------------------------------------

  Dipole Moment: [D]
     X:     0.9927      Y:     2.7138      Z:     1.8175     Total:     3.4137

*** Psi4 exiting successfully. Buy a developer a beer!
