                               Psi4 1.3.2 release

  ==> Input File <==

--------------------------------------------------------------------------
#psi4
#
memory 32 gb

molecule  {
0 1
  P       -0.1429141    -0.1814879    -0.1164936
  O       -0.7240330     0.8430000     1.0823540
  O        0.9169770     0.9699500    -0.7813470
  O       -1.0889050    -0.8012840    -0.9028220
  O        0.9882750    -1.0520330     0.6191980
  H        0.4349990     1.7159670    -1.1819520
  H        1.7169640    -0.5519720     1.0297980
  H       -1.6059160     0.5037490     1.3234160
units angstrom
no_reorient  #important for SAPT in psi4, default
symmetry c1  #important for SAPT in psi4, default
}

set PROPERTIES_ORIGIN ["COM"]
properties('MP2/aug-cc-pvtz', properties = ['dipole'])
--------------------------------------------------------------------------

    Molecular point group: c1
  Charge       = 0
  Multiplicity = 1
  Basis Set: AUG-CC-PVTZ
    Blend: AUG-CC-PVTZ
  Basis Set: (AUG-CC-PVTZ AUX)
    Blend: AUG-CC-PVTZ-JKFIT

    Orbital Energies [Eh]
    ---------------------

    Doubly Occupied:

       1A    -80.121002     2A    -20.615868     3A    -20.609540
       4A    -20.599204     5A    -20.547505     6A     -7.639776
       7A     -5.537856     8A     -5.537511     9A     -5.537184
      10A     -1.453792    11A     -1.383927    12A     -1.363623
      13A     -1.357899    14A     -0.851051    15A     -0.767450
      16A     -0.730585    17A     -0.673973    18A     -0.649148
      19A     -0.607192    20A     -0.598959    21A     -0.577392
      22A     -0.553189    23A     -0.536528    24A     -0.517726
      25A     -0.509518

  @DF-RHF Final Energy:  -642.19437991057055

   => Energetics <=

    Nuclear Repulsion Energy =            277.1716555394344255
    One-Electron Energy =               -1438.9772700927653659
    Two-Electron Energy =                 519.6112346427604507
    Total Energy =                       -642.1943799105705466
  Basis Set: (AUG-CC-PVTZ AUX)
    Blend: AUG-CC-PVTZ-RI
    Molecular point group: c1

    Geometry (in Angstrom), charge = 0, multiplicity = 1:

       Center              X                  Y                   Z               Mass
    ------------   -----------------  -----------------  -----------------  -----------------
         P           -0.118421458934    -0.134678541924    -0.094551914009    30.973761998420
         O           -0.699540358934     0.889809358076     1.104295685991    15.994914619570
         O            0.941469641066     1.016759358076    -0.759405314009    15.994914619570
         O           -1.064412358934    -0.754474641924    -0.880880314009    15.994914619570
         O            1.012767641066    -1.005223641924     0.641139685991    15.994914619570
         H            0.459491641066     1.762776358076    -1.160010314009     1.007825032230
         H            1.741456641066    -0.505162641924     1.051739685991     1.007825032230
         H           -1.581423358934     0.550558358076     1.345357685991     1.007825032230

  Basis Set: AUG-CC-PVTZ
    Blend: AUG-CC-PVTZ
  Basis Set: (AUG-CC-PVTZ AUX)
    Blend: AUG-CC-PVTZ-JKFIT
	 Reference Energy          =    -642.1943799105705466 [Eh]
	 Singles Energy            =      -0.0000000000000000 [Eh]
	 Same-Spin Energy          =      -0.3241133662032282 [Eh]
	 Opposite-Spin Energy      =      -0.9237460448603823 [Eh]
	 Correlation Energy        =      -1.2478594110636105 [Eh]
	 Total Energy              =    -643.4422393216341334 [Eh]

	 ================> DF-SCS-MP2 Energies <==================
	-----------------------------------------------------------
	 SCS Same-Spin Scale       =       0.3333333333333333 [-]
	 SCS Opposite-Spin Scale   =       1.2000000000000000 [-]
	 SCS Same-Spin Energy      =      -0.1080377887344094 [Eh]
	 SCS Opposite-Spin Energy  =      -1.1084952538324586 [Eh]
	 SCS Correlation Energy    =      -1.2165330425668681 [Eh]
	 SCS Total Energy          =    -643.4109129531374265 [Eh]
	-----------------------------------------------------------

  Dipole Moment: [D]
     X:     0.3375      Y:     1.7267      Z:     1.5661     Total:     2.3554

*** Psi4 exiting successfully. Buy a developer a beer!
