                               Psi4 1.3.2 release

  ==> Input File <==

--------------------------------------------------------------------------
#psi4
#
memory 32 gb

molecule  {
0 1
  P       -0.0856380    -0.0896540    -0.0873550
  O       -0.8267684     0.8098224     1.0472280
  O        0.9169770     0.9699500    -0.7813470
  O       -1.0889050    -0.8012840    -0.9028220
  O        0.9882750    -1.0520330     0.6191980
  H        0.4349990     1.7159670    -1.1819520
  H        1.7169640    -0.5519720     1.0297980
  H       -1.6059160     0.5037490     1.3234160
units angstrom
no_reorient  #important for SAPT in psi4, default
symmetry c1  #important for SAPT in psi4, default
}

set PROPERTIES_ORIGIN ["COM"]
properties('MP2/aug-cc-pvtz', properties = ['dipole'])
--------------------------------------------------------------------------

    Molecular point group: c1
  Charge       = 0
  Multiplicity = 1
  Basis Set: AUG-CC-PVTZ
    Blend: AUG-CC-PVTZ
  Basis Set: (AUG-CC-PVTZ AUX)
    Blend: AUG-CC-PVTZ-JKFIT

    Orbital Energies [Eh]
    ---------------------

    Doubly Occupied:

       1A    -80.128303     2A    -20.627131     3A    -20.621751
       4A    -20.607015     5A    -20.519732     6A     -7.643175
       7A     -5.541747     8A     -5.541318     9A     -5.540136
      10A     -1.470055    11A     -1.411135    12A     -1.396101
      13A     -1.302717    14A     -0.880253    15A     -0.791633
      16A     -0.770903    17A     -0.673742    18A     -0.658145
      19A     -0.620384    20A     -0.596817    21A     -0.592176
      22A     -0.557788    23A     -0.549358    24A     -0.478150
      25A     -0.471804

  @DF-RHF Final Energy:  -642.21029606116326

   => Energetics <=

    Nuclear Repulsion Energy =            277.8070111011282393
    One-Electron Energy =               -1440.0516796648519176
    Two-Electron Energy =                 520.0343725025604726
    Total Energy =                       -642.2102960611632625
  Basis Set: (AUG-CC-PVTZ AUX)
    Blend: AUG-CC-PVTZ-RI
    Molecular point group: c1

    Geometry (in Angstrom), charge = 0, multiplicity = 1:

       Center              X                  Y                   Z               Mass
    ------------   -----------------  -----------------  -----------------  -----------------
         P           -0.062480493482    -0.066460091966    -0.068890610248    30.973761998420
         O           -0.803610893482     0.833016308034     1.065692389752    15.994914619570
         O            0.940134506518     0.993143908034    -0.762882610248    15.994914619570
         O           -1.065747493482    -0.778090091966    -0.884357610248    15.994914619570
         O            1.011432506518    -1.028839091966     0.637662389752    15.994914619570
         H            0.458156506518     1.739160908034    -1.163487610248     1.007825032230
         H            1.740121506518    -0.528778091966     1.048262389752     1.007825032230
         H           -1.582758493482     0.526942908034     1.341880389752     1.007825032230

  Basis Set: AUG-CC-PVTZ
    Blend: AUG-CC-PVTZ
  Basis Set: (AUG-CC-PVTZ AUX)
    Blend: AUG-CC-PVTZ-JKFIT
	 Reference Energy          =    -642.2102960611632625 [Eh]
	 Singles Energy            =      -0.0000000000000000 [Eh]
	 Same-Spin Energy          =      -0.3238218198427437 [Eh]
	 Opposite-Spin Energy      =      -0.9215956063561831 [Eh]
	 Correlation Energy        =      -1.2454174261989268 [Eh]
	 Total Energy              =    -643.4557134873622317 [Eh]

	 ================> DF-SCS-MP2 Energies <==================
	-----------------------------------------------------------
	 SCS Same-Spin Scale       =       0.3333333333333333 [-]
	 SCS Opposite-Spin Scale   =       1.2000000000000000 [-]
	 SCS Same-Spin Energy      =      -0.1079406066142479 [Eh]
	 SCS Opposite-Spin Energy  =      -1.1059147276274197 [Eh]
	 SCS Correlation Energy    =      -1.2138553342416676 [Eh]
	 SCS Total Energy          =    -643.4241513954049196 [Eh]
	-----------------------------------------------------------

  Dipole Moment: [D]
     X:     1.2288      Y:     2.7728      Z:     1.9259     Total:     3.5927

*** Psi4 exiting successfully. Buy a developer a beer!
