                               Psi4 1.3.2 release

  ==> Input File <==

--------------------------------------------------------------------------
#psi4
#
memory 32 gb

molecule  {
0 1
  P       -0.0856380    -0.0896540    -0.0873550
  O       -0.6252932     0.9686625     1.0236577
  O        0.9169770     0.9699500    -0.7813470
  O       -1.0889050    -0.8012840    -0.9028220
  O        0.9882750    -1.0520330     0.6191980
  H        0.4349990     1.7159670    -1.1819520
  H        1.7169640    -0.5519720     1.0297980
  H       -1.6059160     0.5037490     1.3234160
units angstrom
no_reorient  #important for SAPT in psi4, default
symmetry c1  #important for SAPT in psi4, default
}

set PROPERTIES_ORIGIN ["COM"]
properties('MP2/aug-cc-pvtz', properties = ['dipole'])
--------------------------------------------------------------------------

    Molecular point group: c1
  Charge       = 0
  Multiplicity = 1
  Basis Set: AUG-CC-PVTZ
    Blend: AUG-CC-PVTZ
  Basis Set: (AUG-CC-PVTZ AUX)
    Blend: AUG-CC-PVTZ-JKFIT

    Orbital Energies [Eh]
    ---------------------

    Doubly Occupied:

       1A    -80.123939     2A    -20.632725     3A    -20.618521
       4A    -20.609591     5A    -20.532104     6A     -7.639602
       7A     -5.538281     8A     -5.537780     9A     -5.536335
      10A     -1.459872    11A     -1.390565    12A     -1.369883
      13A     -1.310497    14A     -0.852872    15A     -0.768712
      16A     -0.732334    17A     -0.671170    18A     -0.659527
      19A     -0.609989    20A     -0.585481    21A     -0.581740
      22A     -0.559679    23A     -0.541363    24A     -0.487338
      25A     -0.481751

  @DF-RHF Final Energy:  -642.18719223183859

   => Energetics <=

    Nuclear Repulsion Energy =            277.3148367084629058
    One-Electron Energy =               -1439.3407564548556365
    Two-Electron Energy =                 519.8387275145540798
    Total Energy =                       -642.1871922318385941
  Basis Set: (AUG-CC-PVTZ AUX)
    Blend: AUG-CC-PVTZ-RI
    Molecular point group: c1

    Geometry (in Angstrom), charge = 0, multiplicity = 1:

       Center              X                  Y                   Z               Mass
    ------------   -----------------  -----------------  -----------------  -----------------
         P           -0.095371703222    -0.092391040511    -0.065042713927    30.973761998420
         O           -0.635026903222     0.965925459489     1.045969986073    15.994914619570
         O            0.907243296778     0.967212959489    -0.759034713927    15.994914619570
         O           -1.098638703222    -0.804021040511    -0.880509713927    15.994914619570
         O            0.978541296778    -1.054770040511     0.641510286073    15.994914619570
         H            0.425265296778     1.713229959489    -1.159639713927     1.007825032230
         H            1.707230296778    -0.554709040511     1.052110286073     1.007825032230
         H           -1.615649703222     0.501011959489     1.345728286073     1.007825032230

  Basis Set: AUG-CC-PVTZ
    Blend: AUG-CC-PVTZ
  Basis Set: (AUG-CC-PVTZ AUX)
    Blend: AUG-CC-PVTZ-JKFIT
	 Reference Energy          =    -642.1871922318385941 [Eh]
	 Singles Energy            =      -0.0000000000000000 [Eh]
	 Same-Spin Energy          =      -0.3273713760838793 [Eh]
	 Opposite-Spin Energy      =      -0.9301072450216780 [Eh]
	 Correlation Energy        =      -1.2574786211055573 [Eh]
	 Total Energy              =    -643.4446708529441139 [Eh]

	 ================> DF-SCS-MP2 Energies <==================
	-----------------------------------------------------------
	 SCS Same-Spin Scale       =       0.3333333333333333 [-]
	 SCS Opposite-Spin Scale   =       1.2000000000000000 [-]
	 SCS Same-Spin Energy      =      -0.1091237920279598 [Eh]
	 SCS Opposite-Spin Energy  =      -1.1161286940260136 [Eh]
	 SCS Correlation Energy    =      -1.2252524860539733 [Eh]
	 SCS Total Energy          =    -643.4124447178925266 [Eh]
	-----------------------------------------------------------

  Dipole Moment: [D]
     X:     0.6831      Y:     2.4271      Z:     2.0209     Total:     3.2313

*** Psi4 exiting successfully. Buy a developer a beer!
