                               Psi4 1.3.2 release

  ==> Input File <==

--------------------------------------------------------------------------
#psi4
#
memory 32 gb

molecule  {
0 1
  P       -0.0856380    -0.0896540    -0.0873550
  O       -0.7240330     0.8430000     1.0823540
  O        0.9169770     0.9699500    -0.7813470
  O       -1.0209232    -0.7530636    -0.8475656
  O        0.9882750    -1.0520330     0.6191980
  H        0.4349990     1.7159670    -1.1819520
  H        1.7169640    -0.5519720     1.0297980
  H       -1.6059160     0.5037490     1.3234160
units angstrom
no_reorient  #important for SAPT in psi4, default
symmetry c1  #important for SAPT in psi4, default
}

set PROPERTIES_ORIGIN ["COM"]
properties('MP2/aug-cc-pvtz', properties = ['dipole'])
--------------------------------------------------------------------------

    Molecular point group: c1
  Charge       = 0
  Multiplicity = 1
  Basis Set: AUG-CC-PVTZ
    Blend: AUG-CC-PVTZ
  Basis Set: (AUG-CC-PVTZ AUX)
    Blend: AUG-CC-PVTZ-JKFIT

    Orbital Energies [Eh]
    ---------------------

    Doubly Occupied:

       1A    -80.103142     2A    -20.613704     3A    -20.610269
       4A    -20.609644     5A    -20.522080     6A     -7.624584
       7A     -5.522863     8A     -5.522183     9A     -5.521847
      10A     -1.465096    11A     -1.387334    12A     -1.385314
      13A     -1.348976    14A     -0.856471    15A     -0.769084
      16A     -0.756692    17A     -0.673661    18A     -0.656834
      19A     -0.610788    20A     -0.597760    21A     -0.584419
      22A     -0.567159    23A     -0.539351    24A     -0.505639
      25A     -0.497558

  @DF-RHF Final Energy:  -642.21162136167516

   => Energetics <=

    Nuclear Repulsion Energy =            282.0222982593571146
    One-Electron Energy =               -1448.7629361601348137
    Two-Electron Energy =                 524.5290165391025994
    Total Energy =                       -642.2116213616751565
  Basis Set: (AUG-CC-PVTZ AUX)
    Blend: AUG-CC-PVTZ-RI
    Molecular point group: c1

    Geometry (in Angstrom), charge = 0, multiplicity = 1:

       Center              X                  Y                   Z               Mass
    ------------   -----------------  -----------------  -----------------  -----------------
         P           -0.090350401200    -0.079748470339    -0.083645709015    30.973761998420
         O           -0.728745401200     0.852905529661     1.086063290985    15.994914619570
         O            0.912264598800     0.979855529661    -0.777637709015    15.994914619570
         O           -1.025635601200    -0.743158070339    -0.843856309015    15.994914619570
         O            0.983562598800    -1.042127470339     0.622907290985    15.994914619570
         H            0.430286598800     1.725872529661    -1.178242709015     1.007825032230
         H            1.712251598800    -0.542066470339     1.033507290985     1.007825032230
         H           -1.610628401200     0.513654529661     1.327125290985     1.007825032230

  Basis Set: AUG-CC-PVTZ
    Blend: AUG-CC-PVTZ
  Basis Set: (AUG-CC-PVTZ AUX)
    Blend: AUG-CC-PVTZ-JKFIT
	 Reference Energy          =    -642.2116213616751565 [Eh]
	 Singles Energy            =      -0.0000000000000000 [Eh]
	 Same-Spin Energy          =      -0.3226516591708518 [Eh]
	 Opposite-Spin Energy      =      -0.9186684033886123 [Eh]
	 Correlation Energy        =      -1.2413200625594643 [Eh]
	 Total Energy              =    -643.4529414242346093 [Eh]

	 ================> DF-SCS-MP2 Energies <==================
	-----------------------------------------------------------
	 SCS Same-Spin Scale       =       0.3333333333333333 [-]
	 SCS Opposite-Spin Scale   =       1.2000000000000000 [-]
	 SCS Same-Spin Energy      =      -0.1075505530569506 [Eh]
	 SCS Opposite-Spin Energy  =      -1.1024020840663347 [Eh]
	 SCS Correlation Energy    =      -1.2099526371232852 [Eh]
	 SCS Total Energy          =    -643.4215739987984080 [Eh]
	-----------------------------------------------------------

  Dipole Moment: [D]
     X:     0.6013      Y:     2.4632      Z:     1.5776     Total:     2.9863

*** Psi4 exiting successfully. Buy a developer a beer!
