                               Psi4 1.3.2 release

  ==> Input File <==

--------------------------------------------------------------------------
#psi4
#
memory 32 gb

molecule  {
0 1
  P       -0.0856380    -0.0896540    -0.0873550
  O       -0.7240330     0.8430000     1.0823540
  O        0.9169770     0.9699500    -0.7813470
  O       -1.0889050    -0.8012840    -0.9028220
  O        0.9882750    -1.0520330     0.6191980
  H        0.4349990     1.7159670    -1.1819520
  H        1.7169640    -0.5519720     1.0297980
  H       -1.6059160     0.5037490     1.3234160
units angstrom
no_reorient  #important for SAPT in psi4, default
symmetry c1  #important for SAPT in psi4, default
}

set PROPERTIES_ORIGIN ["COM"]
properties('MP2/aug-cc-pvtz', properties = ['dipole'])
--------------------------------------------------------------------------

    Molecular point group: c1
  Charge       = 0
  Multiplicity = 1
  Basis Set: AUG-CC-PVTZ
    Blend: AUG-CC-PVTZ
  Basis Set: (AUG-CC-PVTZ AUX)
    Blend: AUG-CC-PVTZ-JKFIT

    Orbital Energies [Eh]
    ---------------------

    Doubly Occupied:

       1A    -80.125912     2A    -20.621519     3A    -20.618451
       4A    -20.617162     5A    -20.526404     6A     -7.641217
       7A     -5.539745     8A     -5.539416     9A     -5.538122
      10A     -1.464322    11A     -1.393919    12A     -1.391731
      13A     -1.306987    14A     -0.865702    15A     -0.773539
      16A     -0.762279    17A     -0.675871    18A     -0.657814
      19A     -0.614183    20A     -0.594184    21A     -0.588214
      22A     -0.560210    23A     -0.543852    24A     -0.483128
      25A     -0.478028

  @DF-RHF Final Energy:  -642.21543999517371

   => Energetics <=

    Nuclear Repulsion Energy =            277.5307019233158599
    One-Electron Energy =               -1439.6484616642335368
    Two-Electron Energy =                 519.9023197457440801
    Total Energy =                       -642.2154399951737105
  Basis Set: (AUG-CC-PVTZ AUX)
    Blend: AUG-CC-PVTZ-RI
    Molecular point group: c1

    Geometry (in Angstrom), charge = 0, multiplicity = 1:

       Center              X                  Y                   Z               Mass
    ------------   -----------------  -----------------  -----------------  -----------------
         P           -0.079252243003    -0.071876398292    -0.074624996581    30.973761998420
         O           -0.717647243003     0.860777601708     1.095084003419    15.994914619570
         O            0.923362756997     0.987727601708    -0.768616996581    15.994914619570
         O           -1.082519243003    -0.783506398292    -0.890091996581    15.994914619570
         O            0.994660756997    -1.034255398292     0.631928003419    15.994914619570
         H            0.441384756997     1.733744601708    -1.169221996581     1.007825032230
         H            1.723349756997    -0.534194398292     1.042528003419     1.007825032230
         H           -1.599530243003     0.521526601708     1.336146003419     1.007825032230

  Basis Set: AUG-CC-PVTZ
    Blend: AUG-CC-PVTZ
  Basis Set: (AUG-CC-PVTZ AUX)
    Blend: AUG-CC-PVTZ-JKFIT
	 Reference Energy          =    -642.2154399951737105 [Eh]
	 Singles Energy            =      -0.0000000000000000 [Eh]
	 Same-Spin Energy          =      -0.3250661897873990 [Eh]
	 Opposite-Spin Energy      =      -0.9243764778994732 [Eh]
	 Correlation Energy        =      -1.2494426676868722 [Eh]
	 Total Energy              =    -643.4648826628605320 [Eh]

	 ================> DF-SCS-MP2 Energies <==================
	-----------------------------------------------------------
	 SCS Same-Spin Scale       =       0.3333333333333333 [-]
	 SCS Opposite-Spin Scale   =       1.2000000000000000 [-]
	 SCS Same-Spin Energy      =      -0.1083553965957997 [Eh]
	 SCS Opposite-Spin Energy  =      -1.1092517734793679 [Eh]
	 SCS Correlation Energy    =      -1.2176071700751676 [Eh]
	 SCS Total Energy          =    -643.4330471652489223 [Eh]
	-----------------------------------------------------------

  Dipole Moment: [D]
     X:     0.9223      Y:     2.7089      Z:     1.8525     Total:     3.4089

*** Psi4 exiting successfully. Buy a developer a beer!
