                               Psi4 1.4a3.dev225

  ==> Input File <==

--------------------------------------------------------------------------
#psi4
#
memory 32 gb

molecule  {
0 1
  O        0.0030180    -0.0000010     1.4483040
  C       -0.0046790     0.0000000     0.0087230
  C        0.6894330     1.2579440    -0.5049070
  C        0.6894570    -1.2579310    -0.5049090
  C       -1.4786030    -0.0000130    -0.3634740
  H        1.7418680     1.2680120    -0.1979930
  H        0.6575680     1.3120800    -1.5976100
  H        0.2018510     2.1450640    -0.0921250
  H        0.2018920    -2.1450590    -0.0921260
  H        1.7418930    -1.2679790    -0.1979980
  H        0.6575890    -1.3120660    -1.5976120
  H       -1.9662980     0.8865690     0.0501550
  H       -1.6044380    -0.0000110    -1.4500690
  H       -1.9662790    -0.8866080     0.0501500
  H        0.9844878     0.0000011     1.7404673
units angstrom
no_reorient  #important for SAPT in psi4, default
symmetry c1  #important for SAPT in psi4, default
}

set PROPERTIES_ORIGIN ["COM"]
properties('MP2/aug-cc-pvtz', properties = ['dipole'])
--------------------------------------------------------------------------

    Molecular point group: c1
  Charge       = 0
  Multiplicity = 1
  Basis Set: AUG-CC-PVTZ
    Blend: AUG-CC-PVTZ
  Basis Set: (AUG-CC-PVTZ AUX)
    Blend: AUG-CC-PVTZ-JKFIT

    Orbital Energies [Eh]
    ---------------------

    Doubly Occupied:

       1A    -20.555460     2A    -11.283441     3A    -11.215567
       4A    -11.215553     5A    -11.209190     6A     -1.343566
       7A     -1.062813     8A     -0.940425     9A     -0.938448
      10A     -0.762424    11A     -0.661298    12A     -0.622478
      13A     -0.620792    14A     -0.573697    15A     -0.555701
      16A     -0.528269    17A     -0.515567    18A     -0.507718
      19A     -0.502174    20A     -0.461526    21A     -0.432454

  @DF-RHF Final Energy:  -232.24202579172828

   => Energetics <=

    Nuclear Repulsion Energy =            199.3744207764245857
    One-Electron Energy =                -710.2157697306556656
    Two-Electron Energy =                 278.5993231625027988
    Total Energy =                       -232.2420257917282811
  Basis Set: (AUG-CC-PVTZ AUX)
    Blend: AUG-CC-PVTZ-RI
    Molecular point group: c1

    Geometry (in Angstrom), charge = 0, multiplicity = 1:

       Center              X                  Y                   Z               Mass
    ------------   -----------------  -----------------  -----------------  -----------------
         O            0.010432429101    -0.000000826244     1.402680888523    15.994914619570
         C            0.002735429101     0.000000173756    -0.036900111477    12.000000000000
         C            0.696847429101     1.257944173756    -0.550530111477    12.000000000000
         C            0.696871429101    -1.257930826244    -0.550532111477    12.000000000000
         C           -1.471188570899    -0.000012826244    -0.409097111477    12.000000000000
         H            1.749282429101     1.268012173756    -0.243616111477     1.007825032230
         H            0.664982429101     1.312080173756    -1.643233111477     1.007825032230
         H            0.209265429101     2.145064173756    -0.137748111477     1.007825032230
         H            0.209306429101    -2.145058826244    -0.137749111477     1.007825032230
         H            1.749307429101    -1.267978826244    -0.243621111477     1.007825032230
         H            0.665003429101    -1.312065826244    -1.643235111477     1.007825032230
         H           -1.958883570899     0.886569173756     0.004531888523     1.007825032230
         H           -1.597023570899    -0.000010826244    -1.495692111477     1.007825032230
         H           -1.958864570899    -0.886607826244     0.004526888523     1.007825032230
         H            0.991902229101     0.000001273756     1.694844188523     1.007825032230

  Basis Set: AUG-CC-PVTZ
    Blend: AUG-CC-PVTZ
  Basis Set: (AUG-CC-PVTZ AUX)
    Blend: AUG-CC-PVTZ-JKFIT
	 Reference Energy          =    -232.2420257917282811 [Eh]
	 Singles Energy            =      -0.0000000000000000 [Eh]
	 Same-Spin Energy          =      -0.2368775600140845 [Eh]
	 Opposite-Spin Energy      =      -0.8311088292570995 [Eh]
	 Correlation Energy        =      -1.0679863892711841 [Eh]
	 Total Energy              =    -233.3100121809994789 [Eh]

	 ================> DF-SCS-MP2 Energies <==================
	-----------------------------------------------------------
	 SCS Same-Spin Scale       =       0.3333333333333333 [-]
	 SCS Opposite-Spin Scale   =       1.2000000000000000 [-]
	 SCS Same-Spin Energy      =      -0.0789591866713615 [Eh]
	 SCS Opposite-Spin Energy  =      -0.9973305951085194 [Eh]
	 SCS Correlation Energy    =      -1.0762897817798809 [Eh]
	 SCS Total Energy          =    -233.3183155735081584 [Eh]
	-----------------------------------------------------------

  Dipole Moment: [D]
     X:     1.1996      Y:     0.0000      Z:    -1.1278     Total:     1.6464

*** Psi4 exiting successfully. Buy a developer a beer!
