                               Psi4 1.3.2 release

  ==> Input File <==

--------------------------------------------------------------------------
#psi4
#
memory 32 gb

molecule  {
0 1
  O        0.0539140     0.0432960     1.3997230
  C       -0.0043350     0.0007120    -0.0350430
  C       -1.2708000    -0.7245700    -0.4738360
  C        0.0313740     1.4194740    -0.5903490
  C        1.2353210    -0.7743910    -0.4444400
  H       -2.1615240    -0.1783290    -0.1422500
  H       -1.3194920    -0.8160620    -1.5626510
  H       -1.2956790    -1.7245230    -0.0333970
  H        0.9265560     1.9341530    -0.2323680
  H       -0.8479550     1.9843460    -0.2595770
  H        0.0373200     1.4182630    -1.6840320
  H        1.2123300    -1.7743220    -0.0041820
  H        1.2915660    -0.8677630    -1.5323580
  H        2.1312280    -0.2611390    -0.0865910
  H       -0.5686406     0.4349829     1.6407035
units angstrom
no_reorient  #important for SAPT in psi4, default
symmetry c1  #important for SAPT in psi4, default
}

set PROPERTIES_ORIGIN ["COM"]
properties('MP2/aug-cc-pvtz', properties = ['dipole'])
--------------------------------------------------------------------------

    Molecular point group: c1
  Charge       = 0
  Multiplicity = 1
  Basis Set: AUG-CC-PVTZ
    Blend: AUG-CC-PVTZ
  Basis Set: (AUG-CC-PVTZ AUX)
    Blend: AUG-CC-PVTZ-JKFIT

    Orbital Energies [Eh]
    ---------------------

    Doubly Occupied:

       1A    -20.528489     2A    -11.284966     3A    -11.216638
       4A    -11.216623     5A    -11.209031     6A     -1.413676
       7A     -1.078914     8A     -0.942273     9A     -0.940537
      10A     -0.797246    11A     -0.689968    12A     -0.625736
      13A     -0.624101    14A     -0.582847    15A     -0.558000
      16A     -0.533507    17A     -0.516458    18A     -0.514289
      19A     -0.505829    20A     -0.466595    21A     -0.437839

  @DF-RHF Final Energy:  -232.20196139458915

   => Energetics <=

    Nuclear Repulsion Energy =            201.2768263489604692
    One-Electron Energy =                -713.5904524595640623
    Two-Electron Energy =                 280.1116647160143884
    Total Energy =                       -232.2019613945891479
  Basis Set: (AUG-CC-PVTZ AUX)
    Blend: AUG-CC-PVTZ-RI
    Molecular point group: c1

    Geometry (in Angstrom), charge = 0, multiplicity = 1:

       Center              X                  Y                   Z               Mass
    ------------   -----------------  -----------------  -----------------  -----------------
         O            0.051725233207     0.044673105972     1.400570276428    15.994914619570
         C           -0.006523766793     0.002089105972    -0.034195723572    12.000000000000
         C           -1.272988766793    -0.723192894028    -0.472988723572    12.000000000000
         C            0.029185233207     1.420851105972    -0.589501723572    12.000000000000
         C            1.233132233207    -0.773013894028    -0.443592723572    12.000000000000
         H           -2.163712766793    -0.176951894028    -0.141402723572     1.007825032230
         H           -1.321680766793    -0.814684894028    -1.561803723572     1.007825032230
         H           -1.297867766793    -1.723145894028    -0.032549723572     1.007825032230
         H            0.924367233207     1.935530105972    -0.231520723572     1.007825032230
         H           -0.850143766793     1.985723105972    -0.258729723572     1.007825032230
         H            0.035131233207     1.419640105972    -1.683184723572     1.007825032230
         H            1.210141233207    -1.772944894028    -0.003334723572     1.007825032230
         H            1.289377233207    -0.866385894028    -1.531510723572     1.007825032230
         H            2.129039233207    -0.259761894028    -0.085743723572     1.007825032230
         H           -0.570829366793     0.436360005972     1.641550776428     1.007825032230

  Basis Set: AUG-CC-PVTZ
    Blend: AUG-CC-PVTZ
  Basis Set: (AUG-CC-PVTZ AUX)
    Blend: AUG-CC-PVTZ-JKFIT
	 Reference Energy          =    -232.2019613945891479 [Eh]
	 Singles Energy            =      -0.0000000000000000 [Eh]
	 Same-Spin Energy          =      -0.2338527544460171 [Eh]
	 Opposite-Spin Energy      =      -0.8236589631066759 [Eh]
	 Correlation Energy        =      -1.0575117175526929 [Eh]
	 Total Energy              =    -233.2594731121418477 [Eh]

	 ================> DF-SCS-MP2 Energies <==================
	-----------------------------------------------------------
	 SCS Same-Spin Scale       =       0.3333333333333333 [-]
	 SCS Opposite-Spin Scale   =       1.2000000000000000 [-]
	 SCS Same-Spin Energy      =      -0.0779509181486724 [Eh]
	 SCS Opposite-Spin Energy  =      -0.9883907557280109 [Eh]
	 SCS Correlation Energy    =      -1.0663416738766833 [Eh]
	 SCS Total Energy          =    -233.2683030684658263 [Eh]
	-----------------------------------------------------------

  Dipole Moment: [D]
     X:    -0.9816      Y:     0.5322      Z:    -1.1939     Total:     1.6347

*** Psi4 exiting successfully. Buy a developer a beer!
