                               Psi4 1.3.2 release

  ==> Input File <==

--------------------------------------------------------------------------
#psi4
#
memory 32 gb

molecule  {
0 1
  O        0.1190702     0.0804253     1.3940045
  C       -0.0043350     0.0007120    -0.0350430
  C       -1.2489021    -0.7125732    -0.5496145
  C        0.0313740     1.4194740    -0.5903490
  C        1.2353210    -0.7743910    -0.4444400
  H       -2.1615240    -0.1783290    -0.1422500
  H       -1.3194920    -0.8160620    -1.5626510
  H       -1.2956790    -1.7245230    -0.0333970
  H        0.9265560     1.9341530    -0.2323680
  H       -0.8479550     1.9843460    -0.2595770
  H        0.0373200     1.4182630    -1.6840320
  H        1.2123300    -1.7743220    -0.0041820
  H        1.2915660    -0.8677630    -1.5323580
  H        2.1312280    -0.2611390    -0.0865910
  H       -0.7295090     0.5361950     1.7029730
units angstrom
no_reorient  #important for SAPT in psi4, default
symmetry c1  #important for SAPT in psi4, default
}

set PROPERTIES_ORIGIN ["COM"]
properties('MP2/aug-cc-pvtz', properties = ['dipole'])
--------------------------------------------------------------------------

    Molecular point group: c1
  Charge       = 0
  Multiplicity = 1
  Basis Set: AUG-CC-PVTZ
    Blend: AUG-CC-PVTZ
  Basis Set: (AUG-CC-PVTZ AUX)
    Blend: AUG-CC-PVTZ-JKFIT

    Orbital Energies [Eh]
    ---------------------

    Doubly Occupied:

       1A    -20.559122     2A    -11.283256     3A    -11.219616
       4A    -11.213003     5A    -11.206998     6A     -1.350243
       7A     -1.066428     8A     -0.940634     9A     -0.938380
      10A     -0.764283    11A     -0.666032    12A     -0.631067
      13A     -0.620269    14A     -0.572325    15A     -0.559793
      16A     -0.526533    17A     -0.518982    18A     -0.506493
      19A     -0.499514    20A     -0.459301    21A     -0.432651

  @DF-RHF Final Energy:  -232.23370399978515

   => Energetics <=

    Nuclear Repulsion Energy =            199.7449632034793865
    One-Electron Energy =                -710.8874917259264521
    Two-Electron Energy =                 278.9088245226618596
    Total Energy =                       -232.2337039997851775
  Basis Set: (AUG-CC-PVTZ AUX)
    Blend: AUG-CC-PVTZ-RI
    Molecular point group: c1

    Geometry (in Angstrom), charge = 0, multiplicity = 1:

       Center              X                  Y                   Z               Mass
    ------------   -----------------  -----------------  -----------------  -----------------
         O            0.101453235202     0.070464350254     1.407515635994    15.994914619570
         C           -0.021951964798    -0.009248949746    -0.021531864006    12.000000000000
         C           -1.266519064798    -0.722534149746    -0.536103364006    12.000000000000
         C            0.013757035202     1.409513050254    -0.576837864006    12.000000000000
         C            1.217704035202    -0.784351949746    -0.430928864006    12.000000000000
         H           -2.179140964798    -0.188289949746    -0.128738864006     1.007825032230
         H           -1.337108964798    -0.826022949746    -1.549139864006     1.007825032230
         H           -1.313295964798    -1.734483949746    -0.019885864006     1.007825032230
         H            0.908939035202     1.924192050254    -0.218856864006     1.007825032230
         H           -0.865571964798     1.974385050254    -0.246065864006     1.007825032230
         H            0.019703035202     1.408302050254    -1.670520864006     1.007825032230
         H            1.194713035202    -1.784282949746     0.009329135994     1.007825032230
         H            1.273949035202    -0.877723949746    -1.518846864006     1.007825032230
         H            2.113611035202    -0.271099949746    -0.073079864006     1.007825032230
         H           -0.747125964798     0.526234050254     1.716484135994     1.007825032230

  Basis Set: AUG-CC-PVTZ
    Blend: AUG-CC-PVTZ
  Basis Set: (AUG-CC-PVTZ AUX)
    Blend: AUG-CC-PVTZ-JKFIT
	 Reference Energy          =    -232.2337039997851491 [Eh]
	 Singles Energy            =      -0.0000000000000000 [Eh]
	 Same-Spin Energy          =      -0.2372210211084495 [Eh]
	 Opposite-Spin Energy      =      -0.8315552815947626 [Eh]
	 Correlation Energy        =      -1.0687763027032120 [Eh]
	 Total Energy              =    -233.3024803024883624 [Eh]

	 ================> DF-SCS-MP2 Energies <==================
	-----------------------------------------------------------
	 SCS Same-Spin Scale       =       0.3333333333333333 [-]
	 SCS Opposite-Spin Scale   =       1.2000000000000000 [-]
	 SCS Same-Spin Energy      =      -0.0790736737028165 [Eh]
	 SCS Opposite-Spin Energy  =      -0.9978663379137150 [Eh]
	 SCS Correlation Energy    =      -1.0769400116165315 [Eh]
	 SCS Total Energy          =    -233.3106440114016777 [Eh]
	-----------------------------------------------------------

  Dipole Moment: [D]
     X:    -1.1851      Y:     0.4674      Z:    -1.0784     Total:     1.6690

*** Psi4 exiting successfully. Buy a developer a beer!
