                               Psi4 1.3.2 release

  ==> Input File <==

--------------------------------------------------------------------------
#psi4
#
memory 32 gb

molecule  {
0 1
  O        0.0539140     0.0432960     1.3997230
  C        0.0063707    -0.0058084    -0.0352293
  C       -1.2708000    -0.7245700    -0.4738360
  C        0.0313740     1.4194740    -0.5903490
  C        1.2353210    -0.7743910    -0.4444400
  H       -2.1615240    -0.1783290    -0.1422500
  H       -1.3194920    -0.8160620    -1.5626510
  H       -1.2956790    -1.7245230    -0.0333970
  H        0.9265560     1.9341530    -0.2323680
  H       -0.8479550     1.9843460    -0.2595770
  H        0.0373200     1.4182630    -1.6840320
  H        1.2123300    -1.7743220    -0.0041820
  H        1.2915660    -0.8677630    -1.5323580
  H        2.1312280    -0.2611390    -0.0865910
  H       -0.7270209     0.5351200     1.7110289
units angstrom
no_reorient  #important for SAPT in psi4, default
symmetry c1  #important for SAPT in psi4, default
}

set PROPERTIES_ORIGIN ["COM"]
properties('MP2/aug-cc-pvtz', properties = ['dipole'])
--------------------------------------------------------------------------

    Molecular point group: c1
  Charge       = 0
  Multiplicity = 1
  Basis Set: AUG-CC-PVTZ
    Blend: AUG-CC-PVTZ
  Basis Set: (AUG-CC-PVTZ AUX)
    Blend: AUG-CC-PVTZ-JKFIT

    Orbital Energies [Eh]
    ---------------------

    Doubly Occupied:

       1A    -20.550339     2A    -11.283183     3A    -11.215212
       4A    -11.215198     5A    -11.208703     6A     -1.353504
       7A     -1.066189     8A     -0.940186     9A     -0.939650
      10A     -0.768752    11A     -0.667807    12A     -0.623036
      13A     -0.621959    14A     -0.575407    15A     -0.555742
      16A     -0.530548    17A     -0.515450    18A     -0.509318
      19A     -0.501916    20A     -0.465199    21A     -0.430667

  @DF-RHF Final Energy:  -232.24732464270971

   => Energetics <=

    Nuclear Repulsion Energy =            199.8652059930055884
    One-Electron Energy =                -711.1491284334265401
    Two-Electron Energy =                 279.0365977977112379
    Total Energy =                       -232.2473246427097138
  Basis Set: (AUG-CC-PVTZ AUX)
    Blend: AUG-CC-PVTZ-RI
    Molecular point group: c1

    Geometry (in Angstrom), charge = 0, multiplicity = 1:

       Center              X                  Y                   Z               Mass
    ------------   -----------------  -----------------  -----------------  -----------------
         O            0.052145779986     0.044366977888     1.399643623725    15.994914619570
         C            0.004602479986    -0.004737422112    -0.035308676275    12.000000000000
         C           -1.272568220014    -0.723499022112    -0.473915376275    12.000000000000
         C            0.029605779986     1.420544977888    -0.590428376275    12.000000000000
         C            1.233552779986    -0.773320022112    -0.444519376275    12.000000000000
         H           -2.163292220014    -0.177258022112    -0.142329376275     1.007825032230
         H           -1.321260220014    -0.814991022112    -1.562730376275     1.007825032230
         H           -1.297447220014    -1.723452022112    -0.033476376275     1.007825032230
         H            0.924787779986     1.935223977888    -0.232447376275     1.007825032230
         H           -0.849723220014     1.985416977888    -0.259656376275     1.007825032230
         H            0.035551779986     1.419333977888    -1.684111376275     1.007825032230
         H            1.210561779986    -1.773251022112    -0.004261376275     1.007825032230
         H            1.289797779986    -0.866692022112    -1.532437376275     1.007825032230
         H            2.129459779986    -0.260068022112    -0.086670376275     1.007825032230
         H           -0.728789120014     0.536190977888     1.710949523725     1.007825032230

  Basis Set: AUG-CC-PVTZ
    Blend: AUG-CC-PVTZ
  Basis Set: (AUG-CC-PVTZ AUX)
    Blend: AUG-CC-PVTZ-JKFIT
	 Reference Energy          =    -232.2473246427097138 [Eh]
	 Singles Energy            =      -0.0000000000000000 [Eh]
	 Same-Spin Energy          =      -0.2362763158973561 [Eh]
	 Opposite-Spin Energy      =      -0.8293066680976130 [Eh]
	 Correlation Energy        =      -1.0655829839949691 [Eh]
	 Total Energy              =    -233.3129076267046855 [Eh]

	 ================> DF-SCS-MP2 Energies <==================
	-----------------------------------------------------------
	 SCS Same-Spin Scale       =       0.3333333333333333 [-]
	 SCS Opposite-Spin Scale   =       1.2000000000000000 [-]
	 SCS Same-Spin Energy      =      -0.0787587719657854 [Eh]
	 SCS Opposite-Spin Energy  =      -0.9951680017171356 [Eh]
	 SCS Correlation Energy    =      -1.0739267736829210 [Eh]
	 SCS Total Energy          =    -233.3212514163926414 [Eh]
	-----------------------------------------------------------

  Dipole Moment: [D]
     X:    -1.0409      Y:     0.5737      Z:    -1.0928     Total:     1.6146

*** Psi4 exiting successfully. Buy a developer a beer!
