                               Psi4 1.3.2 release

  ==> Input File <==

--------------------------------------------------------------------------
#psi4
#
memory 32 gb

molecule  {
0 1
  O        0.0539140     0.0432960     1.3997230
  C       -0.0257323     0.0137621    -0.0343426
  C       -1.2708000    -0.7245700    -0.4738360
  C        0.0313740     1.4194740    -0.5903490
  C        1.2353210    -0.7743910    -0.4444400
  H       -2.1615240    -0.1783290    -0.1422500
  H       -1.3194920    -0.8160620    -1.5626510
  H       -1.2956790    -1.7245230    -0.0333970
  H        0.9265560     1.9341530    -0.2323680
  H       -0.8479550     1.9843460    -0.2595770
  H        0.0373200     1.4182630    -1.6840320
  H        1.2123300    -1.7743220    -0.0041820
  H        1.2915660    -0.8677630    -1.5323580
  H        2.1312280    -0.2611390    -0.0865910
  H       -0.7343059     0.5382324     1.6867925
units angstrom
no_reorient  #important for SAPT in psi4, default
symmetry c1  #important for SAPT in psi4, default
}

set PROPERTIES_ORIGIN ["COM"]
properties('MP2/aug-cc-pvtz', properties = ['dipole'])
--------------------------------------------------------------------------

    Molecular point group: c1
  Charge       = 0
  Multiplicity = 1
  Basis Set: AUG-CC-PVTZ
    Blend: AUG-CC-PVTZ
  Basis Set: (AUG-CC-PVTZ AUX)
    Blend: AUG-CC-PVTZ-JKFIT

    Orbital Energies [Eh]
    ---------------------

    Doubly Occupied:

       1A    -20.552234     2A    -11.282778     3A    -11.215678
       4A    -11.215662     5A    -11.208615     6A     -1.355837
       7A     -1.065991     8A     -0.943432     9A     -0.936471
      10A     -0.766680    11A     -0.669271    12A     -0.624459
      13A     -0.621492    14A     -0.577339    15A     -0.557029
      16A     -0.527833    17A     -0.515848    18A     -0.509750
      19A     -0.504268    20A     -0.456739    21A     -0.437919

  @DF-RHF Final Energy:  -232.24620135376452

   => Energetics <=

    Nuclear Repulsion Energy =            199.9032009498901914
    One-Electron Energy =                -711.2081603518366819
    Two-Electron Energy =                 279.0587580481819714
    Total Energy =                       -232.2462013537644907
  Basis Set: (AUG-CC-PVTZ AUX)
    Blend: AUG-CC-PVTZ-RI
    Molecular point group: c1

    Geometry (in Angstrom), charge = 0, multiplicity = 1:

       Center              X                  Y                   Z               Mass
    ------------   -----------------  -----------------  -----------------  -----------------
         O            0.057445648105     0.041154171269     1.399829732292    15.994914619570
         C           -0.022200651895     0.011620271269    -0.034235867708    12.000000000000
         C           -1.267268351895    -0.726711828731    -0.473729267708    12.000000000000
         C            0.034905648105     1.417332171269    -0.590242267708    12.000000000000
         C            1.238852648105    -0.776532828731    -0.444333267708    12.000000000000
         H           -2.157992351895    -0.180470828731    -0.142143267708     1.007825032230
         H           -1.315960351895    -0.818203828731    -1.562544267708     1.007825032230
         H           -1.292147351895    -1.726664828731    -0.033290267708     1.007825032230
         H            0.930087648105     1.932011171269    -0.232261267708     1.007825032230
         H           -0.844423351895     1.982204171269    -0.259470267708     1.007825032230
         H            0.040851648105     1.416121171269    -1.683925267708     1.007825032230
         H            1.215861648105    -1.776463828731    -0.004075267708     1.007825032230
         H            1.295097648105    -0.869904828731    -1.532251267708     1.007825032230
         H            2.134759648105    -0.263280828731    -0.086484267708     1.007825032230
         H           -0.730774251895     0.536090571269     1.686899232292     1.007825032230

  Basis Set: AUG-CC-PVTZ
    Blend: AUG-CC-PVTZ
  Basis Set: (AUG-CC-PVTZ AUX)
    Blend: AUG-CC-PVTZ-JKFIT
	 Reference Energy          =    -232.2462013537645191 [Eh]
	 Singles Energy            =      -0.0000000000000000 [Eh]
	 Same-Spin Energy          =      -0.2364461604549868 [Eh]
	 Opposite-Spin Energy      =      -0.8296854715455767 [Eh]
	 Correlation Energy        =      -1.0661316320005634 [Eh]
	 Total Energy              =    -233.3123329857650958 [Eh]

	 ================> DF-SCS-MP2 Energies <==================
	-----------------------------------------------------------
	 SCS Same-Spin Scale       =       0.3333333333333333 [-]
	 SCS Opposite-Spin Scale   =       1.2000000000000000 [-]
	 SCS Same-Spin Energy      =      -0.0788153868183289 [Eh]
	 SCS Opposite-Spin Energy  =      -0.9956225658546920 [Eh]
	 SCS Correlation Energy    =      -1.0744379526730210 [Eh]
	 SCS Total Energy          =    -233.3206393064375277 [Eh]
	-----------------------------------------------------------

  Dipole Moment: [D]
     X:    -1.0926      Y:     0.6037      Z:    -1.1206     Total:     1.6774

*** Psi4 exiting successfully. Buy a developer a beer!
