                               Psi4 1.3.2 release

  ==> Input File <==

--------------------------------------------------------------------------
#psi4
#
memory 32 gb

molecule  {
0 1
  O        0.0539140     0.0432960     1.3997230
  C       -0.0002803     0.0036763     0.0648308
  C       -1.2708000    -0.7245700    -0.4738360
  C        0.0313740     1.4194740    -0.5903490
  C        1.2353210    -0.7743910    -0.4444400
  H       -2.1615240    -0.1783290    -0.1422500
  H       -1.3194920    -0.8160620    -1.5626510
  H       -1.2956790    -1.7245230    -0.0333970
  H        0.9265560     1.9341530    -0.2323680
  H       -0.8479550     1.9843460    -0.2595770
  H        0.0373200     1.4182630    -1.6840320
  H        1.2123300    -1.7743220    -0.0041820
  H        1.2915660    -0.8677630    -1.5323580
  H        2.1312280    -0.2611390    -0.0865910
  H       -0.7295090     0.5361950     1.7029730
units angstrom
no_reorient  #important for SAPT in psi4, default
symmetry c1  #important for SAPT in psi4, default
}

set PROPERTIES_ORIGIN ["COM"]
properties('MP2/aug-cc-pvtz', properties = ['dipole'])
--------------------------------------------------------------------------

    Molecular point group: c1
  Charge       = 0
  Multiplicity = 1
  Basis Set: AUG-CC-PVTZ
    Blend: AUG-CC-PVTZ
  Basis Set: (AUG-CC-PVTZ AUX)
    Blend: AUG-CC-PVTZ-JKFIT

    Orbital Energies [Eh]
    ---------------------

    Doubly Occupied:

       1A    -20.564803     2A    -11.283955     3A    -11.212327
       4A    -11.212313     5A    -11.206835     6A     -1.400105
       7A     -1.052102     8A     -0.933006     9A     -0.932965
      10A     -0.787857    11A     -0.678377    12A     -0.629380
      13A     -0.625555    14A     -0.572337    15A     -0.556317
      16A     -0.543508    17A     -0.522520    18A     -0.512042
      19A     -0.506780    20A     -0.443181    21A     -0.415505

  @DF-RHF Final Energy:  -232.23900387665884

   => Energetics <=

    Nuclear Repulsion Energy =            200.2957340955324241
    One-Electron Energy =                -711.8859360737055795
    Two-Electron Energy =                 279.3511981015142851
    Total Energy =                       -232.2390038766588418
  Basis Set: (AUG-CC-PVTZ AUX)
    Blend: AUG-CC-PVTZ-RI
    Molecular point group: c1

    Geometry (in Angstrom), charge = 0, multiplicity = 1:

       Center              X                  Y                   Z               Mass
    ------------   -----------------  -----------------  -----------------  -----------------
         O            0.053257107813     0.042815811390     1.383543295580    15.994914619570
         C           -0.000937192187     0.003196111390     0.048651095580    12.000000000000
         C           -1.271456892187    -0.725050188610    -0.490015704420    12.000000000000
         C            0.030717107813     1.418993811390    -0.606528704420    12.000000000000
         C            1.234664107813    -0.774871188610    -0.460619704420    12.000000000000
         H           -2.162180892187    -0.178809188610    -0.158429704420     1.007825032230
         H           -1.320148892187    -0.816542188610    -1.578830704420     1.007825032230
         H           -1.296335892187    -1.725003188610    -0.049576704420     1.007825032230
         H            0.925899107813     1.933672811390    -0.248547704420     1.007825032230
         H           -0.848611892187     1.983865811390    -0.275756704420     1.007825032230
         H            0.036663107813     1.417782811390    -1.700211704420     1.007825032230
         H            1.211673107813    -1.774802188610    -0.020361704420     1.007825032230
         H            1.290909107813    -0.868243188610    -1.548537704420     1.007825032230
         H            2.130571107813    -0.261619188610    -0.102770704420     1.007825032230
         H           -0.730165892187     0.535714811390     1.686793295580     1.007825032230

  Basis Set: AUG-CC-PVTZ
    Blend: AUG-CC-PVTZ
  Basis Set: (AUG-CC-PVTZ AUX)
    Blend: AUG-CC-PVTZ-JKFIT
	 Reference Energy          =    -232.2390038766588418 [Eh]
	 Singles Energy            =      -0.0000000000000000 [Eh]
	 Same-Spin Energy          =      -0.2361512995358985 [Eh]
	 Opposite-Spin Energy      =      -0.8282389285704099 [Eh]
	 Correlation Energy        =      -1.0643902281063085 [Eh]
	 Total Energy              =    -233.3033941047651467 [Eh]

	 ================> DF-SCS-MP2 Energies <==================
	-----------------------------------------------------------
	 SCS Same-Spin Scale       =       0.3333333333333333 [-]
	 SCS Opposite-Spin Scale   =       1.2000000000000000 [-]
	 SCS Same-Spin Energy      =      -0.0787170998452995 [Eh]
	 SCS Opposite-Spin Energy  =      -0.9938867142844918 [Eh]
	 SCS Correlation Energy    =      -1.0726038141297913 [Eh]
	 SCS Total Energy          =    -233.3116076907886338 [Eh]
	-----------------------------------------------------------

  Dipole Moment: [D]
     X:    -1.0408      Y:     0.5932      Z:    -0.7356     Total:     1.4057

*** Psi4 exiting successfully. Buy a developer a beer!
