                               Psi4 1.3.2 release

  ==> Input File <==

--------------------------------------------------------------------------
#psi4
#
memory 32 gb

molecule  {
0 1
  O        0.0539140     0.0432960     1.3997230
  C       -0.0043350     0.0007120    -0.0350430
  C       -1.2708000    -0.7245700    -0.4738360
  C        0.0313740     1.4194740    -0.5903490
  C        1.2353210    -0.7743910    -0.4444400
  H       -2.1615240    -0.1783290    -0.1422500
  H       -1.3194920    -0.8160620    -1.5626510
  H       -1.2956790    -1.7245230    -0.0333970
  H        0.9265560     1.9341530    -0.2323680
  H       -0.8479550     1.9843460    -0.2595770
  H        0.0373200     1.4182630    -1.6840320
  H        1.2123300    -1.7743220    -0.0041820
  H        1.2915660    -0.8677630    -1.5323580
  H        2.1312280    -0.2611390    -0.0865910
  H       -0.8903774     0.6374071     1.7652425
units angstrom
no_reorient  #important for SAPT in psi4, default
symmetry c1  #important for SAPT in psi4, default
}

set PROPERTIES_ORIGIN ["COM"]
properties('MP2/aug-cc-pvtz', properties = ['dipole'])
--------------------------------------------------------------------------

    Molecular point group: c1
  Charge       = 0
  Multiplicity = 1
  Basis Set: AUG-CC-PVTZ
    Blend: AUG-CC-PVTZ
  Basis Set: (AUG-CC-PVTZ AUX)
    Blend: AUG-CC-PVTZ-JKFIT

    Orbital Energies [Eh]
    ---------------------

    Doubly Occupied:

       1A    -20.566799     2A    -11.281960     3A    -11.214328
       4A    -11.214313     5A    -11.209478     6A     -1.324545
       7A     -1.057938     8A     -0.939720     9A     -0.938200
      10A     -0.752547    11A     -0.643876    12A     -0.621840
      13A     -0.620571    14A     -0.566599    15A     -0.554851
      16A     -0.523534    17A     -0.514975    18A     -0.505101
      19A     -0.501113    20A     -0.457327    21A     -0.430528

  @DF-RHF Final Energy:  -232.21169089718666

   => Energetics <=

    Nuclear Repulsion Energy =            198.8636392961592776
    One-Electron Energy =                -709.2703748884747483
    Two-Electron Energy =                 278.1950446951288427
    Total Energy =                       -232.2116908971866565
  Basis Set: (AUG-CC-PVTZ AUX)
    Blend: AUG-CC-PVTZ-RI
    Molecular point group: c1

    Geometry (in Angstrom), charge = 0, multiplicity = 1:

       Center              X                  Y                   Z               Mass
    ------------   -----------------  -----------------  -----------------  -----------------
         O            0.056102721344     0.041918961795     1.398875823089    15.994914619570
         C           -0.002146278656    -0.000665038205    -0.035890176911    12.000000000000
         C           -1.268611278656    -0.725947038205    -0.474683176911    12.000000000000
         C            0.033562721344     1.418096961795    -0.591196176911    12.000000000000
         C            1.237509721344    -0.775768038205    -0.445287176911    12.000000000000
         H           -2.159335278656    -0.179706038205    -0.143097176911     1.007825032230
         H           -1.317303278656    -0.817439038205    -1.563498176911     1.007825032230
         H           -1.293490278656    -1.725900038205    -0.034244176911     1.007825032230
         H            0.928744721344     1.932775961795    -0.233215176911     1.007825032230
         H           -0.845766278656     1.982968961795    -0.260424176911     1.007825032230
         H            0.039508721344     1.416885961795    -1.684879176911     1.007825032230
         H            1.214518721344    -1.775699038205    -0.005029176911     1.007825032230
         H            1.293754721344    -0.869140038205    -1.533205176911     1.007825032230
         H            2.133416721344    -0.262516038205    -0.087438176911     1.007825032230
         H           -0.888188678656     0.636030061795     1.764395323089     1.007825032230

  Basis Set: AUG-CC-PVTZ
    Blend: AUG-CC-PVTZ
  Basis Set: (AUG-CC-PVTZ AUX)
    Blend: AUG-CC-PVTZ-JKFIT
	 Reference Energy          =    -232.2116908971866565 [Eh]
	 Singles Energy            =      -0.0000000000000000 [Eh]
	 Same-Spin Energy          =      -0.2386147840510189 [Eh]
	 Opposite-Spin Energy      =      -0.8363179721262062 [Eh]
	 Correlation Energy        =      -1.0749327561772251 [Eh]
	 Total Energy              =    -233.2866236533638755 [Eh]

	 ================> DF-SCS-MP2 Energies <==================
	-----------------------------------------------------------
	 SCS Same-Spin Scale       =       0.3333333333333333 [-]
	 SCS Opposite-Spin Scale   =       1.2000000000000000 [-]
	 SCS Same-Spin Energy      =      -0.0795382613503396 [Eh]
	 SCS Opposite-Spin Energy  =      -1.0035815665514474 [Eh]
	 SCS Correlation Energy    =      -1.0831198279017871 [Eh]
	 SCS Total Energy          =    -233.2948107250884391 [Eh]
	-----------------------------------------------------------

  Dipole Moment: [D]
     X:    -1.1069      Y:     0.6157      Z:    -1.0593     Total:     1.6512

*** Psi4 exiting successfully. Buy a developer a beer!
