                               Psi4 1.3.2 release

  ==> Input File <==

--------------------------------------------------------------------------
#psi4
#
memory 32 gb

molecule  {
0 1
  O        0.0539140     0.0432960     1.3997230
  C        0.0170801    -0.0123251    -0.0353064
  C       -1.2708000    -0.7245700    -0.4738360
  C        0.0313740     1.4194740    -0.5903490
  C        1.2353210    -0.7743910    -0.4444400
  H       -2.1615240    -0.1783290    -0.1422500
  H       -1.3194920    -0.8160620    -1.5626510
  H       -1.2956790    -1.7245230    -0.0333970
  H        0.9265560     1.9341530    -0.2323680
  H       -0.8479550     1.9843460    -0.2595770
  H        0.0373200     1.4182630    -1.6840320
  H        1.2123300    -1.7743220    -0.0041820
  H        1.2915660    -0.8677630    -1.5323580
  H        2.1312280    -0.2611390    -0.0865910
  H       -0.7244734     0.5340075     1.7190612
units angstrom
no_reorient  #important for SAPT in psi4, default
symmetry c1  #important for SAPT in psi4, default
}

set PROPERTIES_ORIGIN ["COM"]
properties('MP2/aug-cc-pvtz', properties = ['dipole'])
--------------------------------------------------------------------------

    Molecular point group: c1
  Charge       = 0
  Multiplicity = 1
  Basis Set: AUG-CC-PVTZ
    Blend: AUG-CC-PVTZ
  Basis Set: (AUG-CC-PVTZ AUX)
    Blend: AUG-CC-PVTZ-JKFIT

    Orbital Energies [Eh]
    ---------------------

    Doubly Occupied:

       1A    -20.549722     2A    -11.283416     3A    -11.215084
       4A    -11.215070     5A    -11.208694     6A     -1.352770
       7A     -1.066507     8A     -0.941331     9A     -0.938408
      10A     -0.769451    11A     -0.667418    12A     -0.622546
      13A     -0.622217    14A     -0.574801    15A     -0.555315
      16A     -0.531621    17A     -0.515391    18A     -0.509666
      19A     -0.501096    20A     -0.467129    21A     -0.428107

  @DF-RHF Final Energy:  -232.24689093968962

   => Energetics <=

    Nuclear Repulsion Energy =            199.8532595446926905
    One-Electron Energy =                -711.1287798437112997
    Two-Electron Energy =                 279.0286293593289884
    Total Energy =                       -232.2468909396895924
  Basis Set: (AUG-CC-PVTZ AUX)
    Blend: AUG-CC-PVTZ-RI
    Molecular point group: c1

    Geometry (in Angstrom), charge = 0, multiplicity = 1:

       Center              X                  Y                   Z               Mass
    ------------   -----------------  -----------------  -----------------  -----------------
         O            0.050376175105     0.045437832704     1.399546828171    15.994914619570
         C            0.013542275105    -0.010183267296    -0.035482571829    12.000000000000
         C           -1.274337824895    -0.722428167296    -0.474012171829    12.000000000000
         C            0.027836175105     1.421615832704    -0.590525171829    12.000000000000
         C            1.231783175105    -0.772249167296    -0.444616171829    12.000000000000
         H           -2.165061824895    -0.176187167296    -0.142426171829     1.007825032230
         H           -1.323029824895    -0.813920167296    -1.562827171829     1.007825032230
         H           -1.299216824895    -1.722381167296    -0.033573171829     1.007825032230
         H            0.923018175105     1.936294832704    -0.232544171829     1.007825032230
         H           -0.851492824895     1.986487832704    -0.259753171829     1.007825032230
         H            0.033782175105     1.420404832704    -1.684208171829     1.007825032230
         H            1.208792175105    -1.772180167296    -0.004358171829     1.007825032230
         H            1.288028175105    -0.865621167296    -1.532534171829     1.007825032230
         H            2.127690175105    -0.258997167296    -0.086767171829     1.007825032230
         H           -0.728011224895     0.536149332704     1.718885028171     1.007825032230

  Basis Set: AUG-CC-PVTZ
    Blend: AUG-CC-PVTZ
  Basis Set: (AUG-CC-PVTZ AUX)
    Blend: AUG-CC-PVTZ-JKFIT
	 Reference Energy          =    -232.2468909396896208 [Eh]
	 Singles Energy            =      -0.0000000000000000 [Eh]
	 Same-Spin Energy          =      -0.2362546500759795 [Eh]
	 Opposite-Spin Energy      =      -0.8292410760444566 [Eh]
	 Correlation Energy        =      -1.0654957261204361 [Eh]
	 Total Energy              =    -233.3123866658100667 [Eh]

	 ================> DF-SCS-MP2 Energies <==================
	-----------------------------------------------------------
	 SCS Same-Spin Scale       =       0.3333333333333333 [-]
	 SCS Opposite-Spin Scale   =       1.2000000000000000 [-]
	 SCS Same-Spin Energy      =      -0.0787515500253265 [Eh]
	 SCS Opposite-Spin Energy  =      -0.9950892912533479 [Eh]
	 SCS Correlation Energy    =      -1.0738408412786744 [Eh]
	 SCS Total Energy          =    -233.3207317809682877 [Eh]
	-----------------------------------------------------------

  Dipole Moment: [D]
     X:    -1.0229      Y:     0.5634      Z:    -1.0832     Total:     1.5929

*** Psi4 exiting successfully. Buy a developer a beer!
