                               Psi4 1.3.2 release

  ==> Input File <==

--------------------------------------------------------------------------
#psi4
#
memory 32 gb

molecule  {
0 1
  O        0.0647893     0.0494951     1.3990427
  C       -0.0043350     0.0007120    -0.0350430
  C       -1.2673899    -0.7227078    -0.4865549
  C        0.0313740     1.4194740    -0.5903490
  C        1.2353210    -0.7743910    -0.4444400
  H       -2.1615240    -0.1783290    -0.1422500
  H       -1.3194920    -0.8160620    -1.5626510
  H       -1.2956790    -1.7245230    -0.0333970
  H        0.9265560     1.9341530    -0.2323680
  H       -0.8479550     1.9843460    -0.2595770
  H        0.0373200     1.4182630    -1.6840320
  H        1.2123300    -1.7743220    -0.0041820
  H        1.2915660    -0.8677630    -1.5323580
  H        2.1312280    -0.2611390    -0.0865910
  H       -0.7295090     0.5361950     1.7029730
units angstrom
no_reorient  #important for SAPT in psi4, default
symmetry c1  #important for SAPT in psi4, default
}

set PROPERTIES_ORIGIN ["COM"]
properties('MP2/aug-cc-pvtz', properties = ['dipole'])
--------------------------------------------------------------------------

    Molecular point group: c1
  Charge       = 0
  Multiplicity = 1
  Basis Set: AUG-CC-PVTZ
    Blend: AUG-CC-PVTZ
  Basis Set: (AUG-CC-PVTZ AUX)
    Blend: AUG-CC-PVTZ-JKFIT

    Orbital Energies [Eh]
    ---------------------

    Doubly Occupied:

       1A    -20.552256     2A    -11.282958     3A    -11.215894
       4A    -11.214933     5A    -11.208390     6A     -1.353510
       7A     -1.066015     8A     -0.940729     9A     -0.938886
      10A     -0.767278    11A     -0.667689    12A     -0.624245
      13A     -0.621725    14A     -0.575239    15A     -0.556919
      16A     -0.529038    17A     -0.513962    18A     -0.510756
      19A     -0.502631    20A     -0.462389    21A     -0.433339

  @DF-RHF Final Energy:  -232.24655210201584

   => Energetics <=

    Nuclear Repulsion Energy =            199.8493880242307057
    One-Electron Energy =                -711.1143144254490380
    Two-Electron Energy =                 279.0183742992024918
    Total Energy =                       -232.2465521020158121
  Basis Set: (AUG-CC-PVTZ AUX)
    Blend: AUG-CC-PVTZ-RI
    Molecular point group: c1

    Geometry (in Angstrom), charge = 0, multiplicity = 1:

       Center              X                  Y                   Z               Mass
    ------------   -----------------  -----------------  -----------------  -----------------
         O            0.061888487291     0.047854857337     1.401250136746    15.994914619570
         C           -0.007235812709    -0.000928242663    -0.032835563254    12.000000000000
         C           -1.270290712709    -0.724348042663    -0.484347463254    12.000000000000
         C            0.028473187291     1.417833757337    -0.588141563254    12.000000000000
         C            1.232420187291    -0.776031242663    -0.442232563254    12.000000000000
         H           -2.164424812709    -0.179969242663    -0.140042563254     1.007825032230
         H           -1.322392812709    -0.817702242663    -1.560443563254     1.007825032230
         H           -1.298579812709    -1.726163242663    -0.031189563254     1.007825032230
         H            0.923655187291     1.932512757337    -0.230160563254     1.007825032230
         H           -0.850855812709     1.982705757337    -0.257369563254     1.007825032230
         H            0.034419187291     1.416622757337    -1.681824563254     1.007825032230
         H            1.209429187291    -1.775962242663    -0.001974563254     1.007825032230
         H            1.288665187291    -0.869403242663    -1.530150563254     1.007825032230
         H            2.128327187291    -0.262779242663    -0.084383563254     1.007825032230
         H           -0.732409812709     0.534554757337     1.705180436746     1.007825032230

  Basis Set: AUG-CC-PVTZ
    Blend: AUG-CC-PVTZ
  Basis Set: (AUG-CC-PVTZ AUX)
    Blend: AUG-CC-PVTZ-JKFIT
	 Reference Energy          =    -232.2465521020158405 [Eh]
	 Singles Energy            =      -0.0000000000000000 [Eh]
	 Same-Spin Energy          =      -0.2364350287424880 [Eh]
	 Opposite-Spin Energy      =      -0.8296776449098250 [Eh]
	 Correlation Energy        =      -1.0661126736523130 [Eh]
	 Total Energy              =    -233.3126647756681677 [Eh]

	 ================> DF-SCS-MP2 Energies <==================
	-----------------------------------------------------------
	 SCS Same-Spin Scale       =       0.3333333333333333 [-]
	 SCS Opposite-Spin Scale   =       1.2000000000000000 [-]
	 SCS Same-Spin Energy      =      -0.0788116762474960 [Eh]
	 SCS Opposite-Spin Energy  =      -0.9956131738917899 [Eh]
	 SCS Correlation Energy    =      -1.0744248501392859 [Eh]
	 SCS Total Energy          =    -233.3209769521551209 [Eh]
	-----------------------------------------------------------

  Dipole Moment: [D]
     X:    -1.0821      Y:     0.5631      Z:    -1.1013     Total:     1.6434

*** Psi4 exiting successfully. Buy a developer a beer!
