                               Psi4 1.3.2 release

  ==> Input File <==

--------------------------------------------------------------------------
#psi4
#
memory 32 gb

molecule  {
0 1
  O        0.0539140     0.0432960     1.3997230
  C        0.0599373    -0.0383447    -0.0345219
  C       -1.2708000    -0.7245700    -0.4738360
  C        0.0313740     1.4194740    -0.5903490
  C        1.2353210    -0.7743910    -0.4444400
  H       -2.1615240    -0.1783290    -0.1422500
  H       -1.3194920    -0.8160620    -1.5626510
  H       -1.2956790    -1.7245230    -0.0333970
  H        0.9265560     1.9341530    -0.2323680
  H       -0.8479550     1.9843460    -0.2595770
  H        0.0373200     1.4182630    -1.6840320
  H        1.2123300    -1.7743220    -0.0041820
  H        1.2915660    -0.8677630    -1.5323580
  H        2.1312280    -0.2611390    -0.0865910
  H       -0.7136925     0.5291847     1.7509408
units angstrom
no_reorient  #important for SAPT in psi4, default
symmetry c1  #important for SAPT in psi4, default
}

set PROPERTIES_ORIGIN ["COM"]
properties('MP2/aug-cc-pvtz', properties = ['dipole'])
--------------------------------------------------------------------------

    Molecular point group: c1
  Charge       = 0
  Multiplicity = 1
  Basis Set: AUG-CC-PVTZ
    Blend: AUG-CC-PVTZ
  Basis Set: (AUG-CC-PVTZ AUX)
    Blend: AUG-CC-PVTZ-JKFIT

    Orbital Energies [Eh]
    ---------------------

    Doubly Occupied:

       1A    -20.547321     2A    -11.284800     3A    -11.214681
       4A    -11.214668     5A    -11.208494     6A     -1.350028
       7A     -1.069239     8A     -0.945281     9A     -0.933536
      10A     -0.772254    11A     -0.666442    12A     -0.623770
      13A     -0.620514    14A     -0.572617    15A     -0.553611
      16A     -0.537196    17A     -0.515322    18A     -0.513257
      19A     -0.497837    20A     -0.469966    21A     -0.417199

  @DF-RHF Final Energy:  -232.24091362974056

   => Energetics <=

    Nuclear Repulsion Energy =            199.8109625429109144
    One-Electron Energy =                -711.0476859691633535
    Two-Electron Energy =                 278.9958097965118213
    Total Energy =                       -232.2409136297405894
  Basis Set: (AUG-CC-PVTZ AUX)
    Blend: AUG-CC-PVTZ-RI
    Molecular point group: c1

    Geometry (in Angstrom), charge = 0, multiplicity = 1:

       Center              X                  Y                   Z               Mass
    ------------   -----------------  -----------------  -----------------  -----------------
         O            0.043286540669     0.049718677714     1.398985989993    15.994914619570
         C            0.049309840669    -0.031922022286    -0.035258910007    12.000000000000
         C           -1.281427459331    -0.718147322286    -0.474573010007    12.000000000000
         C            0.020746540669     1.425896677714    -0.591086010007    12.000000000000
         C            1.224693540669    -0.767968322286    -0.445177010007    12.000000000000
         H           -2.172151459331    -0.171906322286    -0.142987010007     1.007825032230
         H           -1.330119459331    -0.809639322286    -1.563388010007     1.007825032230
         H           -1.306306459331    -1.718100322286    -0.034134010007     1.007825032230
         H            0.915928540669     1.940575677714    -0.233105010007     1.007825032230
         H           -0.858582459331     1.990768677714    -0.260314010007     1.007825032230
         H            0.026692540669     1.424685677714    -1.684769010007     1.007825032230
         H            1.201702540669    -1.767899322286    -0.004919010007     1.007825032230
         H            1.280938540669    -0.861340322286    -1.533095010007     1.007825032230
         H            2.120600540669    -0.254716322286    -0.087328010007     1.007825032230
         H           -0.724319959331     0.535607377714     1.750203789993     1.007825032230

  Basis Set: AUG-CC-PVTZ
    Blend: AUG-CC-PVTZ
  Basis Set: (AUG-CC-PVTZ AUX)
    Blend: AUG-CC-PVTZ-JKFIT
	 Reference Energy          =    -232.2409136297405610 [Eh]
	 Singles Energy            =      -0.0000000000000000 [Eh]
	 Same-Spin Energy          =      -0.2363478461659889 [Eh]
	 Opposite-Spin Energy      =      -0.8292888108050480 [Eh]
	 Correlation Energy        =      -1.0656366569710369 [Eh]
	 Total Energy              =    -233.3065502867115981 [Eh]

	 ================> DF-SCS-MP2 Energies <==================
	-----------------------------------------------------------
	 SCS Same-Spin Scale       =       0.3333333333333333 [-]
	 SCS Opposite-Spin Scale   =       1.2000000000000000 [-]
	 SCS Same-Spin Energy      =      -0.0787826153886630 [Eh]
	 SCS Opposite-Spin Energy  =      -0.9951465729660576 [Eh]
	 SCS Correlation Energy    =      -1.0739291883547206 [Eh]
	 SCS Total Energy          =    -233.3148428180952862 [Eh]
	-----------------------------------------------------------

  Dipole Moment: [D]
     X:    -0.9472      Y:     0.5195      Z:    -1.0433     Total:     1.5019

*** Psi4 exiting successfully. Buy a developer a beer!
