                               Psi4 1.3.2 release

  ==> Input File <==

--------------------------------------------------------------------------
#psi4
#
memory 32 gb

molecule  {
0 1
  O        0.0539140     0.0432960     1.3997230
  C       -0.0150363     0.0072357    -0.0347474
  C       -1.2708000    -0.7245700    -0.4738360
  C        0.0313740     1.4194740    -0.5903490
  C        1.2353210    -0.7743910    -0.4444400
  H       -2.1615240    -0.1783290    -0.1422500
  H       -1.3194920    -0.8160620    -1.5626510
  H       -1.2956790    -1.7245230    -0.0333970
  H        0.9265560     1.9341530    -0.2323680
  H       -0.8479550     1.9843460    -0.2595770
  H        0.0373200     1.4182630    -1.6840320
  H        1.2123300    -1.7743220    -0.0041820
  H        1.2915660    -0.8677630    -1.5323580
  H        2.1312280    -0.2611390    -0.0865910
  H       -0.7319374     0.5372325     1.6948940
units angstrom
no_reorient  #important for SAPT in psi4, default
symmetry c1  #important for SAPT in psi4, default
}

set PROPERTIES_ORIGIN ["COM"]
properties('MP2/aug-cc-pvtz', properties = ['dipole'])
--------------------------------------------------------------------------

    Molecular point group: c1
  Charge       = 0
  Multiplicity = 1
  Basis Set: AUG-CC-PVTZ
    Blend: AUG-CC-PVTZ
  Basis Set: (AUG-CC-PVTZ AUX)
    Blend: AUG-CC-PVTZ-JKFIT

    Orbital Energies [Eh]
    ---------------------

    Doubly Occupied:

       1A    -20.551594     2A    -11.282861     3A    -11.215508
       4A    -11.215493     5A    -11.208665     6A     -1.355037
       7A     -1.065938     8A     -0.942162     9A     -0.937750
      10A     -0.767365    11A     -0.668736    12A     -0.623992
      13A     -0.621596    14A     -0.576678    15A     -0.556599
      16A     -0.528669    17A     -0.515668    18A     -0.509386
      19A     -0.503513    20A     -0.459956    21A     -0.435574

  @DF-RHF Final Energy:  -232.24697227178069

   => Energetics <=

    Nuclear Repulsion Energy =            199.8902495591315187
    One-Electron Energy =                -711.1889597902427340
    Two-Electron Energy =                 279.0517379593305236
    Total Energy =                       -232.2469722717806917
  Basis Set: (AUG-CC-PVTZ AUX)
    Blend: AUG-CC-PVTZ-RI
    Molecular point group: c1

    Geometry (in Angstrom), charge = 0, multiplicity = 1:

       Center              X                  Y                   Z               Mass
    ------------   -----------------  -----------------  -----------------  -----------------
         O            0.055680649489     0.042225065490     1.399785083269    15.994914619570
         C           -0.013269650511     0.006164765490    -0.034685316731    12.000000000000
         C           -1.269033350511    -0.725640934510    -0.473773916731    12.000000000000
         C            0.033140649489     1.418403065490    -0.590286916731    12.000000000000
         C            1.237087649489    -0.775461934510    -0.444377916731    12.000000000000
         H           -2.159757350511    -0.179399934510    -0.142187916731     1.007825032230
         H           -1.317725350511    -0.817132934510    -1.562588916731     1.007825032230
         H           -1.293912350511    -1.725593934510    -0.033334916731     1.007825032230
         H            0.928322649489     1.933082065490    -0.232305916731     1.007825032230
         H           -0.846188350511     1.983275065490    -0.259514916731     1.007825032230
         H            0.039086649489     1.417192065490    -1.683969916731     1.007825032230
         H            1.214096649489    -1.775392934510    -0.004119916731     1.007825032230
         H            1.293332649489    -0.868833934510    -1.532295916731     1.007825032230
         H            2.132994649489    -0.262209934510    -0.086528916731     1.007825032230
         H           -0.730170750511     0.536161565490     1.694956083269     1.007825032230

  Basis Set: AUG-CC-PVTZ
    Blend: AUG-CC-PVTZ
  Basis Set: (AUG-CC-PVTZ AUX)
    Blend: AUG-CC-PVTZ-JKFIT
	 Reference Energy          =    -232.2469722717806917 [Eh]
	 Singles Energy            =      -0.0000000000000000 [Eh]
	 Same-Spin Energy          =      -0.2363722626857511 [Eh]
	 Opposite-Spin Energy      =      -0.8295291327355291 [Eh]
	 Correlation Energy        =      -1.0659013954212802 [Eh]
	 Total Energy              =    -233.3128736672019841 [Eh]

	 ================> DF-SCS-MP2 Energies <==================
	-----------------------------------------------------------
	 SCS Same-Spin Scale       =       0.3333333333333333 [-]
	 SCS Opposite-Spin Scale   =       1.2000000000000000 [-]
	 SCS Same-Spin Energy      =      -0.0787907542285837 [Eh]
	 SCS Opposite-Spin Energy  =      -0.9954349592826348 [Eh]
	 SCS Correlation Energy    =      -1.0742257135112185 [Eh]
	 SCS Total Energy          =    -233.3211979852919171 [Eh]
	-----------------------------------------------------------

  Dipole Moment: [D]
     X:    -1.0757      Y:     0.5939      Z:    -1.1115     Total:     1.6569

*** Psi4 exiting successfully. Buy a developer a beer!
