                               Psi4 1.3.2 release

  ==> Input File <==

--------------------------------------------------------------------------
#psi4
#
memory 32 gb

molecule  {
0 1
  O        0.0539140     0.0432960     1.3997230
  C        0.0037744     0.0066405     0.1647046
  C       -1.2708000    -0.7245700    -0.4738360
  C        0.0313740     1.4194740    -0.5903490
  C        1.2353210    -0.7743910    -0.4444400
  H       -2.1615240    -0.1783290    -0.1422500
  H       -1.3194920    -0.8160620    -1.5626510
  H       -1.2956790    -1.7245230    -0.0333970
  H        0.9265560     1.9341530    -0.2323680
  H       -0.8479550     1.9843460    -0.2595770
  H        0.0373200     1.4182630    -1.6840320
  H        1.2123300    -1.7743220    -0.0041820
  H        1.2915660    -0.8677630    -1.5323580
  H        2.1312280    -0.2611390    -0.0865910
  H       -0.7295090     0.5361950     1.7029730
units angstrom
no_reorient  #important for SAPT in psi4, default
symmetry c1  #important for SAPT in psi4, default
}

set PROPERTIES_ORIGIN ["COM"]
properties('MP2/aug-cc-pvtz', properties = ['dipole'])
--------------------------------------------------------------------------

    Molecular point group: c1
  Charge       = 0
  Multiplicity = 1
  Basis Set: AUG-CC-PVTZ
    Blend: AUG-CC-PVTZ
  Basis Set: (AUG-CC-PVTZ AUX)
    Blend: AUG-CC-PVTZ-JKFIT

    Orbital Energies [Eh]
    ---------------------

    Doubly Occupied:

       1A    -20.579414     2A    -11.288613     3A    -11.208855
       4A    -11.208840     5A    -11.205452     6A     -1.458399
       7A     -1.037895     8A     -0.927987     9A     -0.925487
      10A     -0.816394    11A     -0.692403    12A     -0.646530
      13A     -0.631271    14A     -0.567989    15A     -0.559539
      16A     -0.555969    17A     -0.524372    18A     -0.512576
      19A     -0.507734    20A     -0.419569    21A     -0.390741

  @DF-RHF Final Energy:  -232.20423632662693

   => Energetics <=

    Nuclear Repulsion Energy =            200.8303960601004690
    One-Electron Energy =                -712.7372132482950065
    Two-Electron Energy =                 279.7025808615675828
    Total Energy =                       -232.2042363266269263
  Basis Set: (AUG-CC-PVTZ AUX)
    Blend: AUG-CC-PVTZ-RI
    Molecular point group: c1

    Geometry (in Angstrom), charge = 0, multiplicity = 1:

       Center              X                  Y                   Z               Mass
    ------------   -----------------  -----------------  -----------------  -----------------
         O            0.052600238351     0.042335605096     1.367363541401    15.994914619570
         C            0.002460638351     0.005680105096     0.132345141401    12.000000000000
         C           -1.272113761649    -0.725530394904    -0.506195458599    12.000000000000
         C            0.030060238351     1.418513605096    -0.622708458599    12.000000000000
         C            1.234007238351    -0.775351394904    -0.476799458599    12.000000000000
         H           -2.162837761649    -0.179289394904    -0.174609458599     1.007825032230
         H           -1.320805761649    -0.817022394904    -1.595010458599     1.007825032230
         H           -1.296992761649    -1.725483394904    -0.065756458599     1.007825032230
         H            0.925242238351     1.933192605096    -0.264727458599     1.007825032230
         H           -0.849268761649     1.983385605096    -0.291936458599     1.007825032230
         H            0.036006238351     1.417302605096    -1.716391458599     1.007825032230
         H            1.211016238351    -1.775282394904    -0.036541458599     1.007825032230
         H            1.290252238351    -0.868723394904    -1.564717458599     1.007825032230
         H            2.129914238351    -0.262099394904    -0.118950458599     1.007825032230
         H           -0.730822761649     0.535234605096     1.670613541401     1.007825032230

  Basis Set: AUG-CC-PVTZ
    Blend: AUG-CC-PVTZ
  Basis Set: (AUG-CC-PVTZ AUX)
    Blend: AUG-CC-PVTZ-JKFIT
	 Reference Energy          =    -232.2042363266269263 [Eh]
	 Singles Energy            =      -0.0000000000000000 [Eh]
	 Same-Spin Energy          =      -0.2368456563784210 [Eh]
	 Opposite-Spin Energy      =      -0.8285176645550352 [Eh]
	 Correlation Energy        =      -1.0653633209334563 [Eh]
	 Total Energy              =    -233.2695996475603692 [Eh]

	 ================> DF-SCS-MP2 Energies <==================
	-----------------------------------------------------------
	 SCS Same-Spin Scale       =       0.3333333333333333 [-]
	 SCS Opposite-Spin Scale   =       1.2000000000000000 [-]
	 SCS Same-Spin Energy      =      -0.0789485521261403 [Eh]
	 SCS Opposite-Spin Energy  =      -0.9942211974660422 [Eh]
	 SCS Correlation Energy    =      -1.0731697495921826 [Eh]
	 SCS Total Energy          =    -233.2774060762191084 [Eh]
	-----------------------------------------------------------

  Dipole Moment: [D]
     X:    -1.0067      Y:     0.5963      Z:    -0.2982     Total:     1.2074

*** Psi4 exiting successfully. Buy a developer a beer!
