                               Psi4 1.4a3.dev225

  ==> Input File <==

--------------------------------------------------------------------------
#psi4
#
memory 32 gb

molecule  {
0 1
  O        0.0030180    -0.0000010     1.4483040
  C       -0.0049463     0.0000000    -0.0412763
  C        0.6894330     1.2579440    -0.5049070
  C        0.6894570    -1.2579310    -0.5049090
  C       -1.4786030    -0.0000130    -0.3634740
  H        1.7418680     1.2680120    -0.1979930
  H        0.6575680     1.3120800    -1.5976100
  H        0.2018510     2.1450640    -0.0921250
  H        0.2018920    -2.1450590    -0.0921260
  H        1.7418930    -1.2679790    -0.1979980
  H        0.6575890    -1.3120660    -1.5976120
  H       -1.9662980     0.8865690     0.0501550
  H       -1.6044380    -0.0000110    -1.4500690
  H       -1.9662790    -0.8866080     0.0501500
  H        0.9365660     0.0000010     1.7262020
units angstrom
no_reorient  #important for SAPT in psi4, default
symmetry c1  #important for SAPT in psi4, default
}

set PROPERTIES_ORIGIN ["COM"]
properties('MP2/aug-cc-pvtz', properties = ['dipole'])
--------------------------------------------------------------------------

    Molecular point group: c1
  Charge       = 0
  Multiplicity = 1
  Basis Set: AUG-CC-PVTZ
    Blend: AUG-CC-PVTZ
  Basis Set: (AUG-CC-PVTZ AUX)
    Blend: AUG-CC-PVTZ-JKFIT

    Orbital Energies [Eh]
    ---------------------

    Doubly Occupied:

       1A    -20.543642     2A    -11.284710     3A    -11.217438
       4A    -11.217423     5A    -11.210368     6A     -1.333901
       7A     -1.071997     8A     -0.944847     9A     -0.941977
      10A     -0.760803    11A     -0.663253    12A     -0.622922
      13A     -0.619874    14A     -0.577207    15A     -0.556100
      16A     -0.528016    17A     -0.517588    18A     -0.502584
      19A     -0.495937    20A     -0.469671    21A     -0.437899

  @DF-RHF Final Energy:  -232.24398278800504

   => Energetics <=

    Nuclear Repulsion Energy =            199.4675950113015972
    One-Electron Energy =                -710.3868423361584519
    Two-Electron Energy =                 278.6752645368518415
    Total Energy =                       -232.2439827880050416
  Basis Set: (AUG-CC-PVTZ AUX)
    Blend: AUG-CC-PVTZ-RI
    Molecular point group: c1

    Geometry (in Angstrom), charge = 0, multiplicity = 1:

       Center              X                  Y                   Z               Mass
    ------------   -----------------  -----------------  -----------------  -----------------
         O            0.011127746895    -0.000000824883     1.410974965425    15.994914619570
         C            0.003163446895     0.000000175117    -0.078605334575    12.000000000000
         C            0.697542746895     1.257944175117    -0.542236034575    12.000000000000
         C            0.697566746895    -1.257930824883    -0.542238034575    12.000000000000
         C           -1.470493253105    -0.000012824883    -0.400803034575    12.000000000000
         H            1.749977746895     1.268012175117    -0.235322034575     1.007825032230
         H            0.665677746895     1.312080175117    -1.634939034575     1.007825032230
         H            0.209960746895     2.145064175117    -0.129454034575     1.007825032230
         H            0.210001746895    -2.145058824883    -0.129455034575     1.007825032230
         H            1.750002746895    -1.267978824883    -0.235327034575     1.007825032230
         H            0.665698746895    -1.312065824883    -1.634941034575     1.007825032230
         H           -1.958188253105     0.886569175117     0.012825965425     1.007825032230
         H           -1.596328253105    -0.000010824883    -1.487398034575     1.007825032230
         H           -1.958169253105    -0.886607824883     0.012820965425     1.007825032230
         H            0.944675746895     0.000001175117     1.688872965425     1.007825032230

  Basis Set: AUG-CC-PVTZ
    Blend: AUG-CC-PVTZ
  Basis Set: (AUG-CC-PVTZ AUX)
    Blend: AUG-CC-PVTZ-JKFIT
	 Reference Energy          =    -232.2439827880050416 [Eh]
	 Singles Energy            =      -0.0000000000000000 [Eh]
	 Same-Spin Energy          =      -0.2366322155184196 [Eh]
	 Opposite-Spin Energy      =      -0.8305103816445898 [Eh]
	 Correlation Energy        =      -1.0671425971630093 [Eh]
	 Total Energy              =    -233.3111253851680544 [Eh]

	 ================> DF-SCS-MP2 Energies <==================
	-----------------------------------------------------------
	 SCS Same-Spin Scale       =       0.3333333333333333 [-]
	 SCS Opposite-Spin Scale   =       1.2000000000000000 [-]
	 SCS Same-Spin Energy      =      -0.0788774051728065 [Eh]
	 SCS Opposite-Spin Energy  =      -0.9966124579735077 [Eh]
	 SCS Correlation Energy    =      -1.0754898631463143 [Eh]
	 SCS Total Energy          =    -233.3194726511513579 [Eh]
	-----------------------------------------------------------

  Dipole Moment: [D]
     X:     1.1771      Y:     0.0000      Z:    -1.3116     Total:     1.7623

*** Psi4 exiting successfully. Buy a developer a beer!
