                               Psi4 1.4a3.dev225

  ==> Input File <==

--------------------------------------------------------------------------
#psi4
#
memory 32 gb

molecule  {
0 1
  O        0.0030180    -0.0000010     1.4483040
  C       -0.0044117    -0.0000000     0.0587223
  C        0.6894330     1.2579440    -0.5049070
  C        0.6894570    -1.2579310    -0.5049090
  C       -1.4786030    -0.0000130    -0.3634740
  H        1.7418680     1.2680120    -0.1979930
  H        0.6575680     1.3120800    -1.5976100
  H        0.2018510     2.1450640    -0.0921250
  H        0.2018920    -2.1450590    -0.0921260
  H        1.7418930    -1.2679790    -0.1979980
  H        0.6575890    -1.3120660    -1.5976120
  H       -1.9662980     0.8865690     0.0501550
  H       -1.6044380    -0.0000110    -1.4500690
  H       -1.9662790    -0.8866080     0.0501500
  H        0.9365660     0.0000010     1.7262020
units angstrom
no_reorient  #important for SAPT in psi4, default
symmetry c1  #important for SAPT in psi4, default
}

set PROPERTIES_ORIGIN ["COM"]
properties('MP2/aug-cc-pvtz', properties = ['dipole'])
--------------------------------------------------------------------------

    Molecular point group: c1
  Charge       = 0
  Multiplicity = 1
  Basis Set: AUG-CC-PVTZ
    Blend: AUG-CC-PVTZ
  Basis Set: (AUG-CC-PVTZ AUX)
    Blend: AUG-CC-PVTZ-JKFIT

    Orbital Energies [Eh]
    ---------------------

    Doubly Occupied:

       1A    -20.557927     2A    -11.283793     3A    -11.214343
       4A    -11.214329     5A    -11.208083     6A     -1.374661
       7A     -1.058397     8A     -0.936759     9A     -0.935628
      10A     -0.776117    11A     -0.672593    12A     -0.624017
      13A     -0.623542    14A     -0.574160    15A     -0.556159
      16A     -0.534224    17A     -0.518491    18A     -0.513964
      19A     -0.504343    20A     -0.453507    21A     -0.425740

  @DF-RHF Final Energy:  -232.24588078857781

   => Energetics <=

    Nuclear Repulsion Energy =            199.8543659396335386
    One-Electron Energy =                -711.0789421035382247
    Two-Electron Energy =                 278.9786953753268222
    Total Energy =                       -232.2458807885778356
  Basis Set: (AUG-CC-PVTZ AUX)
    Blend: AUG-CC-PVTZ-RI
    Molecular point group: c1

    Geometry (in Angstrom), charge = 0, multiplicity = 1:

       Center              X                  Y                   Z               Mass
    ------------   -----------------  -----------------  -----------------  -----------------
         O            0.011041140632    -0.000000824883     1.394774993398    15.994914619570
         C            0.003611440632     0.000000175117     0.005193293398    12.000000000000
         C            0.697456140632     1.257944175117    -0.558436006602    12.000000000000
         C            0.697480140632    -1.257930824883    -0.558438006602    12.000000000000
         C           -1.470579859368    -0.000012824883    -0.417003006602    12.000000000000
         H            1.749891140632     1.268012175117    -0.251522006602     1.007825032230
         H            0.665591140632     1.312080175117    -1.651139006602     1.007825032230
         H            0.209874140632     2.145064175117    -0.145654006602     1.007825032230
         H            0.209915140632    -2.145058824883    -0.145655006602     1.007825032230
         H            1.749916140632    -1.267978824883    -0.251527006602     1.007825032230
         H            0.665612140632    -1.312065824883    -1.651141006602     1.007825032230
         H           -1.958274859368     0.886569175117    -0.003374006602     1.007825032230
         H           -1.596414859368    -0.000010824883    -1.503598006602     1.007825032230
         H           -1.958255859368    -0.886607824883    -0.003379006602     1.007825032230
         H            0.944589140632     0.000001175117     1.672672993398     1.007825032230

  Basis Set: AUG-CC-PVTZ
    Blend: AUG-CC-PVTZ
  Basis Set: (AUG-CC-PVTZ AUX)
    Blend: AUG-CC-PVTZ-JKFIT
	 Reference Energy          =    -232.2458807885778072 [Eh]
	 Singles Energy            =      -0.0000000000000000 [Eh]
	 Same-Spin Energy          =      -0.2360826237082569 [Eh]
	 Opposite-Spin Energy      =      -0.8287185346631949 [Eh]
	 Correlation Energy        =      -1.0648011583714518 [Eh]
	 Total Energy              =    -233.3106819469492450 [Eh]

	 ================> DF-SCS-MP2 Energies <==================
	-----------------------------------------------------------
	 SCS Same-Spin Scale       =       0.3333333333333333 [-]
	 SCS Opposite-Spin Scale   =       1.2000000000000000 [-]
	 SCS Same-Spin Energy      =      -0.0786942079027523 [Eh]
	 SCS Opposite-Spin Energy  =      -0.9944622415958339 [Eh]
	 SCS Correlation Energy    =      -1.0731564494985861 [Eh]
	 SCS Total Energy          =    -233.3190372380763904 [Eh]
	-----------------------------------------------------------

  Dipole Moment: [D]
     X:     1.1819      Y:     0.0000      Z:    -0.9659     Total:     1.5264

*** Psi4 exiting successfully. Buy a developer a beer!
