                               Psi4 1.3.2 release

  ==> Input File <==

--------------------------------------------------------------------------
#psi4
#
memory 32 gb

molecule  {
0 1
  O        0.0539140     0.0432960     1.3997230
  C        0.0385063    -0.0253454    -0.0351327
  C       -1.2708000    -0.7245700    -0.4738360
  C        0.0313740     1.4194740    -0.5903490
  C        1.2353210    -0.7743910    -0.4444400
  H       -2.1615240    -0.1783290    -0.1422500
  H       -1.3194920    -0.8160620    -1.5626510
  H       -1.2956790    -1.7245230    -0.0333970
  H        0.9265560     1.9341530    -0.2323680
  H       -0.8479550     1.9843460    -0.2595770
  H        0.0373200     1.4182630    -1.6840320
  H        1.2123300    -1.7743220    -0.0041820
  H        1.2915660    -0.8677630    -1.5323580
  H        2.1312280    -0.2611390    -0.0865910
  H       -0.7192007     0.5316705     1.7350521
units angstrom
no_reorient  #important for SAPT in psi4, default
symmetry c1  #important for SAPT in psi4, default
}

set PROPERTIES_ORIGIN ["COM"]
properties('MP2/aug-cc-pvtz', properties = ['dipole'])
--------------------------------------------------------------------------

    Molecular point group: c1
  Charge       = 0
  Multiplicity = 1
  Basis Set: AUG-CC-PVTZ
    Blend: AUG-CC-PVTZ
  Basis Set: (AUG-CC-PVTZ AUX)
    Blend: AUG-CC-PVTZ-JKFIT

    Orbital Energies [Eh]
    ---------------------

    Doubly Occupied:

       1A    -20.548509     2A    -11.284022     3A    -11.214863
       4A    -11.214850     5A    -11.208624     6A     -1.351361
       7A     -1.067567     8A     -0.943444     9A     -0.935953
      10A     -0.770853    11A     -0.666809    12A     -0.622889
      13A     -0.621542    14A     -0.573654    15A     -0.554463
      16A     -0.534121    17A     -0.515334    18A     -0.511109
      19A     -0.499452    20A     -0.469487    21A     -0.422783

  @DF-RHF Final Energy:  -232.24476592863283

   => Energetics <=

    Nuclear Repulsion Energy =            199.8308763347942261
    One-Electron Energy =                -711.0879097264337361
    Two-Electron Energy =                 279.0122674630067081
    Total Energy =                       -232.2447659286328303
  Basis Set: (AUG-CC-PVTZ AUX)
    Blend: AUG-CC-PVTZ-RI
    Molecular point group: c1

    Geometry (in Angstrom), charge = 0, multiplicity = 1:

       Center              X                  Y                   Z               Mass
    ------------   -----------------  -----------------  -----------------  -----------------
         O            0.046833348775     0.047578943958     1.399301119360    15.994914619570
         C            0.031425648775    -0.021062456042    -0.035554580640    12.000000000000
         C           -1.277880651225    -0.720287056042    -0.474257880640    12.000000000000
         C            0.024293348775     1.423756943958    -0.590770880640    12.000000000000
         C            1.228240348775    -0.770108056042    -0.444861880640    12.000000000000
         H           -2.168604651225    -0.174046056042    -0.142671880640     1.007825032230
         H           -1.326572651225    -0.811779056042    -1.563072880640     1.007825032230
         H           -1.302759651225    -1.720240056042    -0.033818880640     1.007825032230
         H            0.919475348775     1.938435943958    -0.232789880640     1.007825032230
         H           -0.855035651225     1.988628943958    -0.259998880640     1.007825032230
         H            0.030239348775     1.422545943958    -1.684453880640     1.007825032230
         H            1.205249348775    -1.770039056042    -0.004603880640     1.007825032230
         H            1.284485348775    -0.863480056042    -1.532779880640     1.007825032230
         H            2.124147348775    -0.256856056042    -0.087012880640     1.007825032230
         H           -0.726281351225     0.535953443958     1.734630219360     1.007825032230

  Basis Set: AUG-CC-PVTZ
    Blend: AUG-CC-PVTZ
  Basis Set: (AUG-CC-PVTZ AUX)
    Blend: AUG-CC-PVTZ-JKFIT
	 Reference Energy          =    -232.2447659286328303 [Eh]
	 Singles Energy            =      -0.0000000000000000 [Eh]
	 Same-Spin Energy          =      -0.2362648912198900 [Eh]
	 Opposite-Spin Energy      =      -0.8292024469532369 [Eh]
	 Correlation Energy        =      -1.0654673381731268 [Eh]
	 Total Energy              =    -233.3102332668059660 [Eh]

	 ================> DF-SCS-MP2 Energies <==================
	-----------------------------------------------------------
	 SCS Same-Spin Scale       =       0.3333333333333333 [-]
	 SCS Opposite-Spin Scale   =       1.2000000000000000 [-]
	 SCS Same-Spin Energy      =      -0.0787549637399633 [Eh]
	 SCS Opposite-Spin Energy  =      -0.9950429363438842 [Eh]
	 SCS Correlation Energy    =      -1.0737979000838476 [Eh]
	 SCS Total Energy          =    -233.3185638287166910 [Eh]
	-----------------------------------------------------------

  Dipole Moment: [D]
     X:    -0.9859      Y:     0.5419      Z:    -1.0636     Total:     1.5482

*** Psi4 exiting successfully. Buy a developer a beer!
