                               Psi4 1.3.2 release

  ==> Input File <==

--------------------------------------------------------------------------
#psi4
#
memory 32 gb

molecule  {
0 1
  O        0.0539140     0.0432960     1.3997230
  C       -0.0043350     0.0007120    -0.0350430
  C       -1.2708000    -0.7245700    -0.4738360
  C        0.0313740     1.4194740    -0.5903490
  C        1.2353210    -0.7743910    -0.4444400
  H       -2.1615240    -0.1783290    -0.1422500
  H       -1.3194920    -0.8160620    -1.5626510
  H       -1.2956790    -1.7245230    -0.0333970
  H        0.9265560     1.9341530    -0.2323680
  H       -0.8479550     1.9843460    -0.2595770
  H        0.0373200     1.4182630    -1.6840320
  H        1.2123300    -1.7743220    -0.0041820
  H        1.2915660    -0.8677630    -1.5323580
  H        2.1312280    -0.2611390    -0.0865910
  H       -0.6490748     0.4855890     1.6718383
units angstrom
no_reorient  #important for SAPT in psi4, default
symmetry c1  #important for SAPT in psi4, default
}

set PROPERTIES_ORIGIN ["COM"]
properties('MP2/aug-cc-pvtz', properties = ['dipole'])
--------------------------------------------------------------------------

    Molecular point group: c1
  Charge       = 0
  Multiplicity = 1
  Basis Set: AUG-CC-PVTZ
    Blend: AUG-CC-PVTZ
  Basis Set: (AUG-CC-PVTZ AUX)
    Blend: AUG-CC-PVTZ-JKFIT

    Orbital Energies [Eh]
    ---------------------

    Doubly Occupied:

       1A    -20.540620     2A    -11.283883     3A    -11.215973
       4A    -11.215959     5A    -11.208738     6A     -1.379194
       7A     -1.071885     8A     -0.941578     9A     -0.939687
      10A     -0.781017    11A     -0.680209    12A     -0.624577
      13A     -0.622793    14A     -0.579790    15A     -0.557031
      16A     -0.531716    17A     -0.515964    18A     -0.511616
      19A     -0.504100    20A     -0.464801    21A     -0.435278

  @DF-RHF Final Energy:  -232.24261715485071

   => Energetics <=

    Nuclear Repulsion Energy =            200.5128565713572186
    One-Electron Energy =                -712.2981286614611918
    Two-Electron Energy =                 279.5426549352532106
    Total Energy =                       -232.2426171548507341
  Basis Set: (AUG-CC-PVTZ AUX)
    Blend: AUG-CC-PVTZ-RI
    Molecular point group: c1

    Geometry (in Angstrom), charge = 0, multiplicity = 1:

       Center              X                  Y                   Z               Mass
    ------------   -----------------  -----------------  -----------------  -----------------
         O            0.052819605241     0.043984569248     1.400146662413    15.994914619570
         C           -0.005429394759     0.001400569248    -0.034619337587    12.000000000000
         C           -1.271894394759    -0.723881430752    -0.473412337587    12.000000000000
         C            0.030279605241     1.420162569248    -0.589925337587    12.000000000000
         C            1.234226605241    -0.773702430752    -0.444016337587    12.000000000000
         H           -2.162618394759    -0.177640430752    -0.141826337587     1.007825032230
         H           -1.320586394759    -0.815373430752    -1.562227337587     1.007825032230
         H           -1.296773394759    -1.723834430752    -0.032973337587     1.007825032230
         H            0.925461605241     1.934841569248    -0.231944337587     1.007825032230
         H           -0.849049394759     1.985034569248    -0.259153337587     1.007825032230
         H            0.036225605241     1.418951569248    -1.683608337587     1.007825032230
         H            1.211235605241    -1.773633430752    -0.003758337587     1.007825032230
         H            1.290471605241    -0.867074430752    -1.531934337587     1.007825032230
         H            2.130133605241    -0.260450430752    -0.086167337587     1.007825032230
         H           -0.650169194759     0.486277569248     1.672261962413     1.007825032230

  Basis Set: AUG-CC-PVTZ
    Blend: AUG-CC-PVTZ
  Basis Set: (AUG-CC-PVTZ AUX)
    Blend: AUG-CC-PVTZ-JKFIT
	 Reference Energy          =    -232.2426171548507057 [Eh]
	 Singles Energy            =      -0.0000000000000000 [Eh]
	 Same-Spin Energy          =      -0.2350625769079000 [Eh]
	 Opposite-Spin Energy      =      -0.8263495631983362 [Eh]
	 Correlation Energy        =      -1.0614121401062362 [Eh]
	 Total Energy              =    -233.3040292949569334 [Eh]

	 ================> DF-SCS-MP2 Energies <==================
	-----------------------------------------------------------
	 SCS Same-Spin Scale       =       0.3333333333333333 [-]
	 SCS Opposite-Spin Scale   =       1.2000000000000000 [-]
	 SCS Same-Spin Energy      =      -0.0783541923026333 [Eh]
	 SCS Opposite-Spin Energy  =      -0.9916194758380034 [Eh]
	 SCS Correlation Energy    =      -1.0699736681406367 [Eh]
	 SCS Total Energy          =    -233.3125908229913534 [Eh]
	-----------------------------------------------------------

  Dipole Moment: [D]
     X:    -1.0224      Y:     0.5598      Z:    -1.1425     Total:     1.6322

*** Psi4 exiting successfully. Buy a developer a beer!
