                               Psi4 1.4a3.dev225

  ==> Input File <==

--------------------------------------------------------------------------
#psi4
#
memory 32 gb

molecule  {
0 1
  O        0.0030180    -0.0000010     1.4483040
  C       -0.0047859     0.0000000    -0.0112767
  C        0.6894330     1.2579440    -0.5049070
  C        0.6894570    -1.2579310    -0.5049090
  C       -1.4786030    -0.0000130    -0.3634740
  H        1.7418680     1.2680120    -0.1979930
  H        0.6575680     1.3120800    -1.5976100
  H        0.2018510     2.1450640    -0.0921250
  H        0.2018920    -2.1450590    -0.0921260
  H        1.7418930    -1.2679790    -0.1979980
  H        0.6575890    -1.3120660    -1.5976120
  H       -1.9662980     0.8865690     0.0501550
  H       -1.6044380    -0.0000110    -1.4500690
  H       -1.9662790    -0.8866080     0.0501500
  H        0.9365660     0.0000010     1.7262020
units angstrom
no_reorient  #important for SAPT in psi4, default
symmetry c1  #important for SAPT in psi4, default
}

set PROPERTIES_ORIGIN ["COM"]
properties('MP2/aug-cc-pvtz', properties = ['dipole'])
--------------------------------------------------------------------------

    Molecular point group: c1
  Charge       = 0
  Multiplicity = 1
  Basis Set: AUG-CC-PVTZ
    Blend: AUG-CC-PVTZ
  Basis Set: (AUG-CC-PVTZ AUX)
    Blend: AUG-CC-PVTZ-JKFIT

    Orbital Energies [Eh]
    ---------------------

    Doubly Occupied:

       1A    -20.548074     2A    -11.284054     3A    -11.216473
       4A    -11.216459     5A    -11.209582     6A     -1.345228
       7A     -1.067976     8A     -0.942371     9A     -0.940007
      10A     -0.764543    11A     -0.665896    12A     -0.622881
      13A     -0.620508    14A     -0.576452    15A     -0.556071
      16A     -0.528719    17A     -0.516475    18A     -0.503753
      19A     -0.502457    20A     -0.465812    21A     -0.435543

  @DF-RHF Final Energy:  -232.24642209248748

   => Energetics <=

    Nuclear Repulsion Energy =            199.5791132012606965
    One-Electron Energy =                -710.5924000577552988
    Two-Electron Energy =                 278.7668647640070958
    Total Energy =                       -232.2464220924874780
  Basis Set: (AUG-CC-PVTZ AUX)
    Blend: AUG-CC-PVTZ-RI
    Molecular point group: c1

    Geometry (in Angstrom), charge = 0, multiplicity = 1:

       Center              X                  Y                   Z               Mass
    ------------   -----------------  -----------------  -----------------  -----------------
         O            0.011101761776    -0.000000824883     1.406114970577    15.994914619570
         C            0.003297861776     0.000000175117    -0.053465729423    12.000000000000
         C            0.697516761776     1.257944175117    -0.547096029423    12.000000000000
         C            0.697540761776    -1.257930824883    -0.547098029423    12.000000000000
         C           -1.470519238224    -0.000012824883    -0.405663029423    12.000000000000
         H            1.749951761776     1.268012175117    -0.240182029423     1.007825032230
         H            0.665651761776     1.312080175117    -1.639799029423     1.007825032230
         H            0.209934761776     2.145064175117    -0.134314029423     1.007825032230
         H            0.209975761776    -2.145058824883    -0.134315029423     1.007825032230
         H            1.749976761776    -1.267978824883    -0.240187029423     1.007825032230
         H            0.665672761776    -1.312065824883    -1.639801029423     1.007825032230
         H           -1.958214238224     0.886569175117     0.007965970577     1.007825032230
         H           -1.596354238224    -0.000010824883    -1.492258029423     1.007825032230
         H           -1.958195238224    -0.886607824883     0.007960970577     1.007825032230
         H            0.944649761776     0.000001175117     1.684012970577     1.007825032230

  Basis Set: AUG-CC-PVTZ
    Blend: AUG-CC-PVTZ
  Basis Set: (AUG-CC-PVTZ AUX)
    Blend: AUG-CC-PVTZ-JKFIT
	 Reference Energy          =    -232.2464220924874780 [Eh]
	 Singles Energy            =      -0.0000000000000000 [Eh]
	 Same-Spin Energy          =      -0.2363933787499583 [Eh]
	 Opposite-Spin Energy      =      -0.8298560179581436 [Eh]
	 Correlation Energy        =      -1.0662493967081019 [Eh]
	 Total Energy              =    -233.3126714891955658 [Eh]

	 ================> DF-SCS-MP2 Energies <==================
	-----------------------------------------------------------
	 SCS Same-Spin Scale       =       0.3333333333333333 [-]
	 SCS Opposite-Spin Scale   =       1.2000000000000000 [-]
	 SCS Same-Spin Energy      =      -0.0787977929166528 [Eh]
	 SCS Opposite-Spin Energy  =      -0.9958272215497722 [Eh]
	 SCS Correlation Energy    =      -1.0746250144664249 [Eh]
	 SCS Total Energy          =    -233.3210471069538983 [Eh]
	-----------------------------------------------------------

  Dipole Moment: [D]
     X:     1.1796      Y:     0.0000      Z:    -1.2111     Total:     1.6906

*** Psi4 exiting successfully. Buy a developer a beer!
