                               Psi4 1.3.2 release

  ==> Input File <==

--------------------------------------------------------------------------
#psi4
#
memory 32 gb

molecule  {
0 1
  O        0.0539140     0.0432960     1.3997230
  C       -0.0083897    -0.0022523    -0.1349168
  C       -1.2708000    -0.7245700    -0.4738360
  C        0.0313740     1.4194740    -0.5903490
  C        1.2353210    -0.7743910    -0.4444400
  H       -2.1615240    -0.1783290    -0.1422500
  H       -1.3194920    -0.8160620    -1.5626510
  H       -1.2956790    -1.7245230    -0.0333970
  H        0.9265560     1.9341530    -0.2323680
  H       -0.8479550     1.9843460    -0.2595770
  H        0.0373200     1.4182630    -1.6840320
  H        1.2123300    -1.7743220    -0.0041820
  H        1.2915660    -0.8677630    -1.5323580
  H        2.1312280    -0.2611390    -0.0865910
  H       -0.7295090     0.5361950     1.7029730
units angstrom
no_reorient  #important for SAPT in psi4, default
symmetry c1  #important for SAPT in psi4, default
}

set PROPERTIES_ORIGIN ["COM"]
properties('MP2/aug-cc-pvtz', properties = ['dipole'])
--------------------------------------------------------------------------

    Molecular point group: c1
  Charge       = 0
  Multiplicity = 1
  Basis Set: AUG-CC-PVTZ
    Blend: AUG-CC-PVTZ
  Basis Set: (AUG-CC-PVTZ AUX)
    Blend: AUG-CC-PVTZ-JKFIT

    Orbital Energies [Eh]
    ---------------------

    Doubly Occupied:

       1A    -20.535901     2A    -11.285687     3A    -11.218657
       4A    -11.218641     5A    -11.211470     6A     -1.317340
       7A     -1.079343     8A     -0.949264     9A     -0.945669
      10A     -0.756439    11A     -0.659812    12A     -0.623850
      13A     -0.620234    14A     -0.578250    15A     -0.556404
      16A     -0.527644    17A     -0.519300    18A     -0.504212
      19A     -0.487275    20A     -0.470230    21A     -0.439105

  @DF-RHF Final Energy:  -232.23712061263416

   => Energetics <=

    Nuclear Repulsion Energy =            199.5081629316508440
    One-Electron Energy =                -710.4811138371815105
    Two-Electron Energy =                 278.7358302928964804
    Total Energy =                       -232.2371206126341576
  Basis Set: (AUG-CC-PVTZ AUX)
    Blend: AUG-CC-PVTZ-RI
    Molecular point group: c1

    Geometry (in Angstrom), charge = 0, multiplicity = 1:

       Center              X                  Y                   Z               Mass
    ------------   -----------------  -----------------  -----------------  -----------------
         O            0.054570846737     0.043776256378     1.415902803937    15.994914619570
         C           -0.007732853263    -0.001772043622    -0.118736996063    12.000000000000
         C           -1.270143153263    -0.724089743622    -0.457656196063    12.000000000000
         C            0.032030846737     1.419954256378    -0.574169196063    12.000000000000
         C            1.235977846737    -0.773910743622    -0.428260196063    12.000000000000
         H           -2.160867153263    -0.177848743622    -0.126070196063     1.007825032230
         H           -1.318835153263    -0.815581743622    -1.546471196063     1.007825032230
         H           -1.295022153263    -1.724042743622    -0.017217196063     1.007825032230
         H            0.927212846737     1.934633256378    -0.216188196063     1.007825032230
         H           -0.847298153263     1.984826256378    -0.243397196063     1.007825032230
         H            0.037976846737     1.418743256378    -1.667852196063     1.007825032230
         H            1.212986846737    -1.773841743622     0.011997803937     1.007825032230
         H            1.292222846737    -0.867282743622    -1.516178196063     1.007825032230
         H            2.131884846737    -0.260658743622    -0.070411196063     1.007825032230
         H           -0.728852153263     0.536675256378     1.719152803937     1.007825032230

  Basis Set: AUG-CC-PVTZ
    Blend: AUG-CC-PVTZ
  Basis Set: (AUG-CC-PVTZ AUX)
    Blend: AUG-CC-PVTZ-JKFIT
	 Reference Energy          =    -232.2371206126341576 [Eh]
	 Singles Energy            =      -0.0000000000000000 [Eh]
	 Same-Spin Energy          =      -0.2371983383707442 [Eh]
	 Opposite-Spin Energy      =      -0.8317049063601935 [Eh]
	 Correlation Energy        =      -1.0689032447309377 [Eh]
	 Total Energy              =    -233.3060238573650906 [Eh]

	 ================> DF-SCS-MP2 Energies <==================
	-----------------------------------------------------------
	 SCS Same-Spin Scale       =       0.3333333333333333 [-]
	 SCS Opposite-Spin Scale   =       1.2000000000000000 [-]
	 SCS Same-Spin Energy      =      -0.0790661127902481 [Eh]
	 SCS Opposite-Spin Energy  =      -0.9980458876322321 [Eh]
	 SCS Correlation Energy    =      -1.0771120004224801 [Eh]
	 SCS Total Energy          =    -233.3142326130566460 [Eh]
	-----------------------------------------------------------

  Dipole Moment: [D]
     X:    -1.0654      Y:     0.5700      Z:    -1.4359     Total:     1.8766

*** Psi4 exiting successfully. Buy a developer a beer!
