                               Psi4 1.3.2 release

  ==> Input File <==

--------------------------------------------------------------------------
#psi4
#
memory 32 gb

molecule  {
0 1
  O       -0.0114019     0.0060500     1.4015089
  C       -0.0043350     0.0007120    -0.0350430
  C       -1.2892266    -0.7345789    -0.3968548
  C        0.0313740     1.4194740    -0.5903490
  C        1.2353210    -0.7743910    -0.4444400
  H       -2.1615240    -0.1783290    -0.1422500
  H       -1.3194920    -0.8160620    -1.5626510
  H       -1.2956790    -1.7245230    -0.0333970
  H        0.9265560     1.9341530    -0.2323680
  H       -0.8479550     1.9843460    -0.2595770
  H        0.0373200     1.4182630    -1.6840320
  H        1.2123300    -1.7743220    -0.0041820
  H        1.2915660    -0.8677630    -1.5323580
  H        2.1312280    -0.2611390    -0.0865910
  H       -0.7295090     0.5361950     1.7029730
units angstrom
no_reorient  #important for SAPT in psi4, default
symmetry c1  #important for SAPT in psi4, default
}

set PROPERTIES_ORIGIN ["COM"]
properties('MP2/aug-cc-pvtz', properties = ['dipole'])
--------------------------------------------------------------------------

    Molecular point group: c1
  Charge       = 0
  Multiplicity = 1
  Basis Set: AUG-CC-PVTZ
    Blend: AUG-CC-PVTZ
  Basis Set: (AUG-CC-PVTZ AUX)
    Blend: AUG-CC-PVTZ-JKFIT

    Orbital Energies [Eh]
    ---------------------

    Doubly Occupied:

       1A    -20.543977     2A    -11.283855     3A    -11.217989
       4A    -11.213562     5A    -11.210662     6A     -1.359431
       7A     -1.066331     8A     -0.942658     9A     -0.939831
      10A     -0.773526    11A     -0.672235    12A     -0.625852
      13A     -0.619069    14A     -0.581700    15A     -0.551916
      16A     -0.532756    17A     -0.524636    18A     -0.506418
      19A     -0.495498    20A     -0.464338    21A     -0.428355

  @DF-RHF Final Energy:  -232.24101258762596

   => Energetics <=

    Nuclear Repulsion Energy =            200.0940163254921345
    One-Electron Energy =                -711.5608692930846928
    Two-Electron Energy =                 279.2258403799665984
    Total Energy =                       -232.2410125876259599
  Basis Set: (AUG-CC-PVTZ AUX)
    Blend: AUG-CC-PVTZ-RI
    Molecular point group: c1

    Geometry (in Angstrom), charge = 0, multiplicity = 1:

       Center              X                  Y                   Z               Mass
    ------------   -----------------  -----------------  -----------------  -----------------
         O            0.005687146506     0.015714173258     1.388652205771    15.994914619570
         C            0.012754046506     0.010376173258    -0.047899694229    12.000000000000
         C           -1.272137553494    -0.724914726742    -0.409711494229    12.000000000000
         C            0.048463046506     1.429138173258    -0.603205694229    12.000000000000
         C            1.252410046506    -0.764726826742    -0.457296694229    12.000000000000
         H           -2.144434953494    -0.168664826742    -0.155106694229     1.007825032230
         H           -1.302402953494    -0.806397826742    -1.575507694229     1.007825032230
         H           -1.278589953494    -1.714858826742    -0.046253694229     1.007825032230
         H            0.943645046506     1.943817173258    -0.245224694229     1.007825032230
         H           -0.830865953494     1.994010173258    -0.272433694229     1.007825032230
         H            0.054409046506     1.427927173258    -1.696888694229     1.007825032230
         H            1.229419046506    -1.764657826742    -0.017038694229     1.007825032230
         H            1.308655046506    -0.858098826742    -1.545214694229     1.007825032230
         H            2.148317046506    -0.251474826742    -0.099447694229     1.007825032230
         H           -0.712419953494     0.545859173258     1.690116305771     1.007825032230

  Basis Set: AUG-CC-PVTZ
    Blend: AUG-CC-PVTZ
  Basis Set: (AUG-CC-PVTZ AUX)
    Blend: AUG-CC-PVTZ-JKFIT
	 Reference Energy          =    -232.2410125876259599 [Eh]
	 Singles Energy            =      -0.0000000000000000 [Eh]
	 Same-Spin Energy          =      -0.2358674367557470 [Eh]
	 Opposite-Spin Energy      =      -0.8284371560514096 [Eh]
	 Correlation Energy        =      -1.0643045928071566 [Eh]
	 Total Energy              =    -233.3053171804331214 [Eh]

	 ================> DF-SCS-MP2 Energies <==================
	-----------------------------------------------------------
	 SCS Same-Spin Scale       =       0.3333333333333333 [-]
	 SCS Opposite-Spin Scale   =       1.2000000000000000 [-]
	 SCS Same-Spin Energy      =      -0.0786224789185823 [Eh]
	 SCS Opposite-Spin Energy  =      -0.9941245872616914 [Eh]
	 SCS Correlation Energy    =      -1.0727470661802738 [Eh]
	 SCS Total Energy          =    -233.3137596538062439 [Eh]
	-----------------------------------------------------------

  Dipole Moment: [D]
     X:    -0.8949      Y:     0.7199      Z:    -1.0772     Total:     1.5747

*** Psi4 exiting successfully. Buy a developer a beer!
