                               Psi4 1.3.2 release

  ==> Input File <==

--------------------------------------------------------------------------
#psi4
#
memory 32 gb

molecule  {
0 1
  O        0.0539140     0.0432960     1.3997230
  C       -0.0043350     0.0007120    -0.0350430
  C       -1.2708000    -0.7245700    -0.4738360
  C        0.0313740     1.4194740    -0.5903490
  C        1.2353210    -0.7743910    -0.4444400
  H       -2.1615240    -0.1783290    -0.1422500
  H       -1.3194920    -0.8160620    -1.5626510
  H       -1.2956790    -1.7245230    -0.0333970
  H        0.9265560     1.9341530    -0.2323680
  H       -0.8479550     1.9843460    -0.2595770
  H        0.0373200     1.4182630    -1.6840320
  H        1.2123300    -1.7743220    -0.0041820
  H        1.2915660    -0.8677630    -1.5323580
  H        2.1312280    -0.2611390    -0.0865910
  H       -0.7295090     0.5361950     1.7029730
units angstrom
no_reorient  #important for SAPT in psi4, default
symmetry c1  #important for SAPT in psi4, default
}

set PROPERTIES_ORIGIN ["COM"]
properties('MP2/aug-cc-pvtz', properties = ['dipole'])
--------------------------------------------------------------------------

    Molecular point group: c1
  Charge       = 0
  Multiplicity = 1
  Basis Set: AUG-CC-PVTZ
    Blend: AUG-CC-PVTZ
  Basis Set: (AUG-CC-PVTZ AUX)
    Blend: AUG-CC-PVTZ-JKFIT

    Orbital Energies [Eh]
    ---------------------

    Doubly Occupied:

       1A    -20.550963     2A    -11.282997     3A    -11.215353
       4A    -11.215338     5A    -11.208694     6A     -1.354259
       7A     -1.066002     8A     -0.940902     9A     -0.938990
      10A     -0.768057    11A     -0.668247    12A     -0.623518
      13A     -0.621752    14A     -0.576034    15A     -0.556170
      16A     -0.529570    17A     -0.515540    18A     -0.509232
      19A     -0.502725    20A     -0.462794    21A     -0.433156

  @DF-RHF Final Energy:  -232.24734922748553

   => Energetics <=

    Nuclear Repulsion Energy =            199.8775598981788448
    One-Electron Energy =                -711.1692347525897731
    Two-Electron Energy =                 279.0443256269253993
    Total Energy =                       -232.2473492274855289
  Basis Set: (AUG-CC-PVTZ AUX)
    Blend: AUG-CC-PVTZ-RI
    Molecular point group: c1

    Geometry (in Angstrom), charge = 0, multiplicity = 1:

       Center              X                  Y                   Z               Mass
    ------------   -----------------  -----------------  -----------------  -----------------
         O            0.053913977275     0.043296033884     1.399723049758    15.994914619570
         C           -0.004335022725     0.000712033884    -0.035042950242    12.000000000000
         C           -1.270800022725    -0.724569966116    -0.473835950242    12.000000000000
         C            0.031373977275     1.419474033884    -0.590348950242    12.000000000000
         C            1.235320977275    -0.774390966116    -0.444439950242    12.000000000000
         H           -2.161524022725    -0.178328966116    -0.142249950242     1.007825032230
         H           -1.319492022725    -0.816061966116    -1.562650950242     1.007825032230
         H           -1.295679022725    -1.724522966116    -0.033396950242     1.007825032230
         H            0.926555977275     1.934153033884    -0.232367950242     1.007825032230
         H           -0.847955022725     1.984346033884    -0.259576950242     1.007825032230
         H            0.037319977275     1.418263033884    -1.684031950242     1.007825032230
         H            1.212329977275    -1.774321966116    -0.004181950242     1.007825032230
         H            1.291565977275    -0.867762966116    -1.532357950242     1.007825032230
         H            2.131227977275    -0.261138966116    -0.086590950242     1.007825032230
         H           -0.729509022725     0.536195033884     1.702973049758     1.007825032230

  Basis Set: AUG-CC-PVTZ
    Blend: AUG-CC-PVTZ
  Basis Set: (AUG-CC-PVTZ AUX)
    Blend: AUG-CC-PVTZ-JKFIT
	 Reference Energy          =    -232.2473492274855289 [Eh]
	 Singles Energy            =      -0.0000000000000000 [Eh]
	 Same-Spin Energy          =      -0.2363155843155304 [Eh]
	 Opposite-Spin Energy      =      -0.8294027759874708 [Eh]
	 Correlation Energy        =      -1.0657183603030012 [Eh]
	 Total Energy              =    -233.3130675877885380 [Eh]

	 ================> DF-SCS-MP2 Energies <==================
	-----------------------------------------------------------
	 SCS Same-Spin Scale       =       0.3333333333333333 [-]
	 SCS Opposite-Spin Scale   =       1.2000000000000000 [-]
	 SCS Same-Spin Energy      =      -0.0787718614385101 [Eh]
	 SCS Opposite-Spin Energy  =      -0.9952833311849649 [Eh]
	 SCS Correlation Energy    =      -1.0740551926234752 [Eh]
	 SCS Total Energy          =    -233.3214044201089905 [Eh]
	-----------------------------------------------------------

  Dipole Moment: [D]
     X:    -1.0584      Y:     0.5839      Z:    -1.1023     Total:     1.6359

*** Psi4 exiting successfully. Buy a developer a beer!
