                               Psi4 1.4a3.dev225

  ==> Input File <==

--------------------------------------------------------------------------
#psi4
#
memory 32 gb

molecule  {
0 1
  O        0.0030180    -0.0000010     1.4483040
  C       -0.0046790     0.0000000     0.0087230
  C        0.6894330     1.2579440    -0.5049070
  C        0.6894570    -1.2579310    -0.5049090
  C       -1.4786030    -0.0000130    -0.3634740
  H        1.7418680     1.2680120    -0.1979930
  H        0.6575680     1.3120800    -1.5976100
  H        0.2018510     2.1450640    -0.0921250
  H        0.2018920    -2.1450590    -0.0921260
  H        1.7418930    -1.2679790    -0.1979980
  H        0.6575890    -1.3120660    -1.5976120
  H       -1.9662980     0.8865690     0.0501550
  H       -1.6044380    -0.0000110    -1.4500690
  H       -1.9662790    -0.8866080     0.0501500
  H        0.9173973     0.0000010     1.7204959
units angstrom
no_reorient  #important for SAPT in psi4, default
symmetry c1  #important for SAPT in psi4, default
}

set PROPERTIES_ORIGIN ["COM"]
properties('MP2/aug-cc-pvtz', properties = ['dipole'])
--------------------------------------------------------------------------

    Molecular point group: c1
  Charge       = 0
  Multiplicity = 1
  Basis Set: AUG-CC-PVTZ
    Blend: AUG-CC-PVTZ
  Basis Set: (AUG-CC-PVTZ AUX)
    Blend: AUG-CC-PVTZ-JKFIT

    Orbital Energies [Eh]
    ---------------------

    Doubly Occupied:

       1A    -20.549018     2A    -11.283957     3A    -11.215972
       4A    -11.215957     5A    -11.209097     6A     -1.357524
       7A     -1.066335     8A     -0.940877     9A     -0.938847
      10A     -0.769690    11A     -0.670264    12A     -0.623151
      13A     -0.621383    14A     -0.576682    15A     -0.556245
      16A     -0.530031    17A     -0.515825    18A     -0.509243
      19A     -0.502963    20A     -0.463071    21A     -0.433703

  @DF-RHF Final Energy:  -232.24813193183962

   => Energetics <=

    Nuclear Repulsion Energy =            199.7736517562768768
    One-Electron Energy =                -710.9438957385069671
    Two-Electron Energy =                 278.9221120503904672
    Total Energy =                       -232.2481319318396231
  Basis Set: (AUG-CC-PVTZ AUX)
    Blend: AUG-CC-PVTZ-RI
    Molecular point group: c1

    Geometry (in Angstrom), charge = 0, multiplicity = 1:

       Center              X                  Y                   Z               Mass
    ------------   -----------------  -----------------  -----------------  -----------------
         O            0.011345249356    -0.000000824883     1.402952615495    15.994914619570
         C            0.003648249356     0.000000175117    -0.036628384505    12.000000000000
         C            0.697760249356     1.257944175117    -0.550258384505    12.000000000000
         C            0.697784249356    -1.257930824883    -0.550260384505    12.000000000000
         C           -1.470275750644    -0.000012824883    -0.408825384505    12.000000000000
         H            1.750195249356     1.268012175117    -0.243344384505     1.007825032230
         H            0.665895249356     1.312080175117    -1.642961384505     1.007825032230
         H            0.210178249356     2.145064175117    -0.137476384505     1.007825032230
         H            0.210219249356    -2.145058824883    -0.137477384505     1.007825032230
         H            1.750220249356    -1.267978824883    -0.243349384505     1.007825032230
         H            0.665916249356    -1.312065824883    -1.642963384505     1.007825032230
         H           -1.957970750644     0.886569175117     0.004803615495     1.007825032230
         H           -1.596110750644    -0.000010824883    -1.495420384505     1.007825032230
         H           -1.957951750644    -0.886607824883     0.004798615495     1.007825032230
         H            0.925724549356     0.000001175117     1.675144515495     1.007825032230

  Basis Set: AUG-CC-PVTZ
    Blend: AUG-CC-PVTZ
  Basis Set: (AUG-CC-PVTZ AUX)
    Blend: AUG-CC-PVTZ-JKFIT
	 Reference Energy          =    -232.2481319318396231 [Eh]
	 Singles Energy            =      -0.0000000000000000 [Eh]
	 Same-Spin Energy          =      -0.2360190943896505 [Eh]
	 Opposite-Spin Energy      =      -0.8288365037591046 [Eh]
	 Correlation Energy        =      -1.0648555981487551 [Eh]
	 Total Energy              =    -233.3129875299883906 [Eh]

	 ================> DF-SCS-MP2 Energies <==================
	-----------------------------------------------------------
	 SCS Same-Spin Scale       =       0.3333333333333333 [-]
	 SCS Opposite-Spin Scale   =       1.2000000000000000 [-]
	 SCS Same-Spin Energy      =      -0.0786730314632168 [Eh]
	 SCS Opposite-Spin Energy  =      -0.9946038045109254 [Eh]
	 SCS Correlation Energy    =      -1.0732768359741423 [Eh]
	 SCS Total Energy          =    -233.3214087678137787 [Eh]
	-----------------------------------------------------------

  Dipole Moment: [D]
     X:     1.1726      Y:     0.0000      Z:    -1.1497     Total:     1.6422

*** Psi4 exiting successfully. Buy a developer a beer!
