                               Psi4 1.3.2 release

  ==> Input File <==

--------------------------------------------------------------------------
#psi4
#
memory 32 gb

molecule  {
0 1
  O        0.0321509     0.0308886     1.4007557
  C       -0.0043350     0.0007120    -0.0350430
  C       -1.2773306    -0.7281286    -0.4482989
  C        0.0313740     1.4194740    -0.5903490
  C        1.2353210    -0.7743910    -0.4444400
  H       -2.1615240    -0.1783290    -0.1422500
  H       -1.3194920    -0.8160620    -1.5626510
  H       -1.2956790    -1.7245230    -0.0333970
  H        0.9265560     1.9341530    -0.2323680
  H       -0.8479550     1.9843460    -0.2595770
  H        0.0373200     1.4182630    -1.6840320
  H        1.2123300    -1.7743220    -0.0041820
  H        1.2915660    -0.8677630    -1.5323580
  H        2.1312280    -0.2611390    -0.0865910
  H       -0.7295090     0.5361950     1.7029730
units angstrom
no_reorient  #important for SAPT in psi4, default
symmetry c1  #important for SAPT in psi4, default
}

set PROPERTIES_ORIGIN ["COM"]
properties('MP2/aug-cc-pvtz', properties = ['dipole'])
--------------------------------------------------------------------------

    Molecular point group: c1
  Charge       = 0
  Multiplicity = 1
  Basis Set: AUG-CC-PVTZ
    Blend: AUG-CC-PVTZ
  Basis Set: (AUG-CC-PVTZ AUX)
    Blend: AUG-CC-PVTZ-JKFIT

    Orbital Energies [Eh]
    ---------------------

    Doubly Occupied:

       1A    -20.548475     2A    -11.283168     3A    -11.216196
       4A    -11.214456     5A    -11.209323     6A     -1.355853
       7A     -1.066036     8A     -0.941364     9A     -0.939222
      10A     -0.769747    11A     -0.669479    12A     -0.623756
      13A     -0.620651    14A     -0.577787    15A     -0.554628
      16A     -0.530640    17A     -0.518743    18A     -0.506874
      19A     -0.501873    20A     -0.463435    21A     -0.432344

  @DF-RHF Final Energy:  -232.24728969876151

   => Energetics <=

    Nuclear Repulsion Energy =            199.9408550893925565
    One-Electron Energy =                -711.2881875827500835
    Two-Electron Energy =                 279.1000427945959927
    Total Energy =                       -232.2472896987615059
  Basis Set: (AUG-CC-PVTZ AUX)
    Blend: AUG-CC-PVTZ-RI
    Molecular point group: c1

    Geometry (in Angstrom), charge = 0, multiplicity = 1:

       Center              X                  Y                   Z               Mass
    ------------   -----------------  -----------------  -----------------  -----------------
         O            0.037908240643     0.034144313641     1.396395693744    15.994914619570
         C            0.001422340643     0.003967713641    -0.039403006256    12.000000000000
         C           -1.271573259357    -0.724872886359    -0.452658906256    12.000000000000
         C            0.037131340643     1.422729713641    -0.594709006256    12.000000000000
         C            1.241078340643    -0.771135286359    -0.448800006256    12.000000000000
         H           -2.155766659357    -0.175073286359    -0.146610006256     1.007825032230
         H           -1.313734659357    -0.812806286359    -1.567011006256     1.007825032230
         H           -1.289921659357    -1.721267286359    -0.037757006256     1.007825032230
         H            0.932313340643     1.937408713641    -0.236728006256     1.007825032230
         H           -0.842197659357     1.987601713641    -0.263937006256     1.007825032230
         H            0.043077340643     1.421518713641    -1.688392006256     1.007825032230
         H            1.218087340643    -1.771066286359    -0.008542006256     1.007825032230
         H            1.297323340643    -0.864507286359    -1.536718006256     1.007825032230
         H            2.136985340643    -0.257883286359    -0.090951006256     1.007825032230
         H           -0.723751659357     0.539450713641     1.698612993744     1.007825032230

  Basis Set: AUG-CC-PVTZ
    Blend: AUG-CC-PVTZ
  Basis Set: (AUG-CC-PVTZ AUX)
    Blend: AUG-CC-PVTZ-JKFIT
	 Reference Energy          =    -232.2472896987615059 [Eh]
	 Singles Energy            =      -0.0000000000000000 [Eh]
	 Same-Spin Energy          =      -0.2361147648628968 [Eh]
	 Opposite-Spin Energy      =      -0.8289513329168520 [Eh]
	 Correlation Energy        =      -1.0650660977797488 [Eh]
	 Total Energy              =    -233.3123557965412544 [Eh]

	 ================> DF-SCS-MP2 Energies <==================
	-----------------------------------------------------------
	 SCS Same-Spin Scale       =       0.3333333333333333 [-]
	 SCS Opposite-Spin Scale   =       1.2000000000000000 [-]
	 SCS Same-Spin Energy      =      -0.0787049216209656 [Eh]
	 SCS Opposite-Spin Energy  =      -0.9947415995002223 [Eh]
	 SCS Correlation Energy    =      -1.0734465211211879 [Eh]
	 SCS Total Energy          =    -233.3207362198826900 [Eh]
	-----------------------------------------------------------

  Dipole Moment: [D]
     X:    -1.0080      Y:     0.6271      Z:    -1.1002     Total:     1.6185

*** Psi4 exiting successfully. Buy a developer a beer!
