                               Psi4 1.4a3.dev225

  ==> Input File <==

--------------------------------------------------------------------------
#psi4
#
memory 32 gb

molecule  {
0 1
  O        0.0030180    -0.0000010     1.4483040
  C       -0.0046790     0.0000000     0.0087230
  C        0.6894330     1.2579440    -0.5049070
  C        0.6894570    -1.2579310    -0.5049090
  C       -1.4786030    -0.0000130    -0.3634740
  H        1.7418680     1.2680120    -0.1979930
  H        0.6575680     1.3120800    -1.5976100
  H        0.2018510     2.1450640    -0.0921250
  H        0.2018920    -2.1450590    -0.0921260
  H        1.7418930    -1.2679790    -0.1979980
  H        0.6575890    -1.3120660    -1.5976120
  H       -1.9662980     0.8865690     0.0501550
  H       -1.6044380    -0.0000110    -1.4500690
  H       -1.9662790    -0.8866080     0.0501500
  H        0.9557347     0.0000010     1.7319081
units angstrom
no_reorient  #important for SAPT in psi4, default
symmetry c1  #important for SAPT in psi4, default
}

set PROPERTIES_ORIGIN ["COM"]
properties('MP2/aug-cc-pvtz', properties = ['dipole'])
--------------------------------------------------------------------------

    Molecular point group: c1
  Charge       = 0
  Multiplicity = 1
  Basis Set: AUG-CC-PVTZ
    Blend: AUG-CC-PVTZ
  Basis Set: (AUG-CC-PVTZ AUX)
    Blend: AUG-CC-PVTZ-JKFIT

    Orbital Energies [Eh]
    ---------------------

    Doubly Occupied:

       1A    -20.552802     2A    -11.283648     3A    -11.215737
       4A    -11.215722     5A    -11.209133     6A     -1.349129
       7A     -1.064247     8A     -0.940615     9A     -0.938607
      10A     -0.765319    11A     -0.665168    12A     -0.622758
      13A     -0.621027    14A     -0.575021    15A     -0.555926
      16A     -0.529060    17A     -0.515672    18A     -0.508355
      19A     -0.502490    20A     -0.462213    21A     -0.432957

  @DF-RHF Final Energy:  -232.24558277593690

   => Energetics <=

    Nuclear Repulsion Energy =            199.5402461882700607
    One-Electron Energy =                -710.5204441943401434
    Two-Electron Energy =                 278.7346152301331585
    Total Energy =                       -232.2455827759368958
  Basis Set: (AUG-CC-PVTZ AUX)
    Blend: AUG-CC-PVTZ-RI
    Molecular point group: c1

    Geometry (in Angstrom), charge = 0, multiplicity = 1:

       Center              X                  Y                   Z               Mass
    ------------   -----------------  -----------------  -----------------  -----------------
         O            0.010823638170    -0.000000824883     1.402797343328    15.994914619570
         C            0.003126638170     0.000000175117    -0.036783656672    12.000000000000
         C            0.697238638170     1.257944175117    -0.550413656672    12.000000000000
         C            0.697262638170    -1.257930824883    -0.550415656672    12.000000000000
         C           -1.470797361830    -0.000012824883    -0.408980656672    12.000000000000
         H            1.749673638170     1.268012175117    -0.243499656672     1.007825032230
         H            0.665373638170     1.312080175117    -1.643116656672     1.007825032230
         H            0.209656638170     2.145064175117    -0.137631656672     1.007825032230
         H            0.209697638170    -2.145058824883    -0.137632656672     1.007825032230
         H            1.749698638170    -1.267978824883    -0.243504656672     1.007825032230
         H            0.665394638170    -1.312065824883    -1.643118656672     1.007825032230
         H           -1.958492361830     0.886569175117     0.004648343328     1.007825032230
         H           -1.596632361830    -0.000010824883    -1.495575656672     1.007825032230
         H           -1.958473361830    -0.886607824883     0.004643343328     1.007825032230
         H            0.963540338170     0.000001175117     1.686401443328     1.007825032230

  Basis Set: AUG-CC-PVTZ
    Blend: AUG-CC-PVTZ
  Basis Set: (AUG-CC-PVTZ AUX)
    Blend: AUG-CC-PVTZ-JKFIT
	 Reference Energy          =    -232.2455827759368958 [Eh]
	 Singles Energy            =      -0.0000000000000000 [Eh]
	 Same-Spin Energy          =      -0.2365140700130054 [Eh]
	 Opposite-Spin Energy      =      -0.8301186769005708 [Eh]
	 Correlation Energy        =      -1.0666327469135761 [Eh]
	 Total Energy              =    -233.3122155228504653 [Eh]

	 ================> DF-SCS-MP2 Energies <==================
	-----------------------------------------------------------
	 SCS Same-Spin Scale       =       0.3333333333333333 [-]
	 SCS Opposite-Spin Scale   =       1.2000000000000000 [-]
	 SCS Same-Spin Energy      =      -0.0788380233376685 [Eh]
	 SCS Opposite-Spin Energy  =      -0.9961424122806850 [Eh]
	 SCS Correlation Energy    =      -1.0749804356183534 [Eh]
	 SCS Total Energy          =    -233.3205632115552532 [Eh]
	-----------------------------------------------------------

  Dipole Moment: [D]
     X:     1.1886      Y:     0.0000      Z:    -1.1364     Total:     1.6444

*** Psi4 exiting successfully. Buy a developer a beer!
