                               Psi4 1.4a3.dev225

  ==> Input File <==

--------------------------------------------------------------------------
#psi4
#
memory 32 gb

molecule  {
0 1
  O        0.0030180    -0.0000010     1.4483040
  C       -0.0046790     0.0000000     0.0087230
  C        0.6894330     1.2579440    -0.5049070
  C        0.6894570    -1.2579310    -0.5049090
  C       -1.4786030    -0.0000130    -0.3634740
  H        1.7418680     1.2680120    -0.1979930
  H        0.6575680     1.3120800    -1.5976100
  H        0.2018510     2.1450640    -0.0921250
  H        0.2018920    -2.1450590    -0.0921260
  H        1.7418930    -1.2679790    -0.1979980
  H        0.6575890    -1.3120660    -1.5976120
  H       -1.9662980     0.8865690     0.0501550
  H       -1.6044380    -0.0000110    -1.4500690
  H       -1.9662790    -0.8866080     0.0501500
  H        0.8886442     0.0000009     1.7119367
units angstrom
no_reorient  #important for SAPT in psi4, default
symmetry c1  #important for SAPT in psi4, default
}

set PROPERTIES_ORIGIN ["COM"]
properties('MP2/aug-cc-pvtz', properties = ['dipole'])
--------------------------------------------------------------------------

    Molecular point group: c1
  Charge       = 0
  Multiplicity = 1
  Basis Set: AUG-CC-PVTZ
    Blend: AUG-CC-PVTZ
  Basis Set: (AUG-CC-PVTZ AUX)
    Blend: AUG-CC-PVTZ-JKFIT

    Orbital Energies [Eh]
    ---------------------

    Doubly Occupied:

       1A    -20.545992     2A    -11.284212     3A    -11.216155
       4A    -11.216140     5A    -11.209099     6A     -1.364629
       7A     -1.068033     8A     -0.941077     9A     -0.939046
      10A     -0.773363    11A     -0.673970    12A     -0.623461
      13A     -0.621680    14A     -0.577846    15A     -0.556496
      16A     -0.530703    17A     -0.515948    18A     -0.509939
      19A     -0.503358    20A     -0.463679    21A     -0.434317

  @DF-RHF Final Energy:  -232.24796650173460

   => Energetics <=

    Nuclear Repulsion Energy =            199.9589094665961397
    One-Electron Energy =                -711.2754670778678019
    Two-Electron Energy =                 279.0685911095370670
    Total Energy =                       -232.2479665017345951
  Basis Set: (AUG-CC-PVTZ AUX)
    Blend: AUG-CC-PVTZ-RI
    Molecular point group: c1

    Geometry (in Angstrom), charge = 0, multiplicity = 1:

       Center              X                  Y                   Z               Mass
    ------------   -----------------  -----------------  -----------------  -----------------
         O            0.011736458426    -0.000000823523     1.403069070301    15.994914619570
         C            0.004039458426     0.000000176477    -0.036511929699    12.000000000000
         C            0.698151458426     1.257944176477    -0.550141929699    12.000000000000
         C            0.698175458426    -1.257930823523    -0.550143929699    12.000000000000
         C           -1.469884541574    -0.000012823523    -0.408708929699    12.000000000000
         H            1.750586458426     1.268012176477    -0.243227929699     1.007825032230
         H            0.666286458426     1.312080176477    -1.642844929699     1.007825032230
         H            0.210569458426     2.145064176477    -0.137359929699     1.007825032230
         H            0.210610458426    -2.145058823523    -0.137360929699     1.007825032230
         H            1.750611458426    -1.267978823523    -0.243232929699     1.007825032230
         H            0.666307458426    -1.312065823523    -1.642846929699     1.007825032230
         H           -1.957579541574     0.886569176477     0.004920070301     1.007825032230
         H           -1.595719541574    -0.000010823523    -1.495303929699     1.007825032230
         H           -1.957560541574    -0.886607823523     0.004915070301     1.007825032230
         H            0.897362658426     0.000001076477     1.666701770301     1.007825032230

  Basis Set: AUG-CC-PVTZ
    Blend: AUG-CC-PVTZ
  Basis Set: (AUG-CC-PVTZ AUX)
    Blend: AUG-CC-PVTZ-JKFIT
	 Reference Energy          =    -232.2479665017345951 [Eh]
	 Singles Energy            =      -0.0000000000000000 [Eh]
	 Same-Spin Energy          =      -0.2356425845176222 [Eh]
	 Opposite-Spin Energy      =      -0.8279049345036660 [Eh]
	 Correlation Energy        =      -1.0635475190212882 [Eh]
	 Total Energy              =    -233.3115140207558795 [Eh]

	 ================> DF-SCS-MP2 Energies <==================
	-----------------------------------------------------------
	 SCS Same-Spin Scale       =       0.3333333333333333 [-]
	 SCS Opposite-Spin Scale   =       1.2000000000000000 [-]
	 SCS Same-Spin Energy      =      -0.0785475281725407 [Eh]
	 SCS Opposite-Spin Energy  =      -0.9934859214043992 [Eh]
	 SCS Correlation Energy    =      -1.0720334495769399 [Eh]
	 SCS Total Energy          =    -233.3199999513115301 [Eh]
	-----------------------------------------------------------

  Dipole Moment: [D]
     X:     1.1597      Y:     0.0000      Z:    -1.1609     Total:     1.6409

*** Psi4 exiting successfully. Buy a developer a beer!
