                               Psi4 1.3.2 release

  ==> Input File <==

--------------------------------------------------------------------------
#psi4
#
memory 32 gb

molecule  {
0 1
  O        0.0539140     0.0432960     1.3997230
  C       -0.0124444    -0.0052165    -0.2347906
  C       -1.2708000    -0.7245700    -0.4738360
  C        0.0313740     1.4194740    -0.5903490
  C        1.2353210    -0.7743910    -0.4444400
  H       -2.1615240    -0.1783290    -0.1422500
  H       -1.3194920    -0.8160620    -1.5626510
  H       -1.2956790    -1.7245230    -0.0333970
  H        0.9265560     1.9341530    -0.2323680
  H       -0.8479550     1.9843460    -0.2595770
  H        0.0373200     1.4182630    -1.6840320
  H        1.2123300    -1.7743220    -0.0041820
  H        1.2915660    -0.8677630    -1.5323580
  H        2.1312280    -0.2611390    -0.0865910
  H       -0.7295090     0.5361950     1.7029730
units angstrom
no_reorient  #important for SAPT in psi4, default
symmetry c1  #important for SAPT in psi4, default
}

set PROPERTIES_ORIGIN ["COM"]
properties('MP2/aug-cc-pvtz', properties = ['dipole'])
--------------------------------------------------------------------------

    Molecular point group: c1
  Charge       = 0
  Multiplicity = 1
  Basis Set: AUG-CC-PVTZ
    Blend: AUG-CC-PVTZ
  Basis Set: (AUG-CC-PVTZ AUX)
    Blend: AUG-CC-PVTZ-JKFIT

    Orbital Energies [Eh]
    ---------------------

    Doubly Occupied:

       1A    -20.518404     2A    -11.291964     3A    -11.222758
       4A    -11.222741     5A    -11.215467     6A     -1.286324
       7A     -1.091906     8A     -0.958116     9A     -0.952827
      10A     -0.751242    11A     -0.653347    12A     -0.625989
      13A     -0.622679    14A     -0.578348    15A     -0.558291
      16A     -0.529518    17A     -0.523482    18A     -0.510709
      19A     -0.489946    20A     -0.443029    21A     -0.432831

  @DF-RHF Final Energy:  -232.21373063909772

   => Energetics <=

    Nuclear Repulsion Energy =            199.1312568243841952
    One-Electron Energy =                -709.7301351105909362
    Two-Electron Energy =                 278.3851476471090223
    Total Energy =                       -232.2137306390977187
  Basis Set: (AUG-CC-PVTZ AUX)
    Blend: AUG-CC-PVTZ-RI
    Molecular point group: c1

    Geometry (in Angstrom), charge = 0, multiplicity = 1:

       Center              X                  Y                   Z               Mass
    ------------   -----------------  -----------------  -----------------  -----------------
         O            0.055227716199     0.044256462671     1.432082558116    15.994914619570
         C           -0.011130683801    -0.004256037329    -0.202431041884    12.000000000000
         C           -1.269486283801    -0.723609537329    -0.441476441884    12.000000000000
         C            0.032687716199     1.420434462671    -0.557989441884    12.000000000000
         C            1.236634716199    -0.773430537329    -0.412080441884    12.000000000000
         H           -2.160210283801    -0.177368537329    -0.109890441884     1.007825032230
         H           -1.318178283801    -0.815101537329    -1.530291441884     1.007825032230
         H           -1.294365283801    -1.723562537329    -0.001037441884     1.007825032230
         H            0.927869716199     1.935113462671    -0.200008441884     1.007825032230
         H           -0.846641283801     1.985306462671    -0.227217441884     1.007825032230
         H            0.038633716199     1.419223462671    -1.651672441884     1.007825032230
         H            1.213643716199    -1.773361537329     0.028177558116     1.007825032230
         H            1.292879716199    -0.866802537329    -1.499998441884     1.007825032230
         H            2.132541716199    -0.260178537329    -0.054231441884     1.007825032230
         H           -0.728195283801     0.537155462671     1.735332558116     1.007825032230

  Basis Set: AUG-CC-PVTZ
    Blend: AUG-CC-PVTZ
  Basis Set: (AUG-CC-PVTZ AUX)
    Blend: AUG-CC-PVTZ-JKFIT
	 Reference Energy          =    -232.2137306390977187 [Eh]
	 Singles Energy            =      -0.0000000000000000 [Eh]
	 Same-Spin Energy          =      -0.2385932519923488 [Eh]
	 Opposite-Spin Energy      =      -0.8346801698011646 [Eh]
	 Correlation Energy        =      -1.0732734217935134 [Eh]
	 Total Energy              =    -233.2870040608912348 [Eh]

	 ================> DF-SCS-MP2 Energies <==================
	-----------------------------------------------------------
	 SCS Same-Spin Scale       =       0.3333333333333333 [-]
	 SCS Opposite-Spin Scale   =       1.2000000000000000 [-]
	 SCS Same-Spin Energy      =      -0.0795310839974496 [Eh]
	 SCS Opposite-Spin Energy  =      -1.0016162037613974 [Eh]
	 SCS Correlation Energy    =      -1.0811472877588471 [Eh]
	 SCS Total Energy          =    -233.2948779268565715 [Eh]
	-----------------------------------------------------------

  Dipole Moment: [D]
     X:    -1.0657      Y:     0.5523      Z:    -1.7629     Total:     2.1328

*** Psi4 exiting successfully. Buy a developer a beer!
