                               Psi4 1.3.2 release

  ==> Input File <==

--------------------------------------------------------------------------
#psi4
#
memory 32 gb

molecule  {
0 1
  O        0.0430343     0.0370937     1.4002940
  C       -0.0043350     0.0007120    -0.0350430
  C       -1.2741136    -0.7263770    -0.4610837
  C        0.0313740     1.4194740    -0.5903490
  C        1.2353210    -0.7743910    -0.4444400
  H       -2.1615240    -0.1783290    -0.1422500
  H       -1.3194920    -0.8160620    -1.5626510
  H       -1.2956790    -1.7245230    -0.0333970
  H        0.9265560     1.9341530    -0.2323680
  H       -0.8479550     1.9843460    -0.2595770
  H        0.0373200     1.4182630    -1.6840320
  H        1.2123300    -1.7743220    -0.0041820
  H        1.2915660    -0.8677630    -1.5323580
  H        2.1312280    -0.2611390    -0.0865910
  H       -0.7295090     0.5361950     1.7029730
units angstrom
no_reorient  #important for SAPT in psi4, default
symmetry c1  #important for SAPT in psi4, default
}

set PROPERTIES_ORIGIN ["COM"]
properties('MP2/aug-cc-pvtz', properties = ['dipole'])
--------------------------------------------------------------------------

    Molecular point group: c1
  Charge       = 0
  Multiplicity = 1
  Basis Set: AUG-CC-PVTZ
    Blend: AUG-CC-PVTZ
  Basis Set: (AUG-CC-PVTZ AUX)
    Blend: AUG-CC-PVTZ-JKFIT

    Orbital Energies [Eh]
    ---------------------

    Doubly Occupied:

       1A    -20.549701     2A    -11.283067     3A    -11.215767
       4A    -11.214865     5A    -11.209005     6A     -1.355040
       7A     -1.066009     8A     -0.941115     9A     -0.939101
      10A     -0.768882    11A     -0.668847    12A     -0.623443
      13A     -0.621303    14A     -0.576886    15A     -0.555400
      16A     -0.530104    17A     -0.517152    18A     -0.507857
      19A     -0.502532    20A     -0.463139    21A     -0.432830

  @DF-RHF Final Energy:  -232.24758984682299

   => Energetics <=

    Nuclear Repulsion Energy =            199.9080640807520695
    One-Electron Energy =                -711.2272131801925070
    Two-Electron Energy =                 279.0715592526174760
    Total Energy =                       -232.2475898468229616
  Basis Set: (AUG-CC-PVTZ AUX)
    Blend: AUG-CC-PVTZ-RI
    Molecular point group: c1

    Geometry (in Angstrom), charge = 0, multiplicity = 1:

       Center              X                  Y                   Z               Mass
    ------------   -----------------  -----------------  -----------------  -----------------
         O            0.045920384177     0.038725758910     1.398104853490    15.994914619570
         C           -0.001448915823     0.002344058910    -0.037232146510    12.000000000000
         C           -1.271227515823    -0.724744941090    -0.463272846510    12.000000000000
         C            0.034260084177     1.421106058910    -0.592538146510    12.000000000000
         C            1.238207084177    -0.772758941090    -0.446629146510    12.000000000000
         H           -2.158637915823    -0.176696941090    -0.144439146510     1.007825032230
         H           -1.316605915823    -0.814429941090    -1.564840146510     1.007825032230
         H           -1.292792915823    -1.722890941090    -0.035586146510     1.007825032230
         H            0.929442084177     1.935785058910    -0.234557146510     1.007825032230
         H           -0.845068915823     1.985978058910    -0.261766146510     1.007825032230
         H            0.040206084177     1.419895058910    -1.686221146510     1.007825032230
         H            1.215216084177    -1.772689941090    -0.006371146510     1.007825032230
         H            1.294452084177    -0.866130941090    -1.534547146510     1.007825032230
         H            2.134114084177    -0.259506941090    -0.088780146510     1.007825032230
         H           -0.726622915823     0.537827058910     1.700783853490     1.007825032230

  Basis Set: AUG-CC-PVTZ
    Blend: AUG-CC-PVTZ
  Basis Set: (AUG-CC-PVTZ AUX)
    Blend: AUG-CC-PVTZ-JKFIT
	 Reference Energy          =    -232.2475898468229900 [Eh]
	 Singles Energy            =      -0.0000000000000000 [Eh]
	 Same-Spin Energy          =      -0.2362088108052913 [Eh]
	 Opposite-Spin Energy      =      -0.8291607414941371 [Eh]
	 Correlation Energy        =      -1.0653695522994284 [Eh]
	 Total Energy              =    -233.3129593991224056 [Eh]

	 ================> DF-SCS-MP2 Energies <==================
	-----------------------------------------------------------
	 SCS Same-Spin Scale       =       0.3333333333333333 [-]
	 SCS Opposite-Spin Scale   =       1.2000000000000000 [-]
	 SCS Same-Spin Energy      =      -0.0787362702684304 [Eh]
	 SCS Opposite-Spin Energy  =      -0.9949928897929645 [Eh]
	 SCS Correlation Energy    =      -1.0737291600613950 [Eh]
	 SCS Total Energy          =    -233.3213190068843801 [Eh]
	-----------------------------------------------------------

  Dipole Moment: [D]
     X:    -1.0337      Y:     0.6052      Z:    -1.1019     Total:     1.6276

*** Psi4 exiting successfully. Buy a developer a beer!
