                               Psi4 1.3.2 release

  ==> Input File <==

--------------------------------------------------------------------------
#psi4
#
memory 32 gb

molecule  {
0 1
  O        0.0539140     0.0432960     1.3997230
  C       -0.0684476     0.0398854    -0.0316315
  C       -1.2708000    -0.7245700    -0.4738360
  C        0.0313740     1.4194740    -0.5903490
  C        1.2353210    -0.7743910    -0.4444400
  H       -2.1615240    -0.1783290    -0.1422500
  H       -1.3194920    -0.8160620    -1.5626510
  H       -1.2956790    -1.7245230    -0.0333970
  H        0.9265560     1.9341530    -0.2323680
  H       -0.8479550     1.9843460    -0.2595770
  H        0.0373200     1.4182630    -1.6840320
  H        1.2123300    -1.7743220    -0.0041820
  H        1.2915660    -0.8677630    -1.5323580
  H        2.1312280    -0.2611390    -0.0865910
  H       -0.7431782     0.5418543     1.6541740
units angstrom
no_reorient  #important for SAPT in psi4, default
symmetry c1  #important for SAPT in psi4, default
}

set PROPERTIES_ORIGIN ["COM"]
properties('MP2/aug-cc-pvtz', properties = ['dipole'])
--------------------------------------------------------------------------

    Molecular point group: c1
  Charge       = 0
  Multiplicity = 1
  Basis Set: AUG-CC-PVTZ
    Blend: AUG-CC-PVTZ
  Basis Set: (AUG-CC-PVTZ AUX)
    Blend: AUG-CC-PVTZ-JKFIT

    Orbital Energies [Eh]
    ---------------------

    Doubly Occupied:

       1A    -20.554882     2A    -11.282992     3A    -11.216526
       4A    -11.216509     5A    -11.208186     6A     -1.359285
       7A     -1.067207     8A     -0.948597     9A     -0.931089
      10A     -0.764022    11A     -0.671801    12A     -0.626280
      13A     -0.621585    14A     -0.580131    15A     -0.558771
      16A     -0.524910    17A     -0.517315    18A     -0.512608
      19A     -0.506673    20A     -0.446562    21A     -0.441114

  @DF-RHF Final Energy:  -232.23932969815894

   => Energetics <=

    Nuclear Repulsion Energy =            199.9561113408553297
    One-Electron Energy =                -711.2767854726737369
    Two-Electron Energy =                 279.0813444336594671
    Total Energy =                       -232.2393296981589401
  Basis Set: (AUG-CC-PVTZ AUX)
    Blend: AUG-CC-PVTZ-RI
    Molecular point group: c1

    Geometry (in Angstrom), charge = 0, multiplicity = 1:

       Center              X                  Y                   Z               Mass
    ------------   -----------------  -----------------  -----------------  -----------------
         O            0.064486326419     0.036872865864     1.399834329650    15.994914619570
         C           -0.057875273581     0.033462265864    -0.031520170350    12.000000000000
         C           -1.260227673581    -0.730993134136    -0.473724670350    12.000000000000
         C            0.041946326419     1.413050865864    -0.590237670350    12.000000000000
         C            1.245893326419    -0.780814134136    -0.444328670350    12.000000000000
         H           -2.150951673581    -0.184752134136    -0.142138670350     1.007825032230
         H           -1.308919673581    -0.822485134136    -1.562539670350     1.007825032230
         H           -1.285106673581    -1.730946134136    -0.033285670350     1.007825032230
         H            0.937128326419     1.927729865864    -0.232256670350     1.007825032230
         H           -0.837382673581     1.977922865864    -0.259465670350     1.007825032230
         H            0.047892326419     1.411839865864    -1.683920670350     1.007825032230
         H            1.222902326419    -1.780745134136    -0.004070670350     1.007825032230
         H            1.302138326419    -0.874186134136    -1.532246670350     1.007825032230
         H            2.141800326419    -0.267562134136    -0.086479670350     1.007825032230
         H           -0.732605873581     0.535431165864     1.654285329650     1.007825032230

  Basis Set: AUG-CC-PVTZ
    Blend: AUG-CC-PVTZ
  Basis Set: (AUG-CC-PVTZ AUX)
    Blend: AUG-CC-PVTZ-JKFIT
	 Reference Energy          =    -232.2393296981589401 [Eh]
	 Singles Energy            =      -0.0000000000000000 [Eh]
	 Same-Spin Energy          =      -0.2369101863245495 [Eh]
	 Opposite-Spin Energy      =      -0.8306053479669548 [Eh]
	 Correlation Energy        =      -1.0675155342915044 [Eh]
	 Total Energy              =    -233.3068452324504563 [Eh]

	 ================> DF-SCS-MP2 Energies <==================
	-----------------------------------------------------------
	 SCS Same-Spin Scale       =       0.3333333333333333 [-]
	 SCS Opposite-Spin Scale   =       1.2000000000000000 [-]
	 SCS Same-Spin Energy      =      -0.0789700621081832 [Eh]
	 SCS Opposite-Spin Energy  =      -0.9967264175603457 [Eh]
	 SCS Correlation Energy    =      -1.0756964796685289 [Eh]
	 SCS Total Energy          =    -233.3150261778274626 [Eh]
	-----------------------------------------------------------

  Dipole Moment: [D]
     X:    -1.1574      Y:     0.6413      Z:    -1.1547     Total:     1.7562

*** Psi4 exiting successfully. Buy a developer a beer!
