                               Psi4 1.3.2 release

  ==> Input File <==

--------------------------------------------------------------------------
#psi4
#
memory 32 gb

molecule  {
0 1
  O        0.0103768     0.0184720     1.4013511
  C       -0.0043350     0.0007120    -0.0350430
  C       -1.2834734    -0.7314653    -0.4226358
  C        0.0313740     1.4194740    -0.5903490
  C        1.2353210    -0.7743910    -0.4444400
  H       -2.1615240    -0.1783290    -0.1422500
  H       -1.3194920    -0.8160620    -1.5626510
  H       -1.2956790    -1.7245230    -0.0333970
  H        0.9265560     1.9341530    -0.2323680
  H       -0.8479550     1.9843460    -0.2595770
  H        0.0373200     1.4182630    -1.6840320
  H        1.2123300    -1.7743220    -0.0041820
  H        1.2915660    -0.8677630    -1.5323580
  H        2.1312280    -0.2611390    -0.0865910
  H       -0.7295090     0.5361950     1.7029730
units angstrom
no_reorient  #important for SAPT in psi4, default
symmetry c1  #important for SAPT in psi4, default
}

set PROPERTIES_ORIGIN ["COM"]
properties('MP2/aug-cc-pvtz', properties = ['dipole'])
--------------------------------------------------------------------------

    Molecular point group: c1
  Charge       = 0
  Multiplicity = 1
  Basis Set: AUG-CC-PVTZ
    Blend: AUG-CC-PVTZ
  Basis Set: (AUG-CC-PVTZ AUX)
    Blend: AUG-CC-PVTZ-JKFIT

    Orbital Energies [Eh]
    ---------------------

    Doubly Occupied:

       1A    -20.546138     2A    -11.283456     3A    -11.217078
       4A    -11.213857     5A    -11.209980     6A     -1.357576
       7A     -1.066148     8A     -0.941957     9A     -0.939500
      10A     -0.771581    11A     -0.670818    12A     -0.624715
      13A     -0.619579    14A     -0.579700    15A     -0.553159
      16A     -0.531708    17A     -0.521797    18A     -0.506242
      19A     -0.499102    20A     -0.463917    21A     -0.430801

  @DF-RHF Final Energy:  -232.24513242595845

   => Energetics <=

    Nuclear Repulsion Energy =            200.0131225503221231
    One-Electron Energy =                -711.4188888276867146
    Two-Electron Energy =                 279.1606338514061463
    Total Energy =                       -232.2451324259584453
  Basis Set: (AUG-CC-PVTZ AUX)
    Blend: AUG-CC-PVTZ-RI
    Molecular point group: c1

    Geometry (in Angstrom), charge = 0, multiplicity = 1:

       Center              X                  Y                   Z               Mass
    ------------   -----------------  -----------------  -----------------  -----------------
         O            0.021831054913     0.024949431750     1.392705053416    15.994914619570
         C            0.007119254913     0.007189431750    -0.043689046584    12.000000000000
         C           -1.272019145087    -0.724987868250    -0.431281846584    12.000000000000
         C            0.042828254913     1.425951431750    -0.598995046584    12.000000000000
         C            1.246775254913    -0.767913568250    -0.453086046584    12.000000000000
         H           -2.150069745087    -0.171851568250    -0.150896046584     1.007825032230
         H           -1.308037745087    -0.809584568250    -1.571297046584     1.007825032230
         H           -1.284224745087    -1.718045568250    -0.042043046584     1.007825032230
         H            0.938010254913     1.940630431750    -0.241014046584     1.007825032230
         H           -0.836500745087     1.990823431750    -0.268223046584     1.007825032230
         H            0.048774254913     1.424740431750    -1.692678046584     1.007825032230
         H            1.223784254913    -1.767844568250    -0.012828046584     1.007825032230
         H            1.303020254913    -0.861285568250    -1.541004046584     1.007825032230
         H            2.142682254913    -0.254661568250    -0.095237046584     1.007825032230
         H           -0.718054745087     0.542672431750     1.694326953416     1.007825032230

  Basis Set: AUG-CC-PVTZ
    Blend: AUG-CC-PVTZ
  Basis Set: (AUG-CC-PVTZ AUX)
    Blend: AUG-CC-PVTZ-JKFIT
	 Reference Energy          =    -232.2451324259584453 [Eh]
	 Singles Energy            =      -0.0000000000000000 [Eh]
	 Same-Spin Energy          =      -0.2359651519126456 [Eh]
	 Opposite-Spin Energy      =      -0.8286297823195516 [Eh]
	 Correlation Energy        =      -1.0645949342321972 [Eh]
	 Total Energy              =    -233.3097273601906352 [Eh]

	 ================> DF-SCS-MP2 Energies <==================
	-----------------------------------------------------------
	 SCS Same-Spin Scale       =       0.3333333333333333 [-]
	 SCS Opposite-Spin Scale   =       1.2000000000000000 [-]
	 SCS Same-Spin Energy      =      -0.0786550506375485 [Eh]
	 SCS Opposite-Spin Energy  =      -0.9943557387834620 [Eh]
	 SCS Correlation Energy    =      -1.0730107894210104 [Eh]
	 SCS Total Energy          =    -233.3181432153794503 [Eh]
	-----------------------------------------------------------

  Dipole Moment: [D]
     X:    -0.9534      Y:     0.6724      Z:    -1.0920     Total:     1.5981

*** Psi4 exiting successfully. Buy a developer a beer!
