                               Psi4 1.3.2 release

  ==> Input File <==

--------------------------------------------------------------------------
#psi4
#
memory 32 gb

molecule  {
0 1
  O        0.0973803     0.0680681     1.3963469
  C       -0.0043350     0.0007120    -0.0350430
  C       -1.2565836    -0.7167911    -0.5245016
  C        0.0313740     1.4194740    -0.5903490
  C        1.2353210    -0.7743910    -0.4444400
  H       -2.1615240    -0.1783290    -0.1422500
  H       -1.3194920    -0.8160620    -1.5626510
  H       -1.2956790    -1.7245230    -0.0333970
  H        0.9265560     1.9341530    -0.2323680
  H       -0.8479550     1.9843460    -0.2595770
  H        0.0373200     1.4182630    -1.6840320
  H        1.2123300    -1.7743220    -0.0041820
  H        1.2915660    -0.8677630    -1.5323580
  H        2.1312280    -0.2611390    -0.0865910
  H       -0.7295090     0.5361950     1.7029730
units angstrom
no_reorient  #important for SAPT in psi4, default
symmetry c1  #important for SAPT in psi4, default
}

set PROPERTIES_ORIGIN ["COM"]
properties('MP2/aug-cc-pvtz', properties = ['dipole'])
--------------------------------------------------------------------------

    Molecular point group: c1
  Charge       = 0
  Multiplicity = 1
  Basis Set: AUG-CC-PVTZ
    Blend: AUG-CC-PVTZ
  Basis Set: (AUG-CC-PVTZ AUX)
    Blend: AUG-CC-PVTZ-JKFIT

    Orbital Energies [Eh]
    ---------------------

    Doubly Occupied:

       1A    -20.556304     2A    -11.283035     3A    -11.217937
       4A    -11.213747     5A    -11.207528     6A     -1.351453
       7A     -1.066191     8A     -0.940504     9A     -0.938584
      10A     -0.765274    11A     -0.666390    12A     -0.628106
      13A     -0.620835    14A     -0.573263    15A     -0.558866
      16A     -0.527482    17A     -0.515952    18A     -0.508967
      19A     -0.501348    20A     -0.460763    21A     -0.433199

  @DF-RHF Final Energy:  -232.24067186052633

   => Energetics <=

    Nuclear Repulsion Energy =            199.7792818377405695
    One-Electron Energy =                -710.9684471578482317
    Two-Electron Energy =                 278.9484934595813570
    Total Energy =                       -232.2406718605263336
  Basis Set: (AUG-CC-PVTZ AUX)
    Blend: AUG-CC-PVTZ-RI
    Molecular point group: c1

    Geometry (in Angstrom), charge = 0, multiplicity = 1:

       Center              X                  Y                   Z               Mass
    ------------   -----------------  -----------------  -----------------  -----------------
         O            0.085691340290     0.061458798035     1.405283892466    15.994914619570
         C           -0.016023959710    -0.005897301965    -0.026106007534    12.000000000000
         C           -1.268272559710    -0.723400401965    -0.515564607534    12.000000000000
         C            0.019685040290     1.412864698035    -0.581412007534    12.000000000000
         C            1.223632040290    -0.781000301965    -0.435503007534    12.000000000000
         H           -2.173212959710    -0.184938301965    -0.133313007534     1.007825032230
         H           -1.331180959710    -0.822671301965    -1.553714007534     1.007825032230
         H           -1.307367959710    -1.731132301965    -0.024460007534     1.007825032230
         H            0.914867040290     1.927543698035    -0.223431007534     1.007825032230
         H           -0.859643959710     1.977736698035    -0.250640007534     1.007825032230
         H            0.025631040290     1.411653698035    -1.675095007534     1.007825032230
         H            1.200641040290    -1.780931301965     0.004754992466     1.007825032230
         H            1.279877040290    -0.874372301965    -1.523421007534     1.007825032230
         H            2.119539040290    -0.267748301965    -0.077654007534     1.007825032230
         H           -0.741197959710     0.529585698035     1.711909992466     1.007825032230

  Basis Set: AUG-CC-PVTZ
    Blend: AUG-CC-PVTZ
  Basis Set: (AUG-CC-PVTZ AUX)
    Blend: AUG-CC-PVTZ-JKFIT
	 Reference Energy          =    -232.2406718605263336 [Eh]
	 Singles Energy            =      -0.0000000000000000 [Eh]
	 Same-Spin Energy          =      -0.2368689661176530 [Eh]
	 Opposite-Spin Energy      =      -0.8307020709913407 [Eh]
	 Correlation Energy        =      -1.0675710371089937 [Eh]
	 Total Energy              =    -233.3082428976353242 [Eh]

	 ================> DF-SCS-MP2 Energies <==================
	-----------------------------------------------------------
	 SCS Same-Spin Scale       =       0.3333333333333333 [-]
	 SCS Opposite-Spin Scale   =       1.2000000000000000 [-]
	 SCS Same-Spin Energy      =      -0.0789563220392177 [Eh]
	 SCS Opposite-Spin Energy  =      -0.9968424851896088 [Eh]
	 SCS Correlation Energy    =      -1.0757988072288265 [Eh]
	 SCS Total Energy          =    -233.3164706677551692 [Eh]
	-----------------------------------------------------------

  Dipole Moment: [D]
     X:    -1.1470      Y:     0.5040      Z:    -1.0908     Total:     1.6612

*** Psi4 exiting successfully. Buy a developer a beer!
