                               Psi4 1.3.2 release

  ==> Input File <==

--------------------------------------------------------------------------
#psi4
#
memory 32 gb

molecule  {
0 1
  O        0.0539140     0.0432960     1.3997230
  C       -0.0471054     0.0268212    -0.0332053
  C       -1.2708000    -0.7245700    -0.4738360
  C        0.0313740     1.4194740    -0.5903490
  C        1.2353210    -0.7743910    -0.4444400
  H       -2.1615240    -0.1783290    -0.1422500
  H       -1.3194920    -0.8160620    -1.5626510
  H       -1.2956790    -1.7245230    -0.0333970
  H        0.9265560     1.9341530    -0.2323680
  H       -0.8479550     1.9843460    -0.2595770
  H        0.0373200     1.4182630    -1.6840320
  H        1.2123300    -1.7743220    -0.0041820
  H        1.2915660    -0.8677630    -1.5323580
  H        2.1312280    -0.2611390    -0.0865910
  H       -0.7388628     0.5401190     1.6705245
units angstrom
no_reorient  #important for SAPT in psi4, default
symmetry c1  #important for SAPT in psi4, default
}

set PROPERTIES_ORIGIN ["COM"]
properties('MP2/aug-cc-pvtz', properties = ['dipole'])
--------------------------------------------------------------------------

    Molecular point group: c1
  Charge       = 0
  Multiplicity = 1
  Basis Set: AUG-CC-PVTZ
    Blend: AUG-CC-PVTZ
  Basis Set: (AUG-CC-PVTZ AUX)
    Blend: AUG-CC-PVTZ-JKFIT

    Orbital Energies [Eh]
    ---------------------

    Doubly Occupied:

       1A    -20.553539     2A    -11.282771     3A    -11.216066
       4A    -11.216050     5A    -11.208448     6A     -1.357510
       7A     -1.066412     8A     -0.945998     9A     -0.933823
      10A     -0.765330    11A     -0.670464    12A     -0.625376
      13A     -0.621436    14A     -0.578708    15A     -0.557895
      16A     -0.526304    17A     -0.516408    18A     -0.510963
      19A     -0.505621    20A     -0.449385    21A     -0.442388

  @DF-RHF Final Energy:  -232.24350792099773

   => Energetics <=

    Nuclear Repulsion Energy =            199.9295877993444890
    One-Electron Energy =                -711.2444040785188690
    Two-Electron Energy =                 279.0713083581766227
    Total Energy =                       -232.2435079209977289
  Basis Set: (AUG-CC-PVTZ AUX)
    Blend: AUG-CC-PVTZ-RI
    Molecular point group: c1

    Geometry (in Angstrom), charge = 0, multiplicity = 1:

       Center              X                  Y                   Z               Mass
    ------------   -----------------  -----------------  -----------------  -----------------
         O            0.060970133094     0.039012902392     1.399866826666    15.994914619570
         C           -0.040049266906     0.022538102392    -0.033061473334    12.000000000000
         C           -1.263743866906    -0.728853097608    -0.473692173334    12.000000000000
         C            0.038430133094     1.415190902392    -0.590205173334    12.000000000000
         C            1.242377133094    -0.778674097608    -0.444296173334    12.000000000000
         H           -2.154467866906    -0.182612097608    -0.142106173334     1.007825032230
         H           -1.312435866906    -0.820345097608    -1.562507173334     1.007825032230
         H           -1.288622866906    -1.728806097608    -0.033253173334     1.007825032230
         H            0.933612133094     1.929869902392    -0.232224173334     1.007825032230
         H           -0.840898866906     1.980062902392    -0.259433173334     1.007825032230
         H            0.044376133094     1.413979902392    -1.683888173334     1.007825032230
         H            1.219386133094    -1.778605097608    -0.004038173334     1.007825032230
         H            1.298622133094    -0.872046097608    -1.532214173334     1.007825032230
         H            2.138284133094    -0.265422097608    -0.086447173334     1.007825032230
         H           -0.731806666906     0.535835902392     1.670668326666     1.007825032230

  Basis Set: AUG-CC-PVTZ
    Blend: AUG-CC-PVTZ
  Basis Set: (AUG-CC-PVTZ AUX)
    Blend: AUG-CC-PVTZ-JKFIT
	 Reference Energy          =    -232.2435079209977289 [Eh]
	 Singles Energy            =      -0.0000000000000000 [Eh]
	 Same-Spin Energy          =      -0.2366448617467631 [Eh]
	 Opposite-Spin Energy      =      -0.8300870347545357 [Eh]
	 Correlation Energy        =      -1.0667318965012988 [Eh]
	 Total Energy              =    -233.3102398174990242 [Eh]

	 ================> DF-SCS-MP2 Energies <==================
	-----------------------------------------------------------
	 SCS Same-Spin Scale       =       0.3333333333333333 [-]
	 SCS Opposite-Spin Scale   =       1.2000000000000000 [-]
	 SCS Same-Spin Energy      =      -0.0788816205822544 [Eh]
	 SCS Opposite-Spin Energy  =      -0.9961044417054428 [Eh]
	 SCS Correlation Energy    =      -1.0749860622876972 [Eh]
	 SCS Total Energy          =    -233.3184939832854354 [Eh]
	-----------------------------------------------------------

  Dipole Moment: [D]
     X:    -1.1255      Y:     0.6228      Z:    -1.1381     Total:     1.7175

*** Psi4 exiting successfully. Buy a developer a beer!
