                               Psi4 1.3.2 release

  ==> Input File <==

--------------------------------------------------------------------------
#psi4
#
memory 32 gb

molecule  {
0 1
  O        0.0539140     0.0432960     1.3997230
  C       -0.0043350     0.0007120    -0.0350430
  C       -1.2708000    -0.7245700    -0.4738360
  C        0.0313740     1.4194740    -0.5903490
  C        1.2353210    -0.7743910    -0.4444400
  H       -2.1615240    -0.1783290    -0.1422500
  H       -1.3194920    -0.8160620    -1.5626510
  H       -1.2956790    -1.7245230    -0.0333970
  H        0.9265560     1.9341530    -0.2323680
  H       -0.8479550     1.9843460    -0.2595770
  H        0.0373200     1.4182630    -1.6840320
  H        1.2123300    -1.7743220    -0.0041820
  H        1.2915660    -0.8677630    -1.5323580
  H        2.1312280    -0.2611390    -0.0865910
  H       -0.8099432     0.5868010     1.7341077
units angstrom
no_reorient  #important for SAPT in psi4, default
symmetry c1  #important for SAPT in psi4, default
}

set PROPERTIES_ORIGIN ["COM"]
properties('MP2/aug-cc-pvtz', properties = ['dipole'])
--------------------------------------------------------------------------

    Molecular point group: c1
  Charge       = 0
  Multiplicity = 1
  Basis Set: AUG-CC-PVTZ
    Blend: AUG-CC-PVTZ
  Basis Set: (AUG-CC-PVTZ AUX)
    Blend: AUG-CC-PVTZ-JKFIT

    Orbital Energies [Eh]
    ---------------------

    Doubly Occupied:

       1A    -20.559569     2A    -11.282344     3A    -11.214798
       4A    -11.214783     5A    -11.208933     6A     -1.336674
       7A     -1.061375     8A     -0.940273     9A     -0.938485
      10A     -0.758761    11A     -0.655502    12A     -0.622600
      13A     -0.621006    14A     -0.571541    15A     -0.555435
      16A     -0.526882    17A     -0.515204    18A     -0.507105
      19A     -0.501727    20A     -0.460399    21A     -0.431556

  @DF-RHF Final Energy:  -232.23388812904057

   => Energetics <=

    Nuclear Repulsion Energy =            199.3355645607169038
    One-Electron Energy =                -710.1690046327490791
    Two-Electron Energy =                 278.5995519429916385
    Total Energy =                       -232.2338881290405652
  Basis Set: (AUG-CC-PVTZ AUX)
    Blend: AUG-CC-PVTZ-RI
    Molecular point group: c1

    Geometry (in Angstrom), charge = 0, multiplicity = 1:

       Center              X                  Y                   Z               Mass
    ------------   -----------------  -----------------  -----------------  -----------------
         O            0.055008349310     0.042607498520     1.399299437104    15.994914619570
         C           -0.003240650690     0.000023498520    -0.035466562896    12.000000000000
         C           -1.269705650690    -0.725258501480    -0.474259562896    12.000000000000
         C            0.032468349310     1.418785498520    -0.590772562896    12.000000000000
         C            1.236415349310    -0.775079501480    -0.444863562896    12.000000000000
         H           -2.160429650690    -0.179017501480    -0.142673562896     1.007825032230
         H           -1.318397650690    -0.816750501480    -1.563074562896     1.007825032230
         H           -1.294584650690    -1.725211501480    -0.033820562896     1.007825032230
         H            0.927650349310     1.933464498520    -0.232791562896     1.007825032230
         H           -0.846860650690     1.983657498520    -0.260000562896     1.007825032230
         H            0.038414349310     1.417574498520    -1.684455562896     1.007825032230
         H            1.213424349310    -1.775010501480    -0.004605562896     1.007825032230
         H            1.292660349310    -0.868451501480    -1.532781562896     1.007825032230
         H            2.132322349310    -0.261827501480    -0.087014562896     1.007825032230
         H           -0.808848850690     0.586112498520     1.733684137104     1.007825032230

  Basis Set: AUG-CC-PVTZ
    Blend: AUG-CC-PVTZ
  Basis Set: (AUG-CC-PVTZ AUX)
    Blend: AUG-CC-PVTZ-JKFIT
	 Reference Energy          =    -232.2338881290405652 [Eh]
	 Singles Energy            =      -0.0000000000000000 [Eh]
	 Same-Spin Energy          =      -0.2375119160203196 [Eh]
	 Opposite-Spin Energy      =      -0.8327376367822672 [Eh]
	 Correlation Energy        =      -1.0702495528025868 [Eh]
	 Total Energy              =    -233.3041376818431445 [Eh]

	 ================> DF-SCS-MP2 Energies <==================
	-----------------------------------------------------------
	 SCS Same-Spin Scale       =       0.3333333333333333 [-]
	 SCS Opposite-Spin Scale   =       1.2000000000000000 [-]
	 SCS Same-Spin Energy      =      -0.0791706386734398 [Eh]
	 SCS Opposite-Spin Energy  =      -0.9992851641387206 [Eh]
	 SCS Correlation Energy    =      -1.0784558028121605 [Eh]
	 SCS Total Energy          =    -233.3123439318527232 [Eh]
	-----------------------------------------------------------

  Dipole Moment: [D]
     X:    -1.0871      Y:     0.6029      Z:    -1.0744     Total:     1.6431

*** Psi4 exiting successfully. Buy a developer a beer!
