                               Psi4 1.4a3.dev225

  ==> Input File <==

--------------------------------------------------------------------------
#psi4
#
memory 32 gb

molecule  {
0 1
  O        0.0030180    -0.0000010     1.4483040
  C       -0.0045721    -0.0000000     0.0287227
  C        0.6894330     1.2579440    -0.5049070
  C        0.6894570    -1.2579310    -0.5049090
  C       -1.4786030    -0.0000130    -0.3634740
  H        1.7418680     1.2680120    -0.1979930
  H        0.6575680     1.3120800    -1.5976100
  H        0.2018510     2.1450640    -0.0921250
  H        0.2018920    -2.1450590    -0.0921260
  H        1.7418930    -1.2679790    -0.1979980
  H        0.6575890    -1.3120660    -1.5976120
  H       -1.9662980     0.8865690     0.0501550
  H       -1.6044380    -0.0000110    -1.4500690
  H       -1.9662790    -0.8866080     0.0501500
  H        0.9365660     0.0000010     1.7262020
units angstrom
no_reorient  #important for SAPT in psi4, default
symmetry c1  #important for SAPT in psi4, default
}

set PROPERTIES_ORIGIN ["COM"]
properties('MP2/aug-cc-pvtz', properties = ['dipole'])
--------------------------------------------------------------------------

    Molecular point group: c1
  Charge       = 0
  Multiplicity = 1
  Basis Set: AUG-CC-PVTZ
    Blend: AUG-CC-PVTZ
  Basis Set: (AUG-CC-PVTZ AUX)
    Blend: AUG-CC-PVTZ-JKFIT

    Orbital Energies [Eh]
    ---------------------

    Doubly Occupied:

       1A    -20.553765     2A    -11.283687     3A    -11.215244
       4A    -11.215230     5A    -11.208674     6A     -1.361484
       7A     -1.062534     8A     -0.939137     9A     -0.937465
      10A     -0.770648    11A     -0.669628    12A     -0.623111
      13A     -0.622127    14A     -0.575222    15A     -0.556109
      16A     -0.530877    17A     -0.515028    18A     -0.513322
      19A     -0.503223    20A     -0.459174    21A     -0.430612

  @DF-RHF Final Energy:  -232.24726817557149

   => Energetics <=

    Nuclear Repulsion Energy =            199.7329659846100469
    One-Electron Energy =                -710.8678627305246209
    Two-Electron Energy =                 278.8876285703431108
    Total Energy =                       -232.2472681755714916
  Basis Set: (AUG-CC-PVTZ AUX)
    Blend: AUG-CC-PVTZ-RI
    Molecular point group: c1

    Geometry (in Angstrom), charge = 0, multiplicity = 1:

       Center              X                  Y                   Z               Mass
    ------------   -----------------  -----------------  -----------------  -----------------
         O            0.011067125751    -0.000000824883     1.399634988246    15.994914619570
         C            0.003477025751     0.000000175117    -0.019946311754    12.000000000000
         C            0.697482125751     1.257944175117    -0.553576011754    12.000000000000
         C            0.697506125751    -1.257930824883    -0.553578011754    12.000000000000
         C           -1.470553874249    -0.000012824883    -0.412143011754    12.000000000000
         H            1.749917125751     1.268012175117    -0.246662011754     1.007825032230
         H            0.665617125751     1.312080175117    -1.646279011754     1.007825032230
         H            0.209900125751     2.145064175117    -0.140794011754     1.007825032230
         H            0.209941125751    -2.145058824883    -0.140795011754     1.007825032230
         H            1.749942125751    -1.267978824883    -0.246667011754     1.007825032230
         H            0.665638125751    -1.312065824883    -1.646281011754     1.007825032230
         H           -1.958248874249     0.886569175117     0.001485988246     1.007825032230
         H           -1.596388874249    -0.000010824883    -1.498738011754     1.007825032230
         H           -1.958229874249    -0.886607824883     0.001480988246     1.007825032230
         H            0.944615125751     0.000001175117     1.677532988246     1.007825032230

  Basis Set: AUG-CC-PVTZ
    Blend: AUG-CC-PVTZ
  Basis Set: (AUG-CC-PVTZ AUX)
    Blend: AUG-CC-PVTZ-JKFIT
	 Reference Energy          =    -232.2472681755714916 [Eh]
	 Singles Energy            =      -0.0000000000000000 [Eh]
	 Same-Spin Energy          =      -0.2361710418445931 [Eh]
	 Opposite-Spin Energy      =      -0.8291337335502671 [Eh]
	 Correlation Energy        =      -1.0653047753948601 [Eh]
	 Total Energy              =    -233.3125729509663415 [Eh]

	 ================> DF-SCS-MP2 Energies <==================
	-----------------------------------------------------------
	 SCS Same-Spin Scale       =       0.3333333333333333 [-]
	 SCS Opposite-Spin Scale   =       1.2000000000000000 [-]
	 SCS Same-Spin Energy      =      -0.0787236806148644 [Eh]
	 SCS Opposite-Spin Energy  =      -0.9949604802603205 [Eh]
	 SCS Correlation Energy    =      -1.0736841608751848 [Eh]
	 SCS Total Energy          =    -233.3209523364466804 [Eh]
	-----------------------------------------------------------

  Dipole Moment: [D]
     X:     1.1815      Y:     0.0000      Z:    -1.0733     Total:     1.5962

*** Psi4 exiting successfully. Buy a developer a beer!
