                               Psi4 1.3.2 release

  ==> Input File <==

--------------------------------------------------------------------------
#psi4
#
memory 32 gb

molecule  {
0 1
  O        0.0756593     0.0556904     1.3982532
  C       -0.0043350     0.0007120    -0.0350430
  C       -1.2638836    -0.7207904    -0.4992395
  C        0.0313740     1.4194740    -0.5903490
  C        1.2353210    -0.7743910    -0.4444400
  H       -2.1615240    -0.1783290    -0.1422500
  H       -1.3194920    -0.8160620    -1.5626510
  H       -1.2956790    -1.7245230    -0.0333970
  H        0.9265560     1.9341530    -0.2323680
  H       -0.8479550     1.9843460    -0.2595770
  H        0.0373200     1.4182630    -1.6840320
  H        1.2123300    -1.7743220    -0.0041820
  H        1.2915660    -0.8677630    -1.5323580
  H        2.1312280    -0.2611390    -0.0865910
  H       -0.7295090     0.5361950     1.7029730
units angstrom
no_reorient  #important for SAPT in psi4, default
symmetry c1  #important for SAPT in psi4, default
}

set PROPERTIES_ORIGIN ["COM"]
properties('MP2/aug-cc-pvtz', properties = ['dipole'])
--------------------------------------------------------------------------

    Molecular point group: c1
  Charge       = 0
  Multiplicity = 1
  Basis Set: AUG-CC-PVTZ
    Blend: AUG-CC-PVTZ
  Basis Set: (AUG-CC-PVTZ AUX)
    Blend: AUG-CC-PVTZ-JKFIT

    Orbital Energies [Eh]
    ---------------------

    Doubly Occupied:

       1A    -20.553578     2A    -11.282950     3A    -11.216510
       4A    -11.214529     5A    -11.208095     6A     -1.352793
       7A     -1.066051     8A     -0.940602     9A     -0.938785
      10A     -0.766550    11A     -0.667183    12A     -0.625369
      13A     -0.621462    14A     -0.574509    15A     -0.557628
      16A     -0.528511    17A     -0.513083    18A     -0.511657
      19A     -0.502357    20A     -0.461919    21A     -0.433398

  @DF-RHF Final Energy:  -232.24518321985045

   => Energetics <=

    Nuclear Repulsion Energy =            199.8235907044645785
    One-Electron Energy =                -711.0625078796206253
    Two-Electron Energy =                 278.9937339553056290
    Total Energy =                       -232.2451832198504462
  Basis Set: (AUG-CC-PVTZ AUX)
    Blend: AUG-CC-PVTZ-RI
    Molecular point group: c1

    Geometry (in Angstrom), charge = 0, multiplicity = 1:

       Center              X                  Y                   Z               Mass
    ------------   -----------------  -----------------  -----------------  -----------------
         O            0.069843257166     0.052401758829     1.402686047058    15.994914619570
         C           -0.010151042834    -0.002576641171    -0.030610152942    12.000000000000
         C           -1.269699642834    -0.724079041171    -0.494806652942    12.000000000000
         C            0.025557957166     1.416185358829    -0.585916152942    12.000000000000
         C            1.229504957166    -0.777679641171    -0.440007152942    12.000000000000
         H           -2.167340042834    -0.181617641171    -0.137817152942     1.007825032230
         H           -1.325308042834    -0.819350641171    -1.558218152942     1.007825032230
         H           -1.301495042834    -1.727811641171    -0.028964152942     1.007825032230
         H            0.920739957166     1.930864358829    -0.227935152942     1.007825032230
         H           -0.853771042834     1.981057358829    -0.255144152942     1.007825032230
         H            0.031503957166     1.414974358829    -1.679599152942     1.007825032230
         H            1.206513957166    -1.777610641171     0.000250847058     1.007825032230
         H            1.285749957166    -0.871051641171    -1.527925152942     1.007825032230
         H            2.125411957166    -0.264427641171    -0.082158152942     1.007825032230
         H           -0.735325042834     0.532906358829     1.707405847058     1.007825032230

  Basis Set: AUG-CC-PVTZ
    Blend: AUG-CC-PVTZ
  Basis Set: (AUG-CC-PVTZ AUX)
    Blend: AUG-CC-PVTZ-JKFIT
	 Reference Energy          =    -232.2451832198504462 [Eh]
	 Singles Energy            =      -0.0000000000000000 [Eh]
	 Same-Spin Energy          =      -0.2365670969674265 [Eh]
	 Opposite-Spin Energy      =      -0.8299856034098644 [Eh]
	 Correlation Energy        =      -1.0665527003772910 [Eh]
	 Total Energy              =    -233.3117359202277328 [Eh]

	 ================> DF-SCS-MP2 Energies <==================
	-----------------------------------------------------------
	 SCS Same-Spin Scale       =       0.3333333333333333 [-]
	 SCS Opposite-Spin Scale   =       1.2000000000000000 [-]
	 SCS Same-Spin Energy      =      -0.0788556989891422 [Eh]
	 SCS Opposite-Spin Energy  =      -0.9959827240918372 [Eh]
	 SCS Correlation Energy    =      -1.0748384230809793 [Eh]
	 SCS Total Energy          =    -233.3200216429314366 [Eh]
	-----------------------------------------------------------

  Dipole Moment: [D]
     X:    -1.1048      Y:     0.5429      Z:    -1.0990     Total:     1.6502

*** Psi4 exiting successfully. Buy a developer a beer!
