                               Psi4 1.3.2 release

  ==> Input File <==

--------------------------------------------------------------------------
#psi4
#
memory 32 gb

molecule  {
0 1
  C       -1.8064350     0.8667630     0.0000000
  S       -0.1249845     0.7939206     0.0000000
  C        0.2265820    -0.9855290     0.0000000
  C        1.7122270    -1.3240750     0.0000000
  H       -2.2169290     0.3875350     0.8921080
  H       -2.1065340     1.9166190     0.0000000
  H       -2.2169290     0.3875350    -0.8921080
  H       -0.2584780    -1.4093200     0.8855220
  H       -0.2584780    -1.4093200    -0.8855220
  H        2.2058430    -0.9165190    -0.8857390
  H        2.2058430    -0.9165190     0.8857390
  H        1.8514210    -2.4087210     0.0000000
units angstrom
no_reorient  #important for SAPT in psi4, default
symmetry c1  #important for SAPT in psi4, default
}

set PROPERTIES_ORIGIN ["COM"]
properties('MP2/aug-cc-pvtz', properties = ['dipole'])
--------------------------------------------------------------------------

    Molecular point group: c1
  Charge       = 0
  Multiplicity = 1
  Basis Set: AUG-CC-PVTZ
    Blend: AUG-CC-PVTZ
  Basis Set: (AUG-CC-PVTZ AUX)
    Blend: AUG-CC-PVTZ-JKFIT

    Orbital Energies [Eh]
    ---------------------

    Doubly Occupied:

       1A    -91.931696     2A    -11.254918     3A    -11.241650
       4A    -11.225427     5A     -8.935367     6A     -6.617008
       7A     -6.615870     8A     -6.614770     9A     -1.091684
      10A     -1.014190    11A     -0.876524    12A     -0.784492
      13A     -0.631403    14A     -0.603260    15A     -0.591537
      16A     -0.586638    17A     -0.526458    18A     -0.506147
      19A     -0.495208    20A     -0.417139    21A     -0.326254

  @DF-RHF Final Energy:  -515.84309314546397

   => Energetics <=

    Nuclear Repulsion Energy =            171.5006470275893093
    One-Electron Energy =               -1048.9121996830756416
    Two-Electron Energy =                 361.5684595100223646
    Total Energy =                       -515.8430931454638539
  Basis Set: (AUG-CC-PVTZ AUX)
    Blend: AUG-CC-PVTZ-RI
    Molecular point group: c1

    Geometry (in Angstrom), charge = 0, multiplicity = 1:

       Center              X                  Y                   Z               Mass
    ------------   -----------------  -----------------  -----------------  -----------------
         C           -1.764243967532     0.818544226059     0.000000000000    12.000000000000
         S           -0.082793467532     0.745701826059     0.000000000000    31.972071174400
         C            0.268773032468    -1.033747773941     0.000000000000    12.000000000000
         C            1.754418032468    -1.372293773941     0.000000000000    12.000000000000
         H           -2.174737967532     0.339316226059     0.892108000000     1.007825032230
         H           -2.064342967532     1.868400226059     0.000000000000     1.007825032230
         H           -2.174737967532     0.339316226059    -0.892108000000     1.007825032230
         H           -0.216286967532    -1.457538773941     0.885522000000     1.007825032230
         H           -0.216286967532    -1.457538773941    -0.885522000000     1.007825032230
         H            2.248034032468    -0.964737773941    -0.885739000000     1.007825032230
         H            2.248034032468    -0.964737773941     0.885739000000     1.007825032230
         H            1.893612032468    -2.456939773941     0.000000000000     1.007825032230

  Basis Set: AUG-CC-PVTZ
    Blend: AUG-CC-PVTZ
  Basis Set: (AUG-CC-PVTZ AUX)
    Blend: AUG-CC-PVTZ-JKFIT
	 Reference Energy          =    -515.8430931454639676 [Eh]
	 Singles Energy            =      -0.0000000000000000 [Eh]
	 Same-Spin Energy          =      -0.1807557897888048 [Eh]
	 Opposite-Spin Energy      =      -0.6431623809264487 [Eh]
	 Correlation Energy        =      -0.8239181707152535 [Eh]
	 Total Energy              =    -516.6670113161792415 [Eh]

	 ================> DF-SCS-MP2 Energies <==================
	-----------------------------------------------------------
	 SCS Same-Spin Scale       =       0.3333333333333333 [-]
	 SCS Opposite-Spin Scale   =       1.2000000000000000 [-]
	 SCS Same-Spin Energy      =      -0.0602519299296016 [Eh]
	 SCS Opposite-Spin Energy  =      -0.7717948571117385 [Eh]
	 SCS Correlation Energy    =      -0.8320467870413401 [Eh]
	 SCS Total Energy          =    -516.6751399325053171 [Eh]
	-----------------------------------------------------------

  Dipole Moment: [D]
     X:    -0.9462      Y:    -1.3126      Z:    -0.0000     Total:     1.6181

*** Psi4 exiting successfully. Buy a developer a beer!
