                               Psi4 1.3.2 release

  ==> Input File <==

--------------------------------------------------------------------------
#psi4
#
memory 32 gb

molecule  {
0 1
  C       -1.8064350     0.8667630     0.0000000
  S        0.0314425     0.8177903     0.0000000
  C        0.2265820    -0.9855290     0.0000000
  C        1.7122270    -1.3240750     0.0000000
  H       -2.2169290     0.3875350     0.8921080
  H       -2.1065340     1.9166190     0.0000000
  H       -2.2169290     0.3875350    -0.8921080
  H       -0.2584780    -1.4093200     0.8855220
  H       -0.2584780    -1.4093200    -0.8855220
  H        2.2058430    -0.9165190    -0.8857390
  H        2.2058430    -0.9165190     0.8857390
  H        1.8514210    -2.4087210     0.0000000
units angstrom
no_reorient  #important for SAPT in psi4, default
symmetry c1  #important for SAPT in psi4, default
}

set PROPERTIES_ORIGIN ["COM"]
properties('MP2/aug-cc-pvtz', properties = ['dipole'])
--------------------------------------------------------------------------

    Molecular point group: c1
  Charge       = 0
  Multiplicity = 1
  Basis Set: AUG-CC-PVTZ
    Blend: AUG-CC-PVTZ
  Basis Set: (AUG-CC-PVTZ AUX)
    Blend: AUG-CC-PVTZ-JKFIT

    Orbital Energies [Eh]
    ---------------------

    Doubly Occupied:

       1A    -91.942668     2A    -11.254608     3A    -11.251453
       4A    -11.222527     5A     -8.942669     6A     -6.623929
       7A     -6.622973     8A     -6.622009     9A     -1.075439
      10A     -0.992879    11A     -0.876583    12A     -0.790931
      13A     -0.628416    14A     -0.595650    15A     -0.581727
      16A     -0.577451    17A     -0.526231    18A     -0.505064
      19A     -0.467324    20A     -0.431058    21A     -0.335473

  @DF-RHF Final Energy:  -515.85061375243788

   => Energetics <=

    Nuclear Repulsion Energy =            168.9860845497720732
    One-Electron Energy =               -1043.9392741467274845
    Two-Electron Energy =                 359.1025758445175597
    Total Energy =                       -515.8506137524378801
  Basis Set: (AUG-CC-PVTZ AUX)
    Blend: AUG-CC-PVTZ-RI
    Molecular point group: c1

    Geometry (in Angstrom), charge = 0, multiplicity = 1:

       Center              X                  Y                   Z               Mass
    ------------   -----------------  -----------------  -----------------  -----------------
         C           -1.830020475582     0.808507176737     0.000000000000    12.000000000000
         S            0.007857024418     0.759534476737     0.000000000000    31.972071174400
         C            0.202996524418    -1.043784823263     0.000000000000    12.000000000000
         C            1.688641524418    -1.382330823263     0.000000000000    12.000000000000
         H           -2.240514475582     0.329279176737     0.892108000000     1.007825032230
         H           -2.130119475582     1.858363176737     0.000000000000     1.007825032230
         H           -2.240514475582     0.329279176737    -0.892108000000     1.007825032230
         H           -0.282063475582    -1.467575823263     0.885522000000     1.007825032230
         H           -0.282063475582    -1.467575823263    -0.885522000000     1.007825032230
         H            2.182257524418    -0.974774823263    -0.885739000000     1.007825032230
         H            2.182257524418    -0.974774823263     0.885739000000     1.007825032230
         H            1.827835524418    -2.466976823263     0.000000000000     1.007825032230

  Basis Set: AUG-CC-PVTZ
    Blend: AUG-CC-PVTZ
  Basis Set: (AUG-CC-PVTZ AUX)
    Blend: AUG-CC-PVTZ-JKFIT
	 Reference Energy          =    -515.8506137524378801 [Eh]
	 Singles Energy            =      -0.0000000000000000 [Eh]
	 Same-Spin Energy          =      -0.1798428246548339 [Eh]
	 Opposite-Spin Energy      =      -0.6438729384925861 [Eh]
	 Correlation Energy        =      -0.8237157631474199 [Eh]
	 Total Energy              =    -516.6743295155853275 [Eh]

	 ================> DF-SCS-MP2 Energies <==================
	-----------------------------------------------------------
	 SCS Same-Spin Scale       =       0.3333333333333333 [-]
	 SCS Opposite-Spin Scale   =       1.2000000000000000 [-]
	 SCS Same-Spin Energy      =      -0.0599476082182780 [Eh]
	 SCS Opposite-Spin Energy  =      -0.7726475261911033 [Eh]
	 SCS Correlation Energy    =      -0.8325951344093813 [Eh]
	 SCS Total Energy          =    -516.6832088868472965 [Eh]
	-----------------------------------------------------------

  Dipole Moment: [D]
     X:    -0.9915      Y:    -1.2897      Z:    -0.0000     Total:     1.6268

*** Psi4 exiting successfully. Buy a developer a beer!
