                               Psi4 1.3.2 release

  ==> Input File <==

--------------------------------------------------------------------------
#psi4
#
memory 32 gb

molecule  {
0 1
  C       -1.8064350     0.8667630     0.0000000
  S        0.1260884     0.8255317     0.0000000
  C        0.2265820    -0.9855290     0.0000000
  C        1.7122270    -1.3240750     0.0000000
  H       -2.2169290     0.3875350     0.8921080
  H       -2.1065340     1.9166190     0.0000000
  H       -2.2169290     0.3875350    -0.8921080
  H       -0.2584780    -1.4093200     0.8855220
  H       -0.2584780    -1.4093200    -0.8855220
  H        2.2058430    -0.9165190    -0.8857390
  H        2.2058430    -0.9165190     0.8857390
  H        1.8514210    -2.4087210     0.0000000
units angstrom
no_reorient  #important for SAPT in psi4, default
symmetry c1  #important for SAPT in psi4, default
}

set PROPERTIES_ORIGIN ["COM"]
properties('MP2/aug-cc-pvtz', properties = ['dipole'])
--------------------------------------------------------------------------

    Molecular point group: c1
  Charge       = 0
  Multiplicity = 1
  Basis Set: AUG-CC-PVTZ
    Blend: AUG-CC-PVTZ
  Basis Set: (AUG-CC-PVTZ AUX)
    Blend: AUG-CC-PVTZ-JKFIT

    Orbital Energies [Eh]
    ---------------------

    Doubly Occupied:

       1A    -91.947610     2A    -11.257455     3A    -11.254382
       4A    -11.220859     5A     -8.946217     6A     -6.627335
       7A     -6.626331     8A     -6.625424     9A     -1.071209
      10A     -0.980163    11A     -0.877280    12A     -0.794009
      13A     -0.627360    14A     -0.592425    15A     -0.577634
      16A     -0.574365    17A     -0.525801    18A     -0.504390
      19A     -0.452255    20A     -0.434222    21A     -0.339204

  @DF-RHF Final Energy:  -515.84304251655442

   => Energetics <=

    Nuclear Repulsion Energy =            167.7375986531201875
    One-Electron Energy =               -1041.4494198570412209
    Two-Electron Energy =                 357.8687786873667278
    Total Energy =                       -515.8430425165543056
  Basis Set: (AUG-CC-PVTZ AUX)
    Blend: AUG-CC-PVTZ-RI
    Molecular point group: c1

    Geometry (in Angstrom), charge = 0, multiplicity = 1:

       Center              X                  Y                   Z               Mass
    ------------   -----------------  -----------------  -----------------  -----------------
         C           -1.869818443985     0.805251969776     0.000000000000    12.000000000000
         S            0.062704956015     0.764020669776     0.000000000000    31.972071174400
         C            0.163198556015    -1.047040030224     0.000000000000    12.000000000000
         C            1.648843556015    -1.385586030224     0.000000000000    12.000000000000
         H           -2.280312443985     0.326023969776     0.892108000000     1.007825032230
         H           -2.169917443985     1.855107969776     0.000000000000     1.007825032230
         H           -2.280312443985     0.326023969776    -0.892108000000     1.007825032230
         H           -0.321861443985    -1.470831030224     0.885522000000     1.007825032230
         H           -0.321861443985    -1.470831030224    -0.885522000000     1.007825032230
         H            2.142459556015    -0.978030030224    -0.885739000000     1.007825032230
         H            2.142459556015    -0.978030030224     0.885739000000     1.007825032230
         H            1.788037556015    -2.470232030224     0.000000000000     1.007825032230

  Basis Set: AUG-CC-PVTZ
    Blend: AUG-CC-PVTZ
  Basis Set: (AUG-CC-PVTZ AUX)
    Blend: AUG-CC-PVTZ-JKFIT
	 Reference Energy          =    -515.8430425165544193 [Eh]
	 Singles Energy            =      -0.0000000000000000 [Eh]
	 Same-Spin Energy          =      -0.1797165299406385 [Eh]
	 Opposite-Spin Energy      =      -0.6450590455335341 [Eh]
	 Correlation Energy        =      -0.8247755754741726 [Eh]
	 Total Energy              =    -516.6678180920285968 [Eh]

	 ================> DF-SCS-MP2 Energies <==================
	-----------------------------------------------------------
	 SCS Same-Spin Scale       =       0.3333333333333333 [-]
	 SCS Opposite-Spin Scale   =       1.2000000000000000 [-]
	 SCS Same-Spin Energy      =      -0.0599055099802128 [Eh]
	 SCS Opposite-Spin Energy  =      -0.7740708546402409 [Eh]
	 SCS Correlation Energy    =      -0.8339763646204538 [Eh]
	 SCS Total Energy          =    -516.6770188811748312 [Eh]
	-----------------------------------------------------------

  Dipole Moment: [D]
     X:    -1.0352      Y:    -1.2720      Z:    -0.0000     Total:     1.6400

*** Psi4 exiting successfully. Buy a developer a beer!
