                               Psi4 1.3.2 release

  ==> Input File <==

--------------------------------------------------------------------------
#psi4
#
memory 32 gb

molecule  {
0 1
  C       -1.8064350     0.8667630     0.0000000
  S       -0.1868723     0.7805671     0.0000000
  C        0.2265820    -0.9855290     0.0000000
  C        1.7122270    -1.3240750     0.0000000
  H       -2.2169290     0.3875350     0.8921080
  H       -2.1065340     1.9166190     0.0000000
  H       -2.2169290     0.3875350    -0.8921080
  H       -0.2584780    -1.4093200     0.8855220
  H       -0.2584780    -1.4093200    -0.8855220
  H        2.2058430    -0.9165190    -0.8857390
  H        2.2058430    -0.9165190     0.8857390
  H        1.8514210    -2.4087210     0.0000000
units angstrom
no_reorient  #important for SAPT in psi4, default
symmetry c1  #important for SAPT in psi4, default
}

set PROPERTIES_ORIGIN ["COM"]
properties('MP2/aug-cc-pvtz', properties = ['dipole'])
--------------------------------------------------------------------------

    Molecular point group: c1
  Charge       = 0
  Multiplicity = 1
  Basis Set: AUG-CC-PVTZ
    Blend: AUG-CC-PVTZ
  Basis Set: (AUG-CC-PVTZ AUX)
    Blend: AUG-CC-PVTZ-JKFIT

    Orbital Energies [Eh]
    ---------------------

    Doubly Occupied:

       1A    -91.926292     2A    -11.255031     3A    -11.237963
       4A    -11.226595     5A     -8.932057     6A     -6.613961
       7A     -6.612526     8A     -6.611389     9A     -1.103126
      10A     -1.021122    11A     -0.876970    12A     -0.781452
      13A     -0.633410    14A     -0.607817    15A     -0.595898
      16A     -0.591667    17A     -0.526311    18A     -0.506570
      19A     -0.505614    20A     -0.409733    21A     -0.321316

  @DF-RHF Final Energy:  -515.82982659496361

   => Energetics <=

    Nuclear Repulsion Energy =            172.6670582846797970
    One-Electron Energy =               -1051.2001296958726471
    Two-Electron Energy =                 362.7032448162292440
    Total Energy =                       -515.8298265949636061
  Basis Set: (AUG-CC-PVTZ AUX)
    Blend: AUG-CC-PVTZ-RI
    Molecular point group: c1

    Geometry (in Angstrom), charge = 0, multiplicity = 1:

       Center              X                  Y                   Z               Mass
    ------------   -----------------  -----------------  -----------------  -----------------
         C           -1.738220561247     0.824159283564     0.000000000000    12.000000000000
         S           -0.118657861247     0.737963383564     0.000000000000    31.972071174400
         C            0.294796438753    -1.028132716436     0.000000000000    12.000000000000
         C            1.780441438753    -1.366678716436     0.000000000000    12.000000000000
         H           -2.148714561247     0.344931283564     0.892108000000     1.007825032230
         H           -2.038319561247     1.874015283564     0.000000000000     1.007825032230
         H           -2.148714561247     0.344931283564    -0.892108000000     1.007825032230
         H           -0.190263561247    -1.451923716436     0.885522000000     1.007825032230
         H           -0.190263561247    -1.451923716436    -0.885522000000     1.007825032230
         H            2.274057438753    -0.959122716436    -0.885739000000     1.007825032230
         H            2.274057438753    -0.959122716436     0.885739000000     1.007825032230
         H            1.919635438753    -2.451324716436     0.000000000000     1.007825032230

  Basis Set: AUG-CC-PVTZ
    Blend: AUG-CC-PVTZ
  Basis Set: (AUG-CC-PVTZ AUX)
    Blend: AUG-CC-PVTZ-JKFIT
	 Reference Energy          =    -515.8298265949636061 [Eh]
	 Singles Energy            =      -0.0000000000000000 [Eh]
	 Same-Spin Energy          =      -0.1814108876325376 [Eh]
	 Opposite-Spin Energy      =      -0.6433850334526290 [Eh]
	 Correlation Energy        =      -0.8247959210851665 [Eh]
	 Total Energy              =    -516.6546225160487893 [Eh]

	 ================> DF-SCS-MP2 Energies <==================
	-----------------------------------------------------------
	 SCS Same-Spin Scale       =       0.3333333333333333 [-]
	 SCS Opposite-Spin Scale   =       1.2000000000000000 [-]
	 SCS Same-Spin Energy      =      -0.0604702958775125 [Eh]
	 SCS Opposite-Spin Energy  =      -0.7720620401431547 [Eh]
	 SCS Correlation Energy    =      -0.8325323360206672 [Eh]
	 SCS Total Energy          =    -516.6623589309842828 [Eh]
	-----------------------------------------------------------

  Dipole Moment: [D]
     X:    -0.9387      Y:    -1.3156      Z:    -0.0000     Total:     1.6162

*** Psi4 exiting successfully. Buy a developer a beer!
