                               Psi4 1.3.2 release

  ==> Input File <==

--------------------------------------------------------------------------
#psi4
#
memory 32 gb

molecule  {
0 1
  C       -1.8064350     0.8667630     0.0000000
  S        0.0000000     0.8141100     0.0000000
  C        0.2265820    -0.9855290     0.0000000
  C        1.7122270    -1.3240750     0.0000000
  H       -2.2169290     0.3875350     0.8921080
  H       -2.1065340     1.9166190     0.0000000
  H       -2.2169290     0.3875350    -0.8921080
  H       -0.2584780    -1.4093200     0.8855220
  H       -0.2584780    -1.4093200    -0.8855220
  H        2.2058430    -0.9165190    -0.8857390
  H        2.2058430    -0.9165190     0.8857390
  H        1.8514210    -2.4087210     0.0000000
units angstrom
no_reorient  #important for SAPT in psi4, default
symmetry c1  #important for SAPT in psi4, default
}

set PROPERTIES_ORIGIN ["COM"]
properties('MP2/aug-cc-pvtz', properties = ['dipole'])
--------------------------------------------------------------------------

    Molecular point group: c1
  Charge       = 0
  Multiplicity = 1
  Basis Set: AUG-CC-PVTZ
    Blend: AUG-CC-PVTZ
  Basis Set: (AUG-CC-PVTZ AUX)
    Blend: AUG-CC-PVTZ-JKFIT

    Orbital Energies [Eh]
    ---------------------

    Doubly Occupied:

       1A    -91.940757     2A    -11.254676     3A    -11.249458
       4A    -11.223100     5A     -8.941342     6A     -6.622658
       7A     -6.621704     8A     -6.620714     9A     -1.077572
      10A     -0.997303    11A     -0.876445    12A     -0.789781
      13A     -0.628864    14A     -0.596899    15A     -0.583424
      16A     -0.578874    17A     -0.526333    18A     -0.505285
      19A     -0.472960    20A     -0.428865    21A     -0.333954

  @DF-RHF Final Energy:  -515.85143650551345

   => Energetics <=

    Nuclear Repulsion Energy =            169.4445934148238280
    One-Electron Energy =               -1044.8501226536375270
    Two-Electron Energy =                 359.5540927333001946
    Total Energy =                       -515.8514365055134476
  Basis Set: (AUG-CC-PVTZ AUX)
    Blend: AUG-CC-PVTZ-RI
    Molecular point group: c1

    Geometry (in Angstrom), charge = 0, multiplicity = 1:

       Center              X                  Y                   Z               Mass
    ------------   -----------------  -----------------  -----------------  -----------------
         C           -1.816799114472     0.810054718291     0.000000000000    12.000000000000
         S           -0.010364114472     0.757401718291     0.000000000000    31.972071174400
         C            0.216217885528    -1.042237281709     0.000000000000    12.000000000000
         C            1.701862885528    -1.380783281709     0.000000000000    12.000000000000
         H           -2.227293114472     0.330826718291     0.892108000000     1.007825032230
         H           -2.116898114472     1.859910718291     0.000000000000     1.007825032230
         H           -2.227293114472     0.330826718291    -0.892108000000     1.007825032230
         H           -0.268842114472    -1.466028281709     0.885522000000     1.007825032230
         H           -0.268842114472    -1.466028281709    -0.885522000000     1.007825032230
         H            2.195478885528    -0.973227281709    -0.885739000000     1.007825032230
         H            2.195478885528    -0.973227281709     0.885739000000     1.007825032230
         H            1.841056885528    -2.465429281709     0.000000000000     1.007825032230

  Basis Set: AUG-CC-PVTZ
    Blend: AUG-CC-PVTZ
  Basis Set: (AUG-CC-PVTZ AUX)
    Blend: AUG-CC-PVTZ-JKFIT
	 Reference Energy          =    -515.8514365055134476 [Eh]
	 Singles Energy            =      -0.0000000000000000 [Eh]
	 Same-Spin Energy          =      -0.1799505020885783 [Eh]
	 Opposite-Spin Energy      =      -0.6435976328585373 [Eh]
	 Correlation Energy        =      -0.8235481349471157 [Eh]
	 Total Energy              =    -516.6749846404605933 [Eh]

	 ================> DF-SCS-MP2 Energies <==================
	-----------------------------------------------------------
	 SCS Same-Spin Scale       =       0.3333333333333333 [-]
	 SCS Opposite-Spin Scale   =       1.2000000000000000 [-]
	 SCS Same-Spin Energy      =      -0.0599835006961928 [Eh]
	 SCS Opposite-Spin Energy  =      -0.7723171594302448 [Eh]
	 SCS Correlation Energy    =      -0.8323006601264376 [Eh]
	 SCS Total Energy          =    -516.6837371656398545 [Eh]
	-----------------------------------------------------------

  Dipole Moment: [D]
     X:    -0.9794      Y:    -1.2954      Z:    -0.0000     Total:     1.6240

*** Psi4 exiting successfully. Buy a developer a beer!
