                               Psi4 1.3.2 release

  ==> Input File <==

--------------------------------------------------------------------------
#psi4
#
memory 32 gb

molecule  {
0 1
  C       -1.8064350     0.8667630     0.0000000
  S        0.0629445     0.8209213     0.0000000
  C        0.2265820    -0.9855290     0.0000000
  C        1.7122270    -1.3240750     0.0000000
  H       -2.2169290     0.3875350     0.8921080
  H       -2.1065340     1.9166190     0.0000000
  H       -2.2169290     0.3875350    -0.8921080
  H       -0.2584780    -1.4093200     0.8855220
  H       -0.2584780    -1.4093200    -0.8855220
  H        2.2058430    -0.9165190    -0.8857390
  H        2.2058430    -0.9165190     0.8857390
  H        1.8514210    -2.4087210     0.0000000
units angstrom
no_reorient  #important for SAPT in psi4, default
symmetry c1  #important for SAPT in psi4, default
}

set PROPERTIES_ORIGIN ["COM"]
properties('MP2/aug-cc-pvtz', properties = ['dipole'])
--------------------------------------------------------------------------

    Molecular point group: c1
  Charge       = 0
  Multiplicity = 1
  Basis Set: AUG-CC-PVTZ
    Blend: AUG-CC-PVTZ
  Basis Set: (AUG-CC-PVTZ AUX)
    Blend: AUG-CC-PVTZ-JKFIT

    Orbital Energies [Eh]
    ---------------------

    Doubly Occupied:

       1A    -91.944443     2A    -11.254536     3A    -11.253455
       4A    -11.221962     5A     -8.943924     6A     -6.625133
       7A     -6.624166     8A     -6.623225     9A     -1.073708
      10A     -0.988515    11A     -0.876773    12A     -0.792016
      13A     -0.628019    14A     -0.594496    15A     -0.580194
      16A     -0.576231    17A     -0.526106    18A     -0.504841
      19A     -0.461820    20A     -0.432840    21A     -0.336848

  @DF-RHF Final Energy:  -515.84887425663908

   => Energetics <=

    Nuclear Repulsion Energy =            168.5490046815708070
    One-Electron Energy =               -1043.0692583359143555
    Two-Electron Energy =                 358.6713793977045270
    Total Energy =                       -515.8488742566390783
  Basis Set: (AUG-CC-PVTZ AUX)
    Blend: AUG-CC-PVTZ-RI
    Molecular point group: c1

    Geometry (in Angstrom), charge = 0, multiplicity = 1:

       Center              X                  Y                   Z               Mass
    ------------   -----------------  -----------------  -----------------  -----------------
         C           -1.843266856045     0.807190612163     0.000000000000    12.000000000000
         S            0.026112643955     0.761348912163     0.000000000000    31.972071174400
         C            0.189750143955    -1.045101387837     0.000000000000    12.000000000000
         C            1.675395143955    -1.383647387837     0.000000000000    12.000000000000
         H           -2.253760856045     0.327962612163     0.892108000000     1.007825032230
         H           -2.143365856045     1.857046612163     0.000000000000     1.007825032230
         H           -2.253760856045     0.327962612163    -0.892108000000     1.007825032230
         H           -0.295309856045    -1.468892387837     0.885522000000     1.007825032230
         H           -0.295309856045    -1.468892387837    -0.885522000000     1.007825032230
         H            2.169011143955    -0.976091387837    -0.885739000000     1.007825032230
         H            2.169011143955    -0.976091387837     0.885739000000     1.007825032230
         H            1.814589143955    -2.468293387837     0.000000000000     1.007825032230

  Basis Set: AUG-CC-PVTZ
    Blend: AUG-CC-PVTZ
  Basis Set: (AUG-CC-PVTZ AUX)
    Blend: AUG-CC-PVTZ-JKFIT
	 Reference Energy          =    -515.8488742566390783 [Eh]
	 Singles Energy            =      -0.0000000000000000 [Eh]
	 Same-Spin Energy          =      -0.1797689769660694 [Eh]
	 Opposite-Spin Energy      =      -0.6442097117702539 [Eh]
	 Correlation Energy        =      -0.8239786887363233 [Eh]
	 Total Energy              =    -516.6728529453754390 [Eh]

	 ================> DF-SCS-MP2 Energies <==================
	-----------------------------------------------------------
	 SCS Same-Spin Scale       =       0.3333333333333333 [-]
	 SCS Opposite-Spin Scale   =       1.2000000000000000 [-]
	 SCS Same-Spin Energy      =      -0.0599229923220231 [Eh]
	 SCS Opposite-Spin Energy  =      -0.7730516541243047 [Eh]
	 SCS Correlation Energy    =      -0.8329746464463278 [Eh]
	 SCS Total Energy          =    -516.6818489030854380 [Eh]
	-----------------------------------------------------------

  Dipole Moment: [D]
     X:    -1.0049      Y:    -1.2838      Z:     0.0000     Total:     1.6303

*** Psi4 exiting successfully. Buy a developer a beer!
