                               Psi4 1.3.2 release

  ==> Input File <==

--------------------------------------------------------------------------
#psi4
#
memory 32 gb

molecule  {
0 1
  C       -1.8064350     0.8667630     0.0000000
  S       -0.0313735     0.8098815     0.0000000
  C        0.2265820    -0.9855290     0.0000000
  C        1.7122270    -1.3240750     0.0000000
  H       -2.2169290     0.3875350     0.8921080
  H       -2.1065340     1.9166190     0.0000000
  H       -2.2169290     0.3875350    -0.8921080
  H       -0.2584780    -1.4093200     0.8855220
  H       -0.2584780    -1.4093200    -0.8855220
  H        2.2058430    -0.9165190    -0.8857390
  H        2.2058430    -0.9165190     0.8857390
  H        1.8514210    -2.4087210     0.0000000
units angstrom
no_reorient  #important for SAPT in psi4, default
symmetry c1  #important for SAPT in psi4, default
}

set PROPERTIES_ORIGIN ["COM"]
properties('MP2/aug-cc-pvtz', properties = ['dipole'])
--------------------------------------------------------------------------

    Molecular point group: c1
  Charge       = 0
  Multiplicity = 1
  Basis Set: AUG-CC-PVTZ
    Blend: AUG-CC-PVTZ
  Basis Set: (AUG-CC-PVTZ AUX)
    Blend: AUG-CC-PVTZ-JKFIT

    Orbital Energies [Eh]
    ---------------------

    Doubly Occupied:

       1A    -91.938708     2A    -11.254741     3A    -11.247473
       4A    -11.223677     5A     -8.939944     6A     -6.621324
       7A     -6.620359     8A     -6.619341     9A     -1.080181
      10A     -1.001723    11A     -0.876367    12A     -0.788563
      13A     -0.629373    14A     -0.598257    15A     -0.585275
      16A     -0.580504    17A     -0.526410    18A     -0.505504
      19A     -0.478620    20A     -0.426346    21A     -0.332282

  @DF-RHF Final Energy:  -515.85122886608895

   => Energetics <=

    Nuclear Repulsion Energy =            169.9249207893019218
    One-Electron Energy =               -1045.8023545212731733
    Two-Electron Energy =                 360.0262048658822778
    Total Energy =                       -515.8512288660889453
  Basis Set: (AUG-CC-PVTZ AUX)
    Blend: AUG-CC-PVTZ-RI
    Molecular point group: c1

    Geometry (in Angstrom), charge = 0, multiplicity = 1:

       Center              X                  Y                   Z               Mass
    ------------   -----------------  -----------------  -----------------  -----------------
         C           -1.803606767401     0.811832774281     0.000000000000    12.000000000000
         S           -0.028545267401     0.754951274281     0.000000000000    31.972071174400
         C            0.229410232599    -1.040459225719     0.000000000000    12.000000000000
         C            1.715055232599    -1.379005225719     0.000000000000    12.000000000000
         H           -2.214100767401     0.332604774281     0.892108000000     1.007825032230
         H           -2.103705767401     1.861688774281     0.000000000000     1.007825032230
         H           -2.214100767401     0.332604774281    -0.892108000000     1.007825032230
         H           -0.255649767401    -1.464250225719     0.885522000000     1.007825032230
         H           -0.255649767401    -1.464250225719    -0.885522000000     1.007825032230
         H            2.208671232599    -0.971449225719    -0.885739000000     1.007825032230
         H            2.208671232599    -0.971449225719     0.885739000000     1.007825032230
         H            1.854249232599    -2.463651225719     0.000000000000     1.007825032230

  Basis Set: AUG-CC-PVTZ
    Blend: AUG-CC-PVTZ
  Basis Set: (AUG-CC-PVTZ AUX)
    Blend: AUG-CC-PVTZ-JKFIT
	 Reference Energy          =    -515.8512288660889453 [Eh]
	 Singles Energy            =      -0.0000000000000000 [Eh]
	 Same-Spin Energy          =      -0.1800937414558125 [Eh]
	 Opposite-Spin Energy      =      -0.6433862111891873 [Eh]
	 Correlation Energy        =      -0.8234799526449998 [Eh]
	 Total Energy              =    -516.6747088187339614 [Eh]

	 ================> DF-SCS-MP2 Energies <==================
	-----------------------------------------------------------
	 SCS Same-Spin Scale       =       0.3333333333333333 [-]
	 SCS Opposite-Spin Scale   =       1.2000000000000000 [-]
	 SCS Same-Spin Energy      =      -0.0600312471519375 [Eh]
	 SCS Opposite-Spin Energy  =      -0.7720634534270246 [Eh]
	 SCS Correlation Energy    =      -0.8320947005789622 [Eh]
	 SCS Total Energy          =    -516.6833235666679229 [Eh]
	-----------------------------------------------------------

  Dipole Moment: [D]
     X:    -0.9687      Y:    -1.3007      Z:     0.0000     Total:     1.6218

*** Psi4 exiting successfully. Buy a developer a beer!
