                               Psi4 1.3.2 release

  ==> Input File <==

--------------------------------------------------------------------------
#psi4
#
memory 32 gb

molecule  {
0 1
  C       -1.8064350     0.8667630     0.0000000
  S       -0.0626685     0.8051061     0.0000000
  C        0.2265820    -0.9855290     0.0000000
  C        1.7122270    -1.3240750     0.0000000
  H       -2.2169290     0.3875350     0.8921080
  H       -2.1065340     1.9166190     0.0000000
  H       -2.2169290     0.3875350    -0.8921080
  H       -0.2584780    -1.4093200     0.8855220
  H       -0.2584780    -1.4093200    -0.8855220
  H        2.2058430    -0.9165190    -0.8857390
  H        2.2058430    -0.9165190     0.8857390
  H        1.8514210    -2.4087210     0.0000000
units angstrom
no_reorient  #important for SAPT in psi4, default
symmetry c1  #important for SAPT in psi4, default
}

set PROPERTIES_ORIGIN ["COM"]
properties('MP2/aug-cc-pvtz', properties = ['dipole'])
--------------------------------------------------------------------------

    Molecular point group: c1
  Charge       = 0
  Multiplicity = 1
  Basis Set: AUG-CC-PVTZ
    Blend: AUG-CC-PVTZ
  Basis Set: (AUG-CC-PVTZ AUX)
    Blend: AUG-CC-PVTZ-JKFIT

    Orbital Energies [Eh]
    ---------------------

    Doubly Occupied:

       1A    -91.936516     2A    -11.254802     3A    -11.245505
       4A    -11.224259     5A     -8.938480     6A     -6.619933
       7A     -6.618938     8A     -6.617891     9A     -1.083347
      10A     -1.006064    11A     -0.876352    12A     -0.787275
      13A     -0.629955    14A     -0.599748    15A     -0.587263
      16A     -0.582343    17A     -0.526458    18A     -0.505720
      19A     -0.484242    20A     -0.423540    21A     -0.330447

  @DF-RHF Final Energy:  -515.84986462254403

   => Energetics <=

    Nuclear Repulsion Energy =            170.4274540087309049
    One-Electron Energy =               -1046.7964818910377289
    Two-Electron Energy =                 360.5191632597627631
    Total Energy =                       -515.8498646225440325
  Basis Set: (AUG-CC-PVTZ AUX)
    Blend: AUG-CC-PVTZ-RI
    Molecular point group: c1

    Geometry (in Angstrom), charge = 0, multiplicity = 1:

       Center              X                  Y                   Z               Mass
    ------------   -----------------  -----------------  -----------------  -----------------
         C           -1.790447429055     0.813840798065     0.000000000000    12.000000000000
         S           -0.046680929055     0.752183898065     0.000000000000    31.972071174400
         C            0.242569570945    -1.038451201935     0.000000000000    12.000000000000
         C            1.728214570945    -1.376997201935     0.000000000000    12.000000000000
         H           -2.200941429055     0.334612798065     0.892108000000     1.007825032230
         H           -2.090546429055     1.863696798065     0.000000000000     1.007825032230
         H           -2.200941429055     0.334612798065    -0.892108000000     1.007825032230
         H           -0.242490429055    -1.462242201935     0.885522000000     1.007825032230
         H           -0.242490429055    -1.462242201935    -0.885522000000     1.007825032230
         H            2.221830570945    -0.969441201935    -0.885739000000     1.007825032230
         H            2.221830570945    -0.969441201935     0.885739000000     1.007825032230
         H            1.867408570945    -2.461643201935     0.000000000000     1.007825032230

  Basis Set: AUG-CC-PVTZ
    Blend: AUG-CC-PVTZ
  Basis Set: (AUG-CC-PVTZ AUX)
    Blend: AUG-CC-PVTZ-JKFIT
	 Reference Energy          =    -515.8498646225440325 [Eh]
	 Singles Energy            =      -0.0000000000000000 [Eh]
	 Same-Spin Energy          =      -0.1802743937801010 [Eh]
	 Opposite-Spin Energy      =      -0.6432412956102400 [Eh]
	 Correlation Energy        =      -0.8235156893903410 [Eh]
	 Total Energy              =    -516.6733803119343520 [Eh]

	 ================> DF-SCS-MP2 Energies <==================
	-----------------------------------------------------------
	 SCS Same-Spin Scale       =       0.3333333333333333 [-]
	 SCS Opposite-Spin Scale   =       1.2000000000000000 [-]
	 SCS Same-Spin Energy      =      -0.0600914645933670 [Eh]
	 SCS Opposite-Spin Energy  =      -0.7718895547322880 [Eh]
	 SCS Correlation Energy    =      -0.8319810193256550 [Eh]
	 SCS Total Energy          =    -516.6818456418696996 [Eh]
	-----------------------------------------------------------

  Dipole Moment: [D]
     X:    -0.9596      Y:    -1.3055      Z:     0.0000     Total:     1.6202

*** Psi4 exiting successfully. Buy a developer a beer!
