                               Psi4 1.3.2 release

  ==> Input File <==

--------------------------------------------------------------------------
#psi4
#
memory 32 gb

molecule  {
0 1
  C       -1.8064350     0.8667630     0.0000000
  S        0.1893547     0.8279357     0.0000000
  C        0.2265820    -0.9855290     0.0000000
  C        1.7122270    -1.3240750     0.0000000
  H       -2.2169290     0.3875350     0.8921080
  H       -2.1065340     1.9166190     0.0000000
  H       -2.2169290     0.3875350    -0.8921080
  H       -0.2584780    -1.4093200     0.8855220
  H       -0.2584780    -1.4093200    -0.8855220
  H        2.2058430    -0.9165190    -0.8857390
  H        2.2058430    -0.9165190     0.8857390
  H        1.8514210    -2.4087210     0.0000000
units angstrom
no_reorient  #important for SAPT in psi4, default
symmetry c1  #important for SAPT in psi4, default
}

set PROPERTIES_ORIGIN ["COM"]
properties('MP2/aug-cc-pvtz', properties = ['dipole'])
--------------------------------------------------------------------------

    Molecular point group: c1
  Charge       = 0
  Multiplicity = 1
  Basis Set: AUG-CC-PVTZ
    Blend: AUG-CC-PVTZ
  Basis Set: (AUG-CC-PVTZ AUX)
    Blend: AUG-CC-PVTZ-JKFIT

    Orbital Energies [Eh]
    ---------------------

    Doubly Occupied:

       1A    -91.950301     2A    -11.261420     3A    -11.254218
       4A    -11.219809     5A     -8.948230     6A     -6.629264
       7A     -6.628215     8A     -6.627326     9A     -1.069696
      10A     -0.972531    11A     -0.877887    12A     -0.795810
      13A     -0.626856    14A     -0.590625    15A     -0.575741
      16A     -0.573200    17A     -0.525442    18A     -0.503940
      19A     -0.448026    20A     -0.429438    21A     -0.341101

  @DF-RHF Final Energy:  -515.83463460175381

   => Energetics <=

    Nuclear Repulsion Energy =            167.0073698054065403
    One-Electron Energy =               -1039.9858559591564244
    Two-Electron Energy =                 357.1438515519960788
    Total Energy =                       -515.8346346017538053
  Basis Set: (AUG-CC-PVTZ AUX)
    Blend: AUG-CC-PVTZ-RI
    Molecular point group: c1

    Geometry (in Angstrom), charge = 0, multiplicity = 1:

       Center              X                  Y                   Z               Mass
    ------------   -----------------  -----------------  -----------------  -----------------
         C           -1.896421500307     0.804241103842     0.000000000000    12.000000000000
         S            0.099368199693     0.765413803842     0.000000000000    31.972071174400
         C            0.136595499693    -1.048050896158     0.000000000000    12.000000000000
         C            1.622240499693    -1.386596896158     0.000000000000    12.000000000000
         H           -2.306915500307     0.325013103842     0.892108000000     1.007825032230
         H           -2.196520500307     1.854097103842     0.000000000000     1.007825032230
         H           -2.306915500307     0.325013103842    -0.892108000000     1.007825032230
         H           -0.348464500307    -1.471841896158     0.885522000000     1.007825032230
         H           -0.348464500307    -1.471841896158    -0.885522000000     1.007825032230
         H            2.115856499693    -0.979040896158    -0.885739000000     1.007825032230
         H            2.115856499693    -0.979040896158     0.885739000000     1.007825032230
         H            1.761434499693    -2.471242896158     0.000000000000     1.007825032230

  Basis Set: AUG-CC-PVTZ
    Blend: AUG-CC-PVTZ
  Basis Set: (AUG-CC-PVTZ AUX)
    Blend: AUG-CC-PVTZ-JKFIT
	 Reference Energy          =    -515.8346346017538053 [Eh]
	 Singles Energy            =      -0.0000000000000000 [Eh]
	 Same-Spin Energy          =      -0.1797821450180656 [Eh]
	 Opposite-Spin Energy      =      -0.6461304335485039 [Eh]
	 Correlation Energy        =      -0.8259125785665694 [Eh]
	 Total Energy              =    -516.6605471803203500 [Eh]

	 ================> DF-SCS-MP2 Energies <==================
	-----------------------------------------------------------
	 SCS Same-Spin Scale       =       0.3333333333333333 [-]
	 SCS Opposite-Spin Scale   =       1.2000000000000000 [-]
	 SCS Same-Spin Energy      =      -0.0599273816726885 [Eh]
	 SCS Opposite-Spin Energy  =      -0.7753565202582046 [Eh]
	 SCS Correlation Energy    =      -0.8352839019308931 [Eh]
	 SCS Total Energy          =    -516.6699185036846984 [Eh]
	-----------------------------------------------------------

  Dipole Moment: [D]
     X:    -1.0685      Y:    -1.2614      Z:     0.0000     Total:     1.6531

*** Psi4 exiting successfully. Buy a developer a beer!
