                               Psi4 1.3.2 release

  ==> Input File <==

--------------------------------------------------------------------------
#psi4
#
memory 32 gb

molecule  {
0 1
  C        0.0002360     0.0000040     0.0000020
  H       -0.3229293    -0.4049045     0.8440697
  H       -0.3659890     1.0243310    -0.0745320
  H       -0.3700890    -0.5801200    -0.8457390
  H        1.0902240     0.0015530    -0.0090400
units angstrom
no_reorient  #important for SAPT in psi4, default
symmetry c1  #important for SAPT in psi4, default
}

set PROPERTIES_ORIGIN ["COM"]
properties('MP2/aug-cc-pvtz', properties = ['dipole'])
--------------------------------------------------------------------------

    Molecular point group: c1
  Charge       = 0
  Multiplicity = 1
  Basis Set: AUG-CC-PVTZ
    Blend: AUG-CC-PVTZ
  Basis Set: (AUG-CC-PVTZ AUX)
    Blend: AUG-CC-PVTZ-JKFIT

    Orbital Energies [Eh]
    ---------------------

    Doubly Occupied:

       1A    -11.194755     2A     -0.954629     3A     -0.567486
       4A     -0.542977     5A     -0.542705

  @DF-RHF Final Energy:   -40.20698857876539

   => Energetics <=

    Nuclear Repulsion Energy =             13.7681219244556079
    One-Electron Energy =                 -80.3451177768036189
    Two-Electron Energy =                  26.3700072735826154
    Total Energy =                        -40.2069885787653902
  Basis Set: (AUG-CC-PVTZ AUX)
    Blend: AUG-CC-PVTZ-RI
    Molecular point group: c1

    Geometry (in Angstrom), charge = 0, multiplicity = 1:

       Center              X                  Y                   Z               Mass
    ------------   -----------------  -----------------  -----------------  -----------------
         C           -0.001903126048    -0.002567670830     0.005359289504    12.000000000000
         H           -0.325068426048    -0.407476170830     0.849426989504     1.007825032230
         H           -0.368128126048     1.021759329170    -0.069174710496     1.007825032230
         H           -0.372228126048    -0.582691670830    -0.840381710496     1.007825032230
         H            1.088084873952    -0.001018670830    -0.003682710496     1.007825032230

  Basis Set: AUG-CC-PVTZ
    Blend: AUG-CC-PVTZ
  Basis Set: (AUG-CC-PVTZ AUX)
    Blend: AUG-CC-PVTZ-JKFIT
	 Reference Energy          =     -40.2069885787653902 [Eh]
	 Singles Energy            =      -0.0000000000000000 [Eh]
	 Same-Spin Energy          =      -0.0393617959179567 [Eh]
	 Opposite-Spin Energy      =      -0.1798201472905879 [Eh]
	 Correlation Energy        =      -0.2191819432085447 [Eh]
	 Total Energy              =     -40.4261705219739369 [Eh]

	 ================> DF-SCS-MP2 Energies <==================
	-----------------------------------------------------------
	 SCS Same-Spin Scale       =       0.3333333333333333 [-]
	 SCS Opposite-Spin Scale   =       1.2000000000000000 [-]
	 SCS Same-Spin Energy      =      -0.0131205986393189 [Eh]
	 SCS Opposite-Spin Energy  =      -0.2157841767487055 [Eh]
	 SCS Correlation Energy    =      -0.2289047753880244 [Eh]
	 SCS Total Energy          =     -40.4358933541534142 [Eh]
	-----------------------------------------------------------

  Dipole Moment: [D]
     X:    -0.0162      Y:    -0.0199      Z:     0.0414     Total:     0.0487

*** Psi4 exiting successfully. Buy a developer a beer!
