                               Psi4 1.4a3.dev225

  ==> Input File <==

--------------------------------------------------------------------------
#psi4
#
memory 32 gb

molecule  {
0 1
  C        0.0000040     0.0000000     0.0000000
  H       -0.4094101    -0.5164348    -0.9302551
  H       -0.3891130    -0.4936310     0.8905680
  H       -0.3079410     1.0456400     0.0003140
  H        1.0884860    -0.0582250    -0.0014260
units angstrom
no_reorient  #important for SAPT in psi4, default
symmetry c1  #important for SAPT in psi4, default
}

set PROPERTIES_ORIGIN ["COM"]
properties('MP2/aug-cc-pvtz', properties = ['dipole'])
--------------------------------------------------------------------------

    Molecular point group: c1
  Charge       = 0
  Multiplicity = 1
  Basis Set: AUG-CC-PVTZ
    Blend: AUG-CC-PVTZ
  Basis Set: (AUG-CC-PVTZ AUX)
    Blend: AUG-CC-PVTZ-JKFIT

    Orbital Energies [Eh]
    ---------------------

    Doubly Occupied:

       1A    -11.213538     2A     -0.937640     3A     -0.545528
       4A     -0.545524     5A     -0.533002

  @DF-RHF Final Energy:   -40.21157465705367

   => Energetics <=

    Nuclear Repulsion Energy =             13.2870140126906069
    One-Electron Energy =                 -79.4467117437994403
    Two-Electron Energy =                  25.9481230740551645
    Total Energy =                        -40.2115746570536743
  Basis Set: (AUG-CC-PVTZ AUX)
    Blend: AUG-CC-PVTZ-RI
    Molecular point group: c1

    Geometry (in Angstrom), charge = 0, multiplicity = 1:

       Center              X                  Y                   Z               Mass
    ------------   -----------------  -----------------  -----------------  -----------------
         C            0.001131218570     0.001423967055     0.002564879576    12.000000000000
         H           -0.408282881430    -0.515010832945    -0.927690220424     1.007825032230
         H           -0.387985781430    -0.492207032945     0.893132879576     1.007825032230
         H           -0.306813781430     1.047063967055     0.002878879576     1.007825032230
         H            1.089613218570    -0.056801032945     0.001138879576     1.007825032230

  Basis Set: AUG-CC-PVTZ
    Blend: AUG-CC-PVTZ
  Basis Set: (AUG-CC-PVTZ AUX)
    Blend: AUG-CC-PVTZ-JKFIT
	 Reference Energy          =     -40.2115746570536672 [Eh]
	 Singles Energy            =      -0.0000000000000000 [Eh]
	 Same-Spin Energy          =      -0.0391138772298739 [Eh]
	 Opposite-Spin Energy      =      -0.1803918439313378 [Eh]
	 Correlation Energy        =      -0.2195057211612117 [Eh]
	 Total Energy              =     -40.4310803782148795 [Eh]

	 ================> DF-SCS-MP2 Energies <==================
	-----------------------------------------------------------
	 SCS Same-Spin Scale       =       0.3333333333333333 [-]
	 SCS Opposite-Spin Scale   =       1.2000000000000000 [-]
	 SCS Same-Spin Energy      =      -0.0130379590766246 [Eh]
	 SCS Opposite-Spin Energy  =      -0.2164702127176053 [Eh]
	 SCS Correlation Energy    =      -0.2295081717942300 [Eh]
	 SCS Total Energy          =     -40.4410828288478967 [Eh]
	-----------------------------------------------------------

  Dipole Moment: [D]
     X:     0.0105      Y:     0.0132      Z:     0.0239     Total:     0.0292

*** Psi4 exiting successfully. Buy a developer a beer!
