                               Psi4 1.3.2 release

  ==> Input File <==

--------------------------------------------------------------------------
#psi4
#
memory 32 gb

molecule  {
0 1
  C        0.0002360     0.0000040     0.0000020
  H       -0.3881907    -0.4866735     1.0145243
  H       -0.3659890     1.0243310    -0.0745320
  H       -0.3700890    -0.5801200    -0.8457390
  H        1.0902240     0.0015530    -0.0090400
units angstrom
no_reorient  #important for SAPT in psi4, default
symmetry c1  #important for SAPT in psi4, default
}

set PROPERTIES_ORIGIN ["COM"]
properties('MP2/aug-cc-pvtz', properties = ['dipole'])
--------------------------------------------------------------------------

    Molecular point group: c1
  Charge       = 0
  Multiplicity = 1
  Basis Set: AUG-CC-PVTZ
    Blend: AUG-CC-PVTZ
  Basis Set: (AUG-CC-PVTZ AUX)
    Blend: AUG-CC-PVTZ-JKFIT

    Orbital Energies [Eh]
    ---------------------

    Doubly Occupied:

       1A    -11.219709     2A     -0.933736     3A     -0.546814
       4A     -0.546537     5A     -0.521539

  @DF-RHF Final Energy:   -40.20719212751752

   => Energetics <=

    Nuclear Repulsion Energy =             13.1476510811640637
    One-Electron Energy =                 -79.1730164672349304
    Two-Electron Energy =                  25.8181732585533474
    Total Energy =                        -40.2071921275175157
  Basis Set: (AUG-CC-PVTZ AUX)
    Blend: AUG-CC-PVTZ-RI
    Molecular point group: c1

    Geometry (in Angstrom), charge = 0, multiplicity = 1:

       Center              X                  Y                   Z               Mass
    ------------   -----------------  -----------------  -----------------  -----------------
         C            0.002199602491     0.002572825848    -0.005356523397    12.000000000000
         H           -0.386227097509    -0.484104674152     1.009165776603     1.007825032230
         H           -0.364025397509     1.026899825848    -0.079890523397     1.007825032230
         H           -0.368125397509    -0.577551174152    -0.851097523397     1.007825032230
         H            1.092187602491     0.004121825848    -0.014398523397     1.007825032230

  Basis Set: AUG-CC-PVTZ
    Blend: AUG-CC-PVTZ
  Basis Set: (AUG-CC-PVTZ AUX)
    Blend: AUG-CC-PVTZ-JKFIT
	 Reference Energy          =     -40.2071921275175157 [Eh]
	 Singles Energy            =      -0.0000000000000000 [Eh]
	 Same-Spin Energy          =      -0.0390357687299269 [Eh]
	 Opposite-Spin Energy      =      -0.1806921169298510 [Eh]
	 Correlation Energy        =      -0.2197278856597780 [Eh]
	 Total Energy              =     -40.4269200131772948 [Eh]

	 ================> DF-SCS-MP2 Energies <==================
	-----------------------------------------------------------
	 SCS Same-Spin Scale       =       0.3333333333333333 [-]
	 SCS Opposite-Spin Scale   =       1.2000000000000000 [-]
	 SCS Same-Spin Energy      =      -0.0130119229099756 [Eh]
	 SCS Opposite-Spin Energy  =      -0.2168305403158212 [Eh]
	 SCS Correlation Energy    =      -0.2298424632257969 [Eh]
	 SCS Total Energy          =     -40.4370345907433091 [Eh]
	-----------------------------------------------------------

  Dipole Moment: [D]
     X:     0.0196      Y:     0.0252      Z:    -0.0525     Total:     0.0615

*** Psi4 exiting successfully. Buy a developer a beer!
