                               Psi4 1.3.2 release

  ==> Input File <==

--------------------------------------------------------------------------
#psi4
#
memory 32 gb

molecule  {
0 1
  C        0.0002360     0.0000040     0.0000020
  H       -0.2998944    -0.5404455     0.8981932
  H       -0.3659890     1.0243310    -0.0745320
  H       -0.3700890    -0.5801200    -0.8457390
  H        1.0902240     0.0015530    -0.0090400
units angstrom
no_reorient  #important for SAPT in psi4, default
symmetry c1  #important for SAPT in psi4, default
}

set PROPERTIES_ORIGIN ["COM"]
properties('MP2/aug-cc-pvtz', properties = ['dipole'])
--------------------------------------------------------------------------

    Molecular point group: c1
  Charge       = 0
  Multiplicity = 1
  Basis Set: AUG-CC-PVTZ
    Blend: AUG-CC-PVTZ
  Basis Set: (AUG-CC-PVTZ AUX)
    Blend: AUG-CC-PVTZ-JKFIT

    Orbital Energies [Eh]
    ---------------------

    Doubly Occupied:

       1A    -11.207511     2A     -0.942498     3A     -0.556242
       4A     -0.544432     5A     -0.532079

  @DF-RHF Final Energy:   -40.21235525115746

   => Energetics <=

    Nuclear Repulsion Energy =             13.4332678524896760
    One-Electron Energy =                 -79.7257213850156319
    Two-Electron Energy =                  26.0800982813684961
    Total Energy =                        -40.2123552511574616
  Basis Set: (AUG-CC-PVTZ AUX)
    Blend: AUG-CC-PVTZ-RI
    Molecular point group: c1

    Geometry (in Angstrom), charge = 0, multiplicity = 1:

       Center              X                  Y                   Z               Mass
    ------------   -----------------  -----------------  -----------------  -----------------
         C           -0.003351239965     0.005953260822     0.001956757102    12.000000000000
         H           -0.303481639965    -0.534496239178     0.900147957102     1.007825032230
         H           -0.369576239965     1.030280260822    -0.072577242898     1.007825032230
         H           -0.373676239965    -0.574170739178    -0.843784242898     1.007825032230
         H            1.086636760035     0.007502260822    -0.007085242898     1.007825032230

  Basis Set: AUG-CC-PVTZ
    Blend: AUG-CC-PVTZ
  Basis Set: (AUG-CC-PVTZ AUX)
    Blend: AUG-CC-PVTZ-JKFIT
	 Reference Energy          =     -40.2123552511574616 [Eh]
	 Singles Energy            =      -0.0000000000000000 [Eh]
	 Same-Spin Energy          =      -0.0392388789625946 [Eh]
	 Opposite-Spin Energy      =      -0.1802058623667069 [Eh]
	 Correlation Energy        =      -0.2194447413293016 [Eh]
	 Total Energy              =     -40.4317999924867664 [Eh]

	 ================> DF-SCS-MP2 Energies <==================
	-----------------------------------------------------------
	 SCS Same-Spin Scale       =       0.3333333333333333 [-]
	 SCS Opposite-Spin Scale   =       1.2000000000000000 [-]
	 SCS Same-Spin Energy      =      -0.0130796263208649 [Eh]
	 SCS Opposite-Spin Energy  =      -0.2162470348400483 [Eh]
	 SCS Correlation Energy    =      -0.2293266611609132 [Eh]
	 SCS Total Energy          =     -40.4416819123183728 [Eh]
	-----------------------------------------------------------

  Dipole Moment: [D]
     X:     0.0155      Y:    -0.0268      Z:    -0.0092     Total:     0.0323

*** Psi4 exiting successfully. Buy a developer a beer!
