                               Psi4 1.3.2 release

  ==> Input File <==

--------------------------------------------------------------------------
#psi4
#
memory 32 gb

molecule  {
0 1
  C        0.0002360     0.0000040     0.0000020
  H       -0.3555600    -0.4457890     0.9292970
  H       -0.3659890     1.0243310    -0.0745320
  H       -0.3700890    -0.5801200    -0.8457390
  H        1.0902240     0.0015530    -0.0090400
units angstrom
no_reorient  #important for SAPT in psi4, default
symmetry c1  #important for SAPT in psi4, default
}

set PROPERTIES_ORIGIN ["COM"]
properties('MP2/aug-cc-pvtz', properties = ['dipole'])
--------------------------------------------------------------------------

    Molecular point group: c1
  Charge       = 0
  Multiplicity = 1
  Basis Set: AUG-CC-PVTZ
    Blend: AUG-CC-PVTZ
  Basis Set: (AUG-CC-PVTZ AUX)
    Blend: AUG-CC-PVTZ-JKFIT

    Orbital Energies [Eh]
    ---------------------

    Doubly Occupied:

       1A    -11.207462     2A     -0.942230     3A     -0.544632
       4A     -0.544330     5A     -0.544320

  @DF-RHF Final Energy:   -40.21352429670148

   => Energetics <=

    Nuclear Repulsion Energy =             13.4317818212412661
    One-Electron Energy =                 -79.7246635635365664
    Two-Electron Energy =                  26.0793574455938142
    Total Energy =                        -40.2135242967014790
  Basis Set: (AUG-CC-PVTZ AUX)
    Blend: AUG-CC-PVTZ-RI
    Molecular point group: c1

    Geometry (in Angstrom), charge = 0, multiplicity = 1:

       Center              X                  Y                   Z               Mass
    ------------   -----------------  -----------------  -----------------  -----------------
         C            0.000148238222     0.000002577509     0.000001383054    12.000000000000
         H           -0.355647761778    -0.445790422491     0.929296383054     1.007825032230
         H           -0.366076761778     1.024329577509    -0.074532616946     1.007825032230
         H           -0.370176761778    -0.580121422491    -0.845739616946     1.007825032230
         H            1.090136238222     0.001551577509    -0.009040616946     1.007825032230

  Basis Set: AUG-CC-PVTZ
    Blend: AUG-CC-PVTZ
  Basis Set: (AUG-CC-PVTZ AUX)
    Blend: AUG-CC-PVTZ-JKFIT
	 Reference Energy          =     -40.2135242967014790 [Eh]
	 Singles Energy            =      -0.0000000000000000 [Eh]
	 Same-Spin Energy          =      -0.0391892340730649 [Eh]
	 Opposite-Spin Energy      =      -0.1801442766039145 [Eh]
	 Correlation Energy        =      -0.2193335106769795 [Eh]
	 Total Energy              =     -40.4328578073784612 [Eh]

	 ================> DF-SCS-MP2 Energies <==================
	-----------------------------------------------------------
	 SCS Same-Spin Scale       =       0.3333333333333333 [-]
	 SCS Opposite-Spin Scale   =       1.2000000000000000 [-]
	 SCS Same-Spin Energy      =      -0.0130630780243550 [Eh]
	 SCS Opposite-Spin Energy  =      -0.2161731319246974 [Eh]
	 SCS Correlation Energy    =      -0.2292362099490524 [Eh]
	 SCS Total Energy          =     -40.4427605066505294 [Eh]
	-----------------------------------------------------------

  Dipole Moment: [D]
     X:    -0.0004      Y:    -0.0000      Z:     0.0000     Total:     0.0004

*** Psi4 exiting successfully. Buy a developer a beer!
