                               Psi4 1.3.2 release

  ==> Input File <==

--------------------------------------------------------------------------
#psi4
#
memory 32 gb

molecule  {
0 1
  C        0.0002360     0.0000040     0.0000020
  H       -0.4073274    -0.3462483     0.9502193
  H       -0.3659890     1.0243310    -0.0745320
  H       -0.3700890    -0.5801200    -0.8457390
  H        1.0902240     0.0015530    -0.0090400
units angstrom
no_reorient  #important for SAPT in psi4, default
symmetry c1  #important for SAPT in psi4, default
}

set PROPERTIES_ORIGIN ["COM"]
properties('MP2/aug-cc-pvtz', properties = ['dipole'])
--------------------------------------------------------------------------

    Molecular point group: c1
  Charge       = 0
  Multiplicity = 1
  Basis Set: AUG-CC-PVTZ
    Blend: AUG-CC-PVTZ
  Basis Set: (AUG-CC-PVTZ AUX)
    Blend: AUG-CC-PVTZ-JKFIT

    Orbital Energies [Eh]
    ---------------------

    Doubly Occupied:

       1A    -11.207509     2A     -0.942516     3A     -0.556374
       4A     -0.544725     5A     -0.531655

  @DF-RHF Final Energy:   -40.21233563430090

   => Energetics <=

    Nuclear Repulsion Energy =             13.4333570778901219
    One-Electron Energy =                 -79.7258265375664479
    Two-Electron Energy =                  26.0801338253754267
    Total Energy =                        -40.2123356343008993
  Basis Set: (AUG-CC-PVTZ AUX)
    Blend: AUG-CC-PVTZ-RI
    Molecular point group: c1

    Geometry (in Angstrom), charge = 0, multiplicity = 1:

       Center              X                  Y                   Z               Mass
    ------------   -----------------  -----------------  -----------------  -----------------
         C            0.003402651847    -0.006255156323    -0.001313919979    12.000000000000
         H           -0.404160748153    -0.352507456323     0.948903380021     1.007825032230
         H           -0.362822348153     1.018071843677    -0.075847919979     1.007825032230
         H           -0.366922348153    -0.586379156323    -0.847054919979     1.007825032230
         H            1.093390651847    -0.004706156323    -0.010355919979     1.007825032230

  Basis Set: AUG-CC-PVTZ
    Blend: AUG-CC-PVTZ
  Basis Set: (AUG-CC-PVTZ AUX)
    Blend: AUG-CC-PVTZ-JKFIT
	 Reference Energy          =     -40.2123356343008993 [Eh]
	 Singles Energy            =      -0.0000000000000000 [Eh]
	 Same-Spin Energy          =      -0.0392411194340918 [Eh]
	 Opposite-Spin Energy      =      -0.1802086034323325 [Eh]
	 Correlation Energy        =      -0.2194497228664243 [Eh]
	 Total Energy              =     -40.4317853571673211 [Eh]

	 ================> DF-SCS-MP2 Energies <==================
	-----------------------------------------------------------
	 SCS Same-Spin Scale       =       0.3333333333333333 [-]
	 SCS Opposite-Spin Scale   =       1.2000000000000000 [-]
	 SCS Same-Spin Energy      =      -0.0130803731446973 [Eh]
	 SCS Opposite-Spin Energy  =      -0.2162503241187990 [Eh]
	 SCS Correlation Energy    =      -0.2293306972634963 [Eh]
	 SCS Total Energy          =     -40.4416663315643987 [Eh]
	-----------------------------------------------------------

  Dipole Moment: [D]
     X:    -0.0166      Y:     0.0316      Z:     0.0063     Total:     0.0362

*** Psi4 exiting successfully. Buy a developer a beer!
