                               Psi4 1.3.2 release

  ==> Input File <==

--------------------------------------------------------------------------
#psi4
#
memory 32 gb

molecule  {
0 1
  C        0.0002360     0.0000040     0.0000020
  H       -0.4208214    -0.5275580     1.0997516
  H       -0.3659890     1.0243310    -0.0745320
  H       -0.3700890    -0.5801200    -0.8457390
  H        1.0902240     0.0015530    -0.0090400
units angstrom
no_reorient  #important for SAPT in psi4, default
symmetry c1  #important for SAPT in psi4, default
}

set PROPERTIES_ORIGIN ["COM"]
properties('MP2/aug-cc-pvtz', properties = ['dipole'])
--------------------------------------------------------------------------

    Molecular point group: c1
  Charge       = 0
  Multiplicity = 1
  Basis Set: AUG-CC-PVTZ
    Blend: AUG-CC-PVTZ
  Basis Set: (AUG-CC-PVTZ AUX)
    Blend: AUG-CC-PVTZ-JKFIT

    Orbital Energies [Eh]
    ---------------------

    Doubly Occupied:

       1A    -11.231279     2A     -0.928441     3A     -0.549596
       4A     -0.549317     5A     -0.499514

  @DF-RHF Final Energy:   -40.19363650037271

   => Energetics <=

    Nuclear Repulsion Energy =             12.9041015032179356
    One-Electron Energy =                 -78.6791803406229633
    Two-Electron Energy =                  25.5814423370323212
    Total Energy =                        -40.1936365003727119
  Basis Set: (AUG-CC-PVTZ AUX)
    Blend: AUG-CC-PVTZ-RI
    Molecular point group: c1

    Geometry (in Angstrom), charge = 0, multiplicity = 1:

       Center              X                  Y                   Z               Mass
    ------------   -----------------  -----------------  -----------------  -----------------
         C            0.004250966761     0.005143074188    -0.010714429847    12.000000000000
         H           -0.416806433239    -0.522418925812     1.089035170153     1.007825032230
         H           -0.361974033239     1.029470074188    -0.085248429847     1.007825032230
         H           -0.366074033239    -0.574980925812    -0.856455429847     1.007825032230
         H            1.094238966761     0.006692074188    -0.019756429847     1.007825032230

  Basis Set: AUG-CC-PVTZ
    Blend: AUG-CC-PVTZ
  Basis Set: (AUG-CC-PVTZ AUX)
    Blend: AUG-CC-PVTZ-JKFIT
	 Reference Energy          =     -40.1936365003727119 [Eh]
	 Singles Energy            =      -0.0000000000000000 [Eh]
	 Same-Spin Energy          =      -0.0388700448467689 [Eh]
	 Opposite-Spin Energy      =      -0.1813789239624718 [Eh]
	 Correlation Energy        =      -0.2202489688092407 [Eh]
	 Total Energy              =     -40.4138854691819560 [Eh]

	 ================> DF-SCS-MP2 Energies <==================
	-----------------------------------------------------------
	 SCS Same-Spin Scale       =       0.3333333333333333 [-]
	 SCS Opposite-Spin Scale   =       1.2000000000000000 [-]
	 SCS Same-Spin Energy      =      -0.0129566816155896 [Eh]
	 SCS Opposite-Spin Energy  =      -0.2176547087549662 [Eh]
	 SCS Correlation Energy    =      -0.2306113903705558 [Eh]
	 SCS Total Energy          =     -40.4242478907432670 [Eh]
	-----------------------------------------------------------

  Dipole Moment: [D]
     X:     0.0433      Y:     0.0549      Z:    -0.1145     Total:     0.1342

*** Psi4 exiting successfully. Buy a developer a beer!
