                               Psi4 1.3.2 release

  ==> Input File <==

--------------------------------------------------------------------------
#psi4
#
memory 32 gb

molecule  {
0 1
  C        0.0002360     0.0000040     0.0000020
  H       -0.3188459    -0.5095013     0.9096736
  H       -0.3659890     1.0243310    -0.0745320
  H       -0.3700890    -0.5801200    -0.8457390
  H        1.0902240     0.0015530    -0.0090400
units angstrom
no_reorient  #important for SAPT in psi4, default
symmetry c1  #important for SAPT in psi4, default
}

set PROPERTIES_ORIGIN ["COM"]
properties('MP2/aug-cc-pvtz', properties = ['dipole'])
--------------------------------------------------------------------------

    Molecular point group: c1
  Charge       = 0
  Multiplicity = 1
  Basis Set: AUG-CC-PVTZ
    Blend: AUG-CC-PVTZ
  Basis Set: (AUG-CC-PVTZ AUX)
    Blend: AUG-CC-PVTZ-JKFIT

    Orbital Energies [Eh]
    ---------------------

    Doubly Occupied:

       1A    -11.207484     2A     -0.942350     3A     -0.552357
       4A     -0.544451     5A     -0.536240

  @DF-RHF Final Energy:   -40.21300637421032

   => Energetics <=

    Nuclear Repulsion Energy =             13.4324423306389118
    One-Electron Energy =                 -79.7251346963743117
    Two-Electron Energy =                  26.0796859915250892
    Total Energy =                        -40.2130063742103161
  Basis Set: (AUG-CC-PVTZ AUX)
    Blend: AUG-CC-PVTZ-RI
    Molecular point group: c1

    Geometry (in Angstrom), charge = 0, multiplicity = 1:

       Center              X                  Y                   Z               Mass
    ------------   -----------------  -----------------  -----------------  -----------------
         C           -0.002159833408     0.004007920201     0.001235029332    12.000000000000
         H           -0.321241733408    -0.505497379799     0.910906629332     1.007825032230
         H           -0.368384833408     1.028334920201    -0.073298970668     1.007825032230
         H           -0.372484833408    -0.576116079799    -0.844505970668     1.007825032230
         H            1.087828166592     0.005556920201    -0.007806970668     1.007825032230

  Basis Set: AUG-CC-PVTZ
    Blend: AUG-CC-PVTZ
  Basis Set: (AUG-CC-PVTZ AUX)
    Blend: AUG-CC-PVTZ-JKFIT
	 Reference Energy          =     -40.2130063742103161 [Eh]
	 Singles Energy            =      -0.0000000000000000 [Eh]
	 Same-Spin Energy          =      -0.0392112679810505 [Eh]
	 Opposite-Spin Energy      =      -0.1801715476418786 [Eh]
	 Correlation Energy        =      -0.2193828156229291 [Eh]
	 Total Energy              =     -40.4323891898332448 [Eh]

	 ================> DF-SCS-MP2 Energies <==================
	-----------------------------------------------------------
	 SCS Same-Spin Scale       =       0.3333333333333333 [-]
	 SCS Opposite-Spin Scale   =       1.2000000000000000 [-]
	 SCS Same-Spin Energy      =      -0.0130704226603502 [Eh]
	 SCS Opposite-Spin Energy  =      -0.2162058571702543 [Eh]
	 SCS Correlation Energy    =      -0.2292762798306045 [Eh]
	 SCS Total Energy          =     -40.4422826540409233 [Eh]
	-----------------------------------------------------------

  Dipole Moment: [D]
     X:     0.0102      Y:    -0.0183      Z:    -0.0058     Total:     0.0217

*** Psi4 exiting successfully. Buy a developer a beer!
