                               Psi4 1.3.2 release

  ==> Input File <==

--------------------------------------------------------------------------
#psi4
#
memory 32 gb

molecule  {
0 1
  C        0.0002360     0.0000040     0.0000020
  H       -0.3732779    -0.4130986     0.9374160
  H       -0.3659890     1.0243310    -0.0745320
  H       -0.3700890    -0.5801200    -0.8457390
  H        1.0902240     0.0015530    -0.0090400
units angstrom
no_reorient  #important for SAPT in psi4, default
symmetry c1  #important for SAPT in psi4, default
}

set PROPERTIES_ORIGIN ["COM"]
properties('MP2/aug-cc-pvtz', properties = ['dipole'])
--------------------------------------------------------------------------

    Molecular point group: c1
  Charge       = 0
  Multiplicity = 1
  Basis Set: AUG-CC-PVTZ
    Blend: AUG-CC-PVTZ
  Basis Set: (AUG-CC-PVTZ AUX)
    Blend: AUG-CC-PVTZ-JKFIT

    Orbital Energies [Eh]
    ---------------------

    Doubly Occupied:

       1A    -11.207468     2A     -0.942262     3A     -0.548452
       4A     -0.544577     5A     -0.540193

  @DF-RHF Final Energy:   -40.21339041553641

   => Energetics <=

    Nuclear Repulsion Energy =             13.4319580854946601
    One-Electron Energy =                 -79.7247939305019742
    Two-Electron Energy =                  26.0794454294709048
    Total Energy =                        -40.2133904155364093
  Basis Set: (AUG-CC-PVTZ AUX)
    Blend: AUG-CC-PVTZ-RI
    Molecular point group: c1

    Geometry (in Angstrom), charge = 0, multiplicity = 1:

       Center              X                  Y                   Z               Mass
    ------------   -----------------  -----------------  -----------------  -----------------
         C            0.001262093180    -0.002052539865    -0.000509026668    12.000000000000
         H           -0.372251806820    -0.415155139865     0.936904973332     1.007825032230
         H           -0.364962906820     1.022274460135    -0.075043026668     1.007825032230
         H           -0.369062906820    -0.582176539865    -0.846250026668     1.007825032230
         H            1.091250093180    -0.000503539865    -0.009551026668     1.007825032230

  Basis Set: AUG-CC-PVTZ
    Blend: AUG-CC-PVTZ
  Basis Set: (AUG-CC-PVTZ AUX)
    Blend: AUG-CC-PVTZ-JKFIT
	 Reference Energy          =     -40.2133904155364093 [Eh]
	 Singles Energy            =      -0.0000000000000000 [Eh]
	 Same-Spin Energy          =      -0.0391950508267597 [Eh]
	 Opposite-Spin Energy      =      -0.1801514563328659 [Eh]
	 Correlation Energy        =      -0.2193465071596256 [Eh]
	 Total Energy              =     -40.4327369226960371 [Eh]

	 ================> DF-SCS-MP2 Energies <==================
	-----------------------------------------------------------
	 SCS Same-Spin Scale       =       0.3333333333333333 [-]
	 SCS Opposite-Spin Scale   =       1.2000000000000000 [-]
	 SCS Same-Spin Energy      =      -0.0130650169422532 [Eh]
	 SCS Opposite-Spin Energy  =      -0.2161817475994390 [Eh]
	 SCS Correlation Energy    =      -0.2292467645416923 [Eh]
	 SCS Total Energy          =     -40.4426371800781013 [Eh]
	-----------------------------------------------------------

  Dipole Moment: [D]
     X:    -0.0057      Y:     0.0099      Z:     0.0024     Total:     0.0117

*** Psi4 exiting successfully. Buy a developer a beer!
