                               Psi4 1.3.2 release

  ==> Input File <==

--------------------------------------------------------------------------
#psi4
#
memory 32 gb

molecule  {
0 1
  C        0.0002360     0.0000040     0.0000020
  H       -0.3905407    -0.3799049     0.9443929
  H       -0.3659890     1.0243310    -0.0745320
  H       -0.3700890    -0.5801200    -0.8457390
  H        1.0902240     0.0015530    -0.0090400
units angstrom
no_reorient  #important for SAPT in psi4, default
symmetry c1  #important for SAPT in psi4, default
}

set PROPERTIES_ORIGIN ["COM"]
properties('MP2/aug-cc-pvtz', properties = ['dipole'])
--------------------------------------------------------------------------

    Molecular point group: c1
  Charge       = 0
  Multiplicity = 1
  Basis Set: AUG-CC-PVTZ
    Blend: AUG-CC-PVTZ
  Basis Set: (AUG-CC-PVTZ AUX)
    Blend: AUG-CC-PVTZ-JKFIT

    Orbital Energies [Eh]
    ---------------------

    Doubly Occupied:

       1A    -11.207483     2A     -0.942357     3A     -0.552431
       4A     -0.544647     5A     -0.535967

  @DF-RHF Final Energy:   -40.21299426555284

   => Energetics <=

    Nuclear Repulsion Energy =             13.4324807408262288
    One-Electron Energy =                 -79.7251788824851957
    Two-Electron Energy =                  26.0797038761061373
    Total Energy =                        -40.2129942655528367
  Basis Set: (AUG-CC-PVTZ AUX)
    Blend: AUG-CC-PVTZ-RI
    Molecular point group: c1

    Geometry (in Angstrom), charge = 0, multiplicity = 1:

       Center              X                  Y                   Z               Mass
    ------------   -----------------  -----------------  -----------------  -----------------
         C            0.002347337785    -0.004139297739    -0.000947637037    12.000000000000
         H           -0.388429362215    -0.384048197739     0.943443262963     1.007825032230
         H           -0.363877662215     1.020187702261    -0.075481637037     1.007825032230
         H           -0.367977662215    -0.584263297739    -0.846688637037     1.007825032230
         H            1.092335337785    -0.002590297739    -0.009989637037     1.007825032230

  Basis Set: AUG-CC-PVTZ
    Blend: AUG-CC-PVTZ
  Basis Set: (AUG-CC-PVTZ AUX)
    Blend: AUG-CC-PVTZ-JKFIT
	 Reference Energy          =     -40.2129942655528367 [Eh]
	 Singles Energy            =      -0.0000000000000000 [Eh]
	 Same-Spin Energy          =      -0.0392122874984629 [Eh]
	 Opposite-Spin Energy      =      -0.1801727836262606 [Eh]
	 Correlation Energy        =      -0.2193850711247235 [Eh]
	 Total Energy              =     -40.4323793366775632 [Eh]

	 ================> DF-SCS-MP2 Energies <==================
	-----------------------------------------------------------
	 SCS Same-Spin Scale       =       0.3333333333333333 [-]
	 SCS Opposite-Spin Scale   =       1.2000000000000000 [-]
	 SCS Same-Spin Energy      =      -0.0130707624994876 [Eh]
	 SCS Opposite-Spin Energy  =      -0.2162073403515127 [Eh]
	 SCS Correlation Energy    =      -0.2292781028510003 [Eh]
	 SCS Total Energy          =     -40.4422723684038345 [Eh]
	-----------------------------------------------------------

  Dipole Moment: [D]
     X:    -0.0111      Y:     0.0204      Z:     0.0045     Total:     0.0237

*** Psi4 exiting successfully. Buy a developer a beer!
