                               Psi4 1.3.2 release

  ==> Input File <==

--------------------------------------------------------------------------
#psi4
#
memory 32 gb

molecule  {
0 1
  C        0.0002360     0.0000040     0.0000020
  H       -0.2902986    -0.3640200     0.7588424
  H       -0.3659890     1.0243310    -0.0745320
  H       -0.3700890    -0.5801200    -0.8457390
  H        1.0902240     0.0015530    -0.0090400
units angstrom
no_reorient  #important for SAPT in psi4, default
symmetry c1  #important for SAPT in psi4, default
}

set PROPERTIES_ORIGIN ["COM"]
properties('MP2/aug-cc-pvtz', properties = ['dipole'])
--------------------------------------------------------------------------

    Molecular point group: c1
  Charge       = 0
  Multiplicity = 1
  Basis Set: AUG-CC-PVTZ
    Blend: AUG-CC-PVTZ
  Basis Set: (AUG-CC-PVTZ AUX)
    Blend: AUG-CC-PVTZ-JKFIT

    Orbital Energies [Eh]
    ---------------------

    Doubly Occupied:

       1A    -11.182257     2A     -0.971508     3A     -0.590255
       4A     -0.541967     5A     -0.541697

  @DF-RHF Final Energy:   -40.17804247714110

   => Energetics <=

    Nuclear Repulsion Energy =             14.1734193780522197
    One-Electron Energy =                 -81.0475555796060974
    Two-Electron Energy =                  26.6960937244127798
    Total Energy =                        -40.1780424771411049
  Basis Set: (AUG-CC-PVTZ AUX)
    Blend: AUG-CC-PVTZ-RI
    Molecular point group: c1

    Geometry (in Angstrom), charge = 0, multiplicity = 1:

       Center              X                  Y                   Z               Mass
    ------------   -----------------  -----------------  -----------------  -----------------
         C           -0.003954490317    -0.005137919169     0.010717195955    12.000000000000
         H           -0.294489090317    -0.369161919169     0.769557595955     1.007825032230
         H           -0.370179490317     1.019189080831    -0.063816804045     1.007825032230
         H           -0.374279490317    -0.585261919169    -0.835023804045     1.007825032230
         H            1.086033509683    -0.003588919169     0.001675195955     1.007825032230

  Basis Set: AUG-CC-PVTZ
    Blend: AUG-CC-PVTZ
  Basis Set: (AUG-CC-PVTZ AUX)
    Blend: AUG-CC-PVTZ-JKFIT
	 Reference Energy          =     -40.1780424771411049 [Eh]
	 Singles Energy            =      -0.0000000000000000 [Eh]
	 Same-Spin Energy          =      -0.0395886795621818 [Eh]
	 Opposite-Spin Energy      =      -0.1798264008600248 [Eh]
	 Correlation Energy        =      -0.2194150804222065 [Eh]
	 Total Energy              =     -40.3974575575633139 [Eh]

	 ================> DF-SCS-MP2 Energies <==================
	-----------------------------------------------------------
	 SCS Same-Spin Scale       =       0.3333333333333333 [-]
	 SCS Opposite-Spin Scale   =       1.2000000000000000 [-]
	 SCS Same-Spin Energy      =      -0.0131962265207273 [Eh]
	 SCS Opposite-Spin Energy  =      -0.2157916810320297 [Eh]
	 SCS Correlation Energy    =      -0.2289879075527570 [Eh]
	 SCS Total Energy          =     -40.4070303846938614 [Eh]
	-----------------------------------------------------------

  Dipole Moment: [D]
     X:    -0.0272      Y:    -0.0338      Z:     0.0704     Total:     0.0827

*** Psi4 exiting successfully. Buy a developer a beer!
