                               Psi4 1.4a3.dev225

  ==> Input File <==

--------------------------------------------------------------------------
#psi4
#
memory 32 gb

molecule  {
0 1
  C        0.0000040     0.0000000     0.0000000
  H       -0.3842716    -0.4847251    -0.8731364
  H       -0.3891130    -0.4936310     0.8905680
  H       -0.3079410     1.0456400     0.0003140
  H        1.0884860    -0.0582250    -0.0014260
units angstrom
no_reorient  #important for SAPT in psi4, default
symmetry c1  #important for SAPT in psi4, default
}

set PROPERTIES_ORIGIN ["COM"]
properties('MP2/aug-cc-pvtz', properties = ['dipole'])
--------------------------------------------------------------------------

    Molecular point group: c1
  Charge       = 0
  Multiplicity = 1
  Basis Set: AUG-CC-PVTZ
    Blend: AUG-CC-PVTZ
  Basis Set: (AUG-CC-PVTZ AUX)
    Blend: AUG-CC-PVTZ-JKFIT

    Orbital Energies [Eh]
    ---------------------

    Doubly Occupied:

       1A    -11.204819     2A     -0.944480     3A     -0.549111
       4A     -0.544122     5A     -0.544118

  @DF-RHF Final Energy:   -40.21348444199960

   => Energetics <=

    Nuclear Repulsion Energy =             13.4975490476087536
    One-Electron Energy =                 -79.8487639314131741
    Two-Electron Energy =                  26.1377304418048233
    Total Energy =                        -40.2134844419995972
  Basis Set: (AUG-CC-PVTZ AUX)
    Blend: AUG-CC-PVTZ-RI
    Molecular point group: c1

    Geometry (in Angstrom), charge = 0, multiplicity = 1:

       Center              X                  Y                   Z               Mass
    ------------   -----------------  -----------------  -----------------  -----------------
         C           -0.000449140438    -0.000569497552    -0.001025949316    12.000000000000
         H           -0.384724740438    -0.485294597552    -0.874162349316     1.007825032230
         H           -0.389566140438    -0.494200497552     0.889542050684     1.007825032230
         H           -0.308394140438     1.045070502448    -0.000711949316     1.007825032230
         H            1.088032859562    -0.058794497552    -0.002451949316     1.007825032230

  Basis Set: AUG-CC-PVTZ
    Blend: AUG-CC-PVTZ
  Basis Set: (AUG-CC-PVTZ AUX)
    Blend: AUG-CC-PVTZ-JKFIT
	 Reference Energy          =     -40.2134844419995972 [Eh]
	 Singles Energy            =      -0.0000000000000000 [Eh]
	 Same-Spin Energy          =      -0.0392226237069006 [Eh]
	 Opposite-Spin Energy      =      -0.1800536667606433 [Eh]
	 Correlation Energy        =      -0.2192762904675439 [Eh]
	 Total Energy              =     -40.4327607324671376 [Eh]

	 ================> DF-SCS-MP2 Energies <==================
	-----------------------------------------------------------
	 SCS Same-Spin Scale       =       0.3333333333333333 [-]
	 SCS Opposite-Spin Scale   =       1.2000000000000000 [-]
	 SCS Same-Spin Energy      =      -0.0130742079023002 [Eh]
	 SCS Opposite-Spin Energy  =      -0.2160644001127720 [Eh]
	 SCS Correlation Energy    =      -0.2291386080150722 [Eh]
	 SCS Total Energy          =     -40.4426230500146673 [Eh]
	-----------------------------------------------------------

  Dipole Moment: [D]
     X:    -0.0039      Y:    -0.0049      Z:    -0.0088     Total:     0.0108

*** Psi4 exiting successfully. Buy a developer a beer!
