                               Psi4 1.3.2 release

  ==> Input File <==

--------------------------------------------------------------------------
#psi4
#
memory 32 gb

molecule  {
0 1
  C        0.0002360     0.0000040     0.0000020
  H       -0.3644745    -0.4295092     0.9334987
  H       -0.3659890     1.0243310    -0.0745320
  H       -0.3700890    -0.5801200    -0.8457390
  H        1.0902240     0.0015530    -0.0090400
units angstrom
no_reorient  #important for SAPT in psi4, default
symmetry c1  #important for SAPT in psi4, default
}

set PROPERTIES_ORIGIN ["COM"]
properties('MP2/aug-cc-pvtz', properties = ['dipole'])
--------------------------------------------------------------------------

    Molecular point group: c1
  Charge       = 0
  Multiplicity = 1
  Basis Set: AUG-CC-PVTZ
    Blend: AUG-CC-PVTZ
  Basis Set: (AUG-CC-PVTZ AUX)
    Blend: AUG-CC-PVTZ-JKFIT

    Orbital Energies [Eh]
    ---------------------

    Doubly Occupied:

       1A    -11.207464     2A     -0.942238     3A     -0.546452
       4A     -0.544542     5A     -0.542273

  @DF-RHF Final Energy:   -40.21349012400863

   => Energetics <=

    Nuclear Repulsion Energy =             13.4318270529313040
    One-Electron Energy =                 -79.7246973650848503
    Two-Electron Energy =                  26.0793801881449205
    Total Energy =                        -40.2134901240086293
  Basis Set: (AUG-CC-PVTZ AUX)
    Blend: AUG-CC-PVTZ-RI
    Molecular point group: c1

    Geometry (in Angstrom), charge = 0, multiplicity = 1:

       Center              X                  Y                   Z               Mass
    ------------   -----------------  -----------------  -----------------  -----------------
         C            0.000708657912    -0.001020869736    -0.000262761364    12.000000000000
         H           -0.364001842088    -0.430534069736     0.933233938636     1.007825032230
         H           -0.365516342088     1.023306130264    -0.074796761364     1.007825032230
         H           -0.369616342088    -0.581144869736    -0.846003761364     1.007825032230
         H            1.090696657912     0.000528130264    -0.009304761364     1.007825032230

  Basis Set: AUG-CC-PVTZ
    Blend: AUG-CC-PVTZ
  Basis Set: (AUG-CC-PVTZ AUX)
    Blend: AUG-CC-PVTZ-JKFIT
	 Reference Energy          =     -40.2134901240086293 [Eh]
	 Singles Energy            =      -0.0000000000000000 [Eh]
	 Same-Spin Energy          =      -0.0391907250549450 [Eh]
	 Opposite-Spin Energy      =      -0.1801461151045710 [Eh]
	 Correlation Energy        =      -0.2193368401595160 [Eh]
	 Total Energy              =     -40.4328269641681430 [Eh]

	 ================> DF-SCS-MP2 Energies <==================
	-----------------------------------------------------------
	 SCS Same-Spin Scale       =       0.3333333333333333 [-]
	 SCS Opposite-Spin Scale   =       1.2000000000000000 [-]
	 SCS Same-Spin Energy      =      -0.0130635750183150 [Eh]
	 SCS Opposite-Spin Energy  =      -0.2161753381254852 [Eh]
	 SCS Correlation Energy    =      -0.2292389131438002 [Eh]
	 SCS Total Energy          =     -40.4427290371524322 [Eh]
	-----------------------------------------------------------

  Dipole Moment: [D]
     X:    -0.0031      Y:     0.0049      Z:     0.0013     Total:     0.0059

*** Psi4 exiting successfully. Buy a developer a beer!
