                               Psi4 1.3.2 release

  ==> Input File <==

--------------------------------------------------------------------------
#psi4
#
memory 32 gb

molecule  {
0 1
  C        0.0002360     0.0000040     0.0000020
  H       -0.3465371    -0.4619330     0.9248122
  H       -0.3659890     1.0243310    -0.0745320
  H       -0.3700890    -0.5801200    -0.8457390
  H        1.0902240     0.0015530    -0.0090400
units angstrom
no_reorient  #important for SAPT in psi4, default
symmetry c1  #important for SAPT in psi4, default
}

set PROPERTIES_ORIGIN ["COM"]
properties('MP2/aug-cc-pvtz', properties = ['dipole'])
--------------------------------------------------------------------------

    Molecular point group: c1
  Charge       = 0
  Multiplicity = 1
  Basis Set: AUG-CC-PVTZ
    Blend: AUG-CC-PVTZ
  Basis Set: (AUG-CC-PVTZ AUX)
    Blend: AUG-CC-PVTZ-JKFIT

    Orbital Energies [Eh]
    ---------------------

    Doubly Occupied:

       1A    -11.207463     2A     -0.942238     3A     -0.546371
       4A     -0.544511     5A     -0.542386

  @DF-RHF Final Energy:   -40.21349296862388

   => Energetics <=

    Nuclear Repulsion Energy =             13.4318215876673737
    One-Electron Energy =                 -79.7246915555857925
    Two-Electron Energy =                  26.0793769992945350
    Total Energy =                        -40.2134929686238820
  Basis Set: (AUG-CC-PVTZ AUX)
    Blend: AUG-CC-PVTZ-RI
    Molecular point group: c1

    Geometry (in Angstrom), charge = 0, multiplicity = 1:

       Center              X                  Y                   Z               Mass
    ------------   -----------------  -----------------  -----------------  -----------------
         C           -0.000418996151     0.001017487541     0.000283324859    12.000000000000
         H           -0.347192096151    -0.460919512459     0.925093524859     1.007825032230
         H           -0.366643996151     1.025344487541    -0.074250675141     1.007825032230
         H           -0.370743996151    -0.579106512459    -0.845457675141     1.007825032230
         H            1.089569003849     0.002566487541    -0.008758675141     1.007825032230

  Basis Set: AUG-CC-PVTZ
    Blend: AUG-CC-PVTZ
  Basis Set: (AUG-CC-PVTZ AUX)
    Blend: AUG-CC-PVTZ-JKFIT
	 Reference Energy          =     -40.2134929686238820 [Eh]
	 Singles Energy            =      -0.0000000000000000 [Eh]
	 Same-Spin Energy          =      -0.0391905593737646 [Eh]
	 Opposite-Spin Energy      =      -0.1801459156190928 [Eh]
	 Correlation Energy        =      -0.2193364749928574 [Eh]
	 Total Energy              =     -40.4328294436167397 [Eh]

	 ================> DF-SCS-MP2 Energies <==================
	-----------------------------------------------------------
	 SCS Same-Spin Scale       =       0.3333333333333333 [-]
	 SCS Opposite-Spin Scale   =       1.2000000000000000 [-]
	 SCS Same-Spin Energy      =      -0.0130635197912549 [Eh]
	 SCS Opposite-Spin Energy  =      -0.2161750987429114 [Eh]
	 SCS Correlation Energy    =      -0.2292386185341662 [Eh]
	 SCS Total Energy          =     -40.4427315871580504 [Eh]
	-----------------------------------------------------------

  Dipole Moment: [D]
     X:     0.0023      Y:    -0.0048      Z:    -0.0013     Total:     0.0054

*** Psi4 exiting successfully. Buy a developer a beer!
