                               Psi4 1.3.2 release

  ==> Input File <==

--------------------------------------------------------------------------
#psi4
#
memory 32 gb

molecule  {
0 1
  C        0.0002360     0.0000040     0.0000020
  H       -0.3374086    -0.4779363     0.9200458
  H       -0.3659890     1.0243310    -0.0745320
  H       -0.3700890    -0.5801200    -0.8457390
  H        1.0902240     0.0015530    -0.0090400
units angstrom
no_reorient  #important for SAPT in psi4, default
symmetry c1  #important for SAPT in psi4, default
}

set PROPERTIES_ORIGIN ["COM"]
properties('MP2/aug-cc-pvtz', properties = ['dipole'])
--------------------------------------------------------------------------

    Molecular point group: c1
  Charge       = 0
  Multiplicity = 1
  Basis Set: AUG-CC-PVTZ
    Blend: AUG-CC-PVTZ
  Basis Set: (AUG-CC-PVTZ AUX)
    Blend: AUG-CC-PVTZ-JKFIT

    Orbital Energies [Eh]
    ---------------------

    Doubly Occupied:

       1A    -11.207467     2A     -0.942260     3A     -0.548387
       4A     -0.544486     5A     -0.540351

  @DF-RHF Final Energy:   -40.21339617682674

   => Energetics <=

    Nuclear Repulsion Energy =             13.4319451652714701
    One-Electron Energy =                 -79.7247795782794526
    Two-Electron Energy =                  26.0794382361812396
    Total Energy =                        -40.2133961768267412
  Basis Set: (AUG-CC-PVTZ AUX)
    Blend: AUG-CC-PVTZ-RI
    Molecular point group: c1

    Geometry (in Angstrom), charge = 0, multiplicity = 1:

       Center              X                  Y                   Z               Mass
    ------------   -----------------  -----------------  -----------------  -----------------
         C           -0.000992869183     0.002023552315     0.000582969754    12.000000000000
         H           -0.338637469183    -0.475916747685     0.920626769754     1.007825032230
         H           -0.367217869183     1.026350552315    -0.073951030246     1.007825032230
         H           -0.371317869183    -0.578100447685    -0.845158030246     1.007825032230
         H            1.088995130817     0.003572552315    -0.008459030246     1.007825032230

  Basis Set: AUG-CC-PVTZ
    Blend: AUG-CC-PVTZ
  Basis Set: (AUG-CC-PVTZ AUX)
    Blend: AUG-CC-PVTZ-JKFIT
	 Reference Energy          =     -40.2133961768267412 [Eh]
	 Singles Energy            =      -0.0000000000000000 [Eh]
	 Same-Spin Energy          =      -0.0391946835919579 [Eh]
	 Opposite-Spin Energy      =      -0.1801510142485087 [Eh]
	 Correlation Energy        =      -0.2193456978404666 [Eh]
	 Total Energy              =     -40.4327418746672080 [Eh]

	 ================> DF-SCS-MP2 Energies <==================
	-----------------------------------------------------------
	 SCS Same-Spin Scale       =       0.3333333333333333 [-]
	 SCS Opposite-Spin Scale   =       1.2000000000000000 [-]
	 SCS Same-Spin Energy      =      -0.0130648945306526 [Eh]
	 SCS Opposite-Spin Energy  =      -0.2161812170982104 [Eh]
	 SCS Correlation Energy    =      -0.2292461116288631 [Eh]
	 SCS Total Energy          =     -40.4426422884556018 [Eh]
	-----------------------------------------------------------

  Dipole Moment: [D]
     X:     0.0049      Y:    -0.0094      Z:    -0.0027     Total:     0.0109

*** Psi4 exiting successfully. Buy a developer a beer!
