                               Psi4 1.4a3.dev225

  ==> Input File <==

--------------------------------------------------------------------------
#psi4
#
memory 32 gb

molecule  {
0 1
  C        0.0000040     0.0000000     0.0000000
  H       -0.3986364    -0.5028449    -0.9057756
  H       -0.3891130    -0.4936310     0.8905680
  H       -0.3079410     1.0456400     0.0003140
  H        1.0884860    -0.0582250    -0.0014260
units angstrom
no_reorient  #important for SAPT in psi4, default
symmetry c1  #important for SAPT in psi4, default
}

set PROPERTIES_ORIGIN ["COM"]
properties('MP2/aug-cc-pvtz', properties = ['dipole'])
--------------------------------------------------------------------------

    Molecular point group: c1
  Charge       = 0
  Multiplicity = 1
  Basis Set: AUG-CC-PVTZ
    Blend: AUG-CC-PVTZ
  Basis Set: (AUG-CC-PVTZ AUX)
    Blend: AUG-CC-PVTZ-JKFIT

    Orbital Energies [Eh]
    ---------------------

    Doubly Occupied:

       1A    -11.209834     2A     -0.940344     3A     -0.544890
       4A     -0.544886     5A     -0.539882

  @DF-RHF Final Energy:   -40.21308229372412

   => Energetics <=

    Nuclear Repulsion Energy =             13.3742623603337165
    One-Electron Energy =                 -79.6150179112490690
    Two-Electron Energy =                  26.0276732571912319
    Total Energy =                        -40.2130822937241206
  Basis Set: (AUG-CC-PVTZ AUX)
    Blend: AUG-CC-PVTZ-RI
    Molecular point group: c1

    Geometry (in Angstrom), charge = 0, multiplicity = 1:

       Center              X                  Y                   Z               Mass
    ------------   -----------------  -----------------  -----------------  -----------------
         C            0.000453918260     0.000569623285     0.001025949316    12.000000000000
         H           -0.398186481740    -0.502275276715    -0.904749650684     1.007825032230
         H           -0.388663081740    -0.493061376715     0.891593949316     1.007825032230
         H           -0.307491081740     1.046209623285     0.001339949316     1.007825032230
         H            1.088935918260    -0.057655376715    -0.000400050684     1.007825032230

  Basis Set: AUG-CC-PVTZ
    Blend: AUG-CC-PVTZ
  Basis Set: (AUG-CC-PVTZ AUX)
    Blend: AUG-CC-PVTZ-JKFIT
	 Reference Energy          =     -40.2130822937241206 [Eh]
	 Singles Energy            =      -0.0000000000000000 [Eh]
	 Same-Spin Energy          =      -0.0391597289042141 [Eh]
	 Opposite-Spin Energy      =      -0.1802346601305203 [Eh]
	 Correlation Energy        =      -0.2193943890347343 [Eh]
	 Total Energy              =     -40.4324766827588533 [Eh]

	 ================> DF-SCS-MP2 Energies <==================
	-----------------------------------------------------------
	 SCS Same-Spin Scale       =       0.3333333333333333 [-]
	 SCS Opposite-Spin Scale   =       1.2000000000000000 [-]
	 SCS Same-Spin Energy      =      -0.0130532429680714 [Eh]
	 SCS Opposite-Spin Energy  =      -0.2162815921566244 [Eh]
	 SCS Correlation Energy    =      -0.2293348351246957 [Eh]
	 SCS Total Energy          =     -40.4424171288488168 [Eh]
	-----------------------------------------------------------

  Dipole Moment: [D]
     X:     0.0041      Y:     0.0051      Z:     0.0092     Total:     0.0113

*** Psi4 exiting successfully. Buy a developer a beer!
