                               Psi4 1.4a3.dev225

  ==> Input File <==

--------------------------------------------------------------------------
#psi4
#
memory 32 gb

molecule  {
0 1
  C        0.0000040     0.0000000     0.0000000
  H       -0.3734979    -0.4711352    -0.8486569
  H       -0.3891130    -0.4936310     0.8905680
  H       -0.3079410     1.0456400     0.0003140
  H        1.0884860    -0.0582250    -0.0014260
units angstrom
no_reorient  #important for SAPT in psi4, default
symmetry c1  #important for SAPT in psi4, default
}

set PROPERTIES_ORIGIN ["COM"]
properties('MP2/aug-cc-pvtz', properties = ['dipole'])
--------------------------------------------------------------------------

    Molecular point group: c1
  Charge       = 0
  Multiplicity = 1
  Basis Set: AUG-CC-PVTZ
    Blend: AUG-CC-PVTZ
  Basis Set: (AUG-CC-PVTZ AUX)
    Blend: AUG-CC-PVTZ-JKFIT

    Orbital Energies [Eh]
    ---------------------

    Doubly Occupied:

       1A    -11.201014     2A     -0.948005     3A     -0.556056
       4A     -0.543610     5A     -0.543606

  @DF-RHF Final Energy:   -40.21233140873778

   => Energetics <=

    Nuclear Repulsion Energy =             13.5957095348519896
    One-Electron Energy =                 -80.0315014995997558
    Two-Electron Energy =                  26.2234605560099894
    Total Energy =                        -40.2123314087377750
  Basis Set: (AUG-CC-PVTZ AUX)
    Blend: AUG-CC-PVTZ-RI
    Molecular point group: c1

    Geometry (in Angstrom), charge = 0, multiplicity = 1:

       Center              X                  Y                   Z               Mass
    ------------   -----------------  -----------------  -----------------  -----------------
         C           -0.001126440748    -0.001423841323    -0.002564879576    12.000000000000
         H           -0.374628340748    -0.472559041323    -0.851221779576     1.007825032230
         H           -0.390243440748    -0.495054841323     0.888003120424     1.007825032230
         H           -0.309071440748     1.044216158677    -0.002250879576     1.007825032230
         H            1.087355559252    -0.059648841323    -0.003990879576     1.007825032230

  Basis Set: AUG-CC-PVTZ
    Blend: AUG-CC-PVTZ
  Basis Set: (AUG-CC-PVTZ AUX)
    Blend: AUG-CC-PVTZ-JKFIT
	 Reference Energy          =     -40.2123314087377750 [Eh]
	 Singles Energy            =      -0.0000000000000000 [Eh]
	 Same-Spin Energy          =      -0.0392724759046688 [Eh]
	 Opposite-Spin Energy      =      -0.1799432518391482 [Eh]
	 Correlation Energy        =      -0.2192157277438170 [Eh]
	 Total Energy              =     -40.4315471364815906 [Eh]

	 ================> DF-SCS-MP2 Energies <==================
	-----------------------------------------------------------
	 SCS Same-Spin Scale       =       0.3333333333333333 [-]
	 SCS Opposite-Spin Scale   =       1.2000000000000000 [-]
	 SCS Same-Spin Energy      =      -0.0130908253015563 [Eh]
	 SCS Opposite-Spin Energy  =      -0.2159319022069779 [Eh]
	 SCS Correlation Energy    =      -0.2290227275085341 [Eh]
	 SCS Total Energy          =     -40.4413541362463107 [Eh]
	-----------------------------------------------------------

  Dipole Moment: [D]
     X:    -0.0093      Y:    -0.0118      Z:    -0.0212     Total:     0.0260

*** Psi4 exiting successfully. Buy a developer a beer!
