                               Psi4 1.3.2 release

  ==> Input File <==

--------------------------------------------------------------------------
#psi4
#
memory 32 gb

molecule  {
0 1
  S       -1.2780750    -0.4285550    -0.3473560
  O       -1.7459834     0.4077478    -1.4516786
  O       -1.5418650    -1.8618310    -0.2285910
  N       -1.9572890     0.2613030     1.0109670
  C        0.4825990    -0.1948140    -0.1956820
  C        1.2351140    -1.1400330     0.5076890
  C        1.0704270     0.9572020    -0.7248240
  C        2.6038020    -0.9271140     0.6719040
  C        2.4412730     1.1569670    -0.5509020
  C        3.2049670     0.2235900     0.1537530
  C       -1.7662690     1.6987010     1.2148980
  H        0.7580870    -2.0438460     0.8774600
  H        0.4673030     1.6551460    -1.2987640
  H       -1.7702480    -0.3190170     1.8277200
  H        3.2028270    -1.6614550     1.2045750
  H        2.9128080     2.0436310    -0.9672160
  H        4.2723800     0.3833040     0.2839750
  H       -2.3988760     2.0038020     2.0501250
  H       -2.1043290     2.2146560     0.3162530
  H       -0.7257680     1.9753910     1.4267290
units angstrom
no_reorient  #important for SAPT in psi4, default
symmetry c1  #important for SAPT in psi4, default
}

set PROPERTIES_ORIGIN ["COM"]
properties('MP2/aug-cc-pvtz', properties = ['dipole'])
--------------------------------------------------------------------------

    Molecular point group: c1
  Charge       = 0
  Multiplicity = 1
  Basis Set: AUG-CC-PVTZ
    Blend: AUG-CC-PVTZ
  Basis Set: (AUG-CC-PVTZ AUX)
    Blend: AUG-CC-PVTZ-JKFIT

    Orbital Energies [Eh]
    ---------------------

    Doubly Occupied:

       1A    -92.202929     2A    -20.548866     3A    -20.546748
       4A    -15.601844     5A    -11.283679     6A    -11.274634
       7A    -11.271428     8A    -11.271226     9A    -11.268533
      10A    -11.262724    11A    -11.262544    12A     -9.167805
      13A     -6.852995    14A     -6.852434    15A     -6.852184
      16A     -1.452370    17A     -1.338100    18A     -1.231677
      19A     -1.182654    20A     -1.058673    21A     -1.044412
      22A     -0.961616    23A     -0.893861    24A     -0.856465
      25A     -0.813246    26A     -0.749926    27A     -0.712594
      28A     -0.677781    29A     -0.671661    30A     -0.655747
      31A     -0.642206    32A     -0.621360    33A     -0.616572
      34A     -0.606441    35A     -0.564893    36A     -0.548731
      37A     -0.533636    38A     -0.523947    39A     -0.502556
      40A     -0.498863    41A     -0.474746    42A     -0.465601
      43A     -0.434533    44A     -0.368784    45A     -0.363497

  @DF-RHF Final Energy:  -872.15491255777670

   => Energetics <=

    Nuclear Repulsion Energy =            742.9142873728584391
    One-Electron Energy =               -2670.9629609517742210
    Two-Electron Energy =                1055.8937610211391984
    Total Energy =                       -872.1549125577766972
  Basis Set: (AUG-CC-PVTZ AUX)
    Blend: AUG-CC-PVTZ-RI
    Molecular point group: c1

    Geometry (in Angstrom), charge = 0, multiplicity = 1:

       Center              X                  Y                   Z               Mass
    ------------   -----------------  -----------------  -----------------  -----------------
         S           -1.249154812183    -0.395192530630    -0.317320352724    31.972071174400
         O           -1.717063212183     0.441110269370    -1.421642952724    15.994914619570
         O           -1.512944812183    -1.828468530630    -0.198555352724    15.994914619570
         N           -1.928368812183     0.294665469370     1.041002647276    14.003074004430
         C            0.511519187817    -0.161451530630    -0.165646352724    12.000000000000
         C            1.264034187817    -1.106670530630     0.537724647276    12.000000000000
         C            1.099347187817     0.990564469370    -0.694788352724    12.000000000000
         C            2.632722187817    -0.893751530630     0.701939647276    12.000000000000
         C            2.470193187817     1.190329469370    -0.520866352724    12.000000000000
         C            3.233887187817     0.256952469370     0.183788647276    12.000000000000
         C           -1.737348812183     1.732063469370     1.244933647276    12.000000000000
         H            0.787007187817    -2.010483530630     0.907495647276     1.007825032230
         H            0.496223187817     1.688508469370    -1.268728352724     1.007825032230
         H           -1.741327812183    -0.285654530630     1.857755647276     1.007825032230
         H            3.231747187817    -1.628092530630     1.234610647276     1.007825032230
         H            2.941728187817     2.076993469370    -0.937180352724     1.007825032230
         H            4.301300187817     0.416666469370     0.314010647276     1.007825032230
         H           -2.369955812183     2.037164469370     2.080160647276     1.007825032230
         H           -2.075408812183     2.248018469370     0.346288647276     1.007825032230
         H           -0.696847812183     2.008753469370     1.456764647276     1.007825032230

  Basis Set: AUG-CC-PVTZ
    Blend: AUG-CC-PVTZ
  Basis Set: (AUG-CC-PVTZ AUX)
    Blend: AUG-CC-PVTZ-JKFIT
	 Reference Energy          =    -872.1549125577766972 [Eh]
	 Singles Energy            =      -0.0000000000000000 [Eh]
	 Same-Spin Energy          =      -0.5646811454547249 [Eh]
	 Opposite-Spin Energy      =      -1.6947677409436288 [Eh]
	 Correlation Energy        =      -2.2594488863983537 [Eh]
	 Total Energy              =    -874.4143614441750287 [Eh]

	 ================> DF-SCS-MP2 Energies <==================
	-----------------------------------------------------------
	 SCS Same-Spin Scale       =       0.3333333333333333 [-]
	 SCS Opposite-Spin Scale   =       1.2000000000000000 [-]
	 SCS Same-Spin Energy      =      -0.1882270484849083 [Eh]
	 SCS Opposite-Spin Energy  =      -2.0337212891323544 [Eh]
	 SCS Correlation Energy    =      -2.2219483376172628 [Eh]
	 SCS Total Energy          =    -874.3768608953939747 [Eh]
	-----------------------------------------------------------

  Dipole Moment: [D]
     X:     3.8006      Y:     2.4291      Z:     3.5070     Total:     5.7135

*** Psi4 exiting successfully. Buy a developer a beer!
