                               Psi4 1.3.2 release

  ==> Input File <==

--------------------------------------------------------------------------
#psi4
#
memory 32 gb

molecule  {
0 1
  S       -1.2780750    -0.4285550    -0.3473560
  O       -1.7200650     0.3779750    -1.4840280
  O       -1.5418650    -1.8618310    -0.2285910
  N       -1.9904218     0.2610935     1.0498841
  C        0.4825990    -0.1948140    -0.1956820
  C        1.2351140    -1.1400330     0.5076890
  C        1.0704270     0.9572020    -0.7248240
  C        2.6038020    -0.9271140     0.6719040
  C        2.4412730     1.1569670    -0.5509020
  C        3.2049670     0.2235900     0.1537530
  C       -1.7662690     1.6987010     1.2148980
  H        0.7580870    -2.0438460     0.8774600
  H        0.4673030     1.6551460    -1.2987640
  H       -1.7702480    -0.3190170     1.8277200
  H        3.2028270    -1.6614550     1.2045750
  H        2.9128080     2.0436310    -0.9672160
  H        4.2723800     0.3833040     0.2839750
  H       -2.3988760     2.0038020     2.0501250
  H       -2.1043290     2.2146560     0.3162530
  H       -0.7257680     1.9753910     1.4267290
units angstrom
no_reorient  #important for SAPT in psi4, default
symmetry c1  #important for SAPT in psi4, default
}

set PROPERTIES_ORIGIN ["COM"]
properties('MP2/aug-cc-pvtz', properties = ['dipole'])
--------------------------------------------------------------------------

    Molecular point group: c1
  Charge       = 0
  Multiplicity = 1
  Basis Set: AUG-CC-PVTZ
    Blend: AUG-CC-PVTZ
  Basis Set: (AUG-CC-PVTZ AUX)
    Blend: AUG-CC-PVTZ-JKFIT

    Orbital Energies [Eh]
    ---------------------

    Doubly Occupied:

       1A    -92.203513     2A    -20.549670     3A    -20.547909
       4A    -15.603687     5A    -11.284726     6A    -11.274288
       7A    -11.272293     8A    -11.272172     9A    -11.269395
      10A    -11.263284    11A    -11.263139    12A     -9.168361
      13A     -6.853361    14A     -6.852955    15A     -6.852699
      16A     -1.450632    17A     -1.337695    18A     -1.229453
      19A     -1.183406    20A     -1.059372    21A     -1.045119
      22A     -0.957397    23A     -0.896694    24A     -0.857157
      25A     -0.814713    26A     -0.748885    27A     -0.711629
      28A     -0.676294    29A     -0.671713    30A     -0.657280
      31A     -0.642266    32A     -0.622473    33A     -0.617217
      34A     -0.605280    35A     -0.568880    36A     -0.549199
      37A     -0.534004    38A     -0.524646    39A     -0.501352
      40A     -0.498229    41A     -0.475099    42A     -0.465716
      43A     -0.433385    44A     -0.370091    45A     -0.364121

  @DF-RHF Final Energy:  -872.15246886948034

   => Energetics <=

    Nuclear Repulsion Energy =            741.2211440033939880
    One-Electron Energy =               -2667.5455276903721824
    Two-Electron Energy =                1054.1719148174979637
    Total Energy =                       -872.1524688694803444
  Basis Set: (AUG-CC-PVTZ AUX)
    Blend: AUG-CC-PVTZ-RI
    Molecular point group: c1

    Geometry (in Angstrom), charge = 0, multiplicity = 1:

       Center              X                  Y                   Z               Mass
    ------------   -----------------  -----------------  -----------------  -----------------
         S           -1.248865992118    -0.392391081113    -0.317481331916    31.972071174400
         O           -1.690855992118     0.414138918887    -1.454153331916    15.994914619570
         O           -1.512655992118    -1.825667081113    -0.198716331916    15.994914619570
         N           -1.961212792118     0.297257418887     1.079758768084    14.003074004430
         C            0.511808007882    -0.158650081113    -0.165807331916    12.000000000000
         C            1.264323007882    -1.103869081113     0.537563668084    12.000000000000
         C            1.099636007882     0.993365918887    -0.694949331916    12.000000000000
         C            2.633011007882    -0.890950081113     0.701778668084    12.000000000000
         C            2.470482007882     1.193130918887    -0.521027331916    12.000000000000
         C            3.234176007882     0.259753918887     0.183627668084    12.000000000000
         C           -1.737059992118     1.734864918887     1.244772668084    12.000000000000
         H            0.787296007882    -2.007682081113     0.907334668084     1.007825032230
         H            0.496512007882     1.691309918887    -1.268889331916     1.007825032230
         H           -1.741038992118    -0.282853081113     1.857594668084     1.007825032230
         H            3.232036007882    -1.625291081113     1.234449668084     1.007825032230
         H            2.942017007882     2.079794918887    -0.937341331916     1.007825032230
         H            4.301589007882     0.419467918887     0.313849668084     1.007825032230
         H           -2.369666992118     2.039965918887     2.079999668084     1.007825032230
         H           -2.075119992118     2.250819918887     0.346127668084     1.007825032230
         H           -0.696558992118     2.011554918887     1.456603668084     1.007825032230

  Basis Set: AUG-CC-PVTZ
    Blend: AUG-CC-PVTZ
  Basis Set: (AUG-CC-PVTZ AUX)
    Blend: AUG-CC-PVTZ-JKFIT
	 Reference Energy          =    -872.1524688694803444 [Eh]
	 Singles Energy            =      -0.0000000000000000 [Eh]
	 Same-Spin Energy          =      -0.5646175100293438 [Eh]
	 Opposite-Spin Energy      =      -1.6953454672230490 [Eh]
	 Correlation Energy        =      -2.2599629772523926 [Eh]
	 Total Energy              =    -874.4124318467327157 [Eh]

	 ================> DF-SCS-MP2 Energies <==================
	-----------------------------------------------------------
	 SCS Same-Spin Scale       =       0.3333333333333333 [-]
	 SCS Opposite-Spin Scale   =       1.2000000000000000 [-]
	 SCS Same-Spin Energy      =      -0.1882058366764479 [Eh]
	 SCS Opposite-Spin Energy  =      -2.0344145606676589 [Eh]
	 SCS Correlation Energy    =      -2.2226203973441070 [Eh]
	 SCS Total Energy          =    -874.3750892668244887 [Eh]
	-----------------------------------------------------------

  Dipole Moment: [D]
     X:     3.9192      Y:     2.4637      Z:     3.4175     Total:     5.7541

*** Psi4 exiting successfully. Buy a developer a beer!
