                               Psi4 1.3.2 release

  ==> Input File <==

--------------------------------------------------------------------------
#psi4
#
memory 32 gb

molecule  {
0 1
  S       -1.2780750    -0.4285550    -0.3473560
  O       -1.7713317     0.4365017    -1.4179838
  O       -1.5418650    -1.8618310    -0.2285910
  N       -1.9572890     0.2613030     1.0109670
  C        0.4825990    -0.1948140    -0.1956820
  C        1.2351140    -1.1400330     0.5076890
  C        1.0704270     0.9572020    -0.7248240
  C        2.6038020    -0.9271140     0.6719040
  C        2.4412730     1.1569670    -0.5509020
  C        3.2049670     0.2235900     0.1537530
  C       -1.7662690     1.6987010     1.2148980
  H        0.7580870    -2.0438460     0.8774600
  H        0.4673030     1.6551460    -1.2987640
  H       -1.7702480    -0.3190170     1.8277200
  H        3.2028270    -1.6614550     1.2045750
  H        2.9128080     2.0436310    -0.9672160
  H        4.2723800     0.3833040     0.2839750
  H       -2.3988760     2.0038020     2.0501250
  H       -2.1043290     2.2146560     0.3162530
  H       -0.7257680     1.9753910     1.4267290
units angstrom
no_reorient  #important for SAPT in psi4, default
symmetry c1  #important for SAPT in psi4, default
}

set PROPERTIES_ORIGIN ["COM"]
properties('MP2/aug-cc-pvtz', properties = ['dipole'])
--------------------------------------------------------------------------

    Molecular point group: c1
  Charge       = 0
  Multiplicity = 1
  Basis Set: AUG-CC-PVTZ
    Blend: AUG-CC-PVTZ
  Basis Set: (AUG-CC-PVTZ AUX)
    Blend: AUG-CC-PVTZ-JKFIT

    Orbital Energies [Eh]
    ---------------------

    Doubly Occupied:

       1A    -92.202817     2A    -20.550384     3A    -20.546136
       4A    -15.599171     5A    -11.284736     6A    -11.272804
       7A    -11.272190     8A    -11.271919     9A    -11.269156
      10A    -11.263270    11A    -11.263055    12A     -9.167700
      13A     -6.852911    14A     -6.852338    15A     -6.852048
      16A     -1.452635    17A     -1.339280    18A     -1.228863
      19A     -1.183303    20A     -1.059370    21A     -1.045015
      22A     -0.960145    23A     -0.893945    24A     -0.857069
      25A     -0.812716    26A     -0.749750    27A     -0.712809
      28A     -0.678010    29A     -0.671035    30A     -0.655660
      31A     -0.642670    32A     -0.621513    33A     -0.617138
      34A     -0.605194    35A     -0.562875    36A     -0.549290
      37A     -0.533995    38A     -0.524528    39A     -0.501777
      40A     -0.499745    41A     -0.475454    42A     -0.464582
      43A     -0.433541    44A     -0.369312    45A     -0.364014

  @DF-RHF Final Energy:  -872.15363082992837

   => Energetics <=

    Nuclear Repulsion Energy =            743.0518703906499240
    One-Electron Energy =               -2671.2392704084008983
    Two-Electron Energy =                1056.0337691878225996
    Total Energy =                       -872.1536308299282609
  Basis Set: (AUG-CC-PVTZ AUX)
    Blend: AUG-CC-PVTZ-RI
    Molecular point group: c1

    Geometry (in Angstrom), charge = 0, multiplicity = 1:

       Center              X                  Y                   Z               Mass
    ------------   -----------------  -----------------  -----------------  -----------------
         S           -1.246784285994    -0.397881542240    -0.320471428175    31.972071174400
         O           -1.740040985994     0.467175157760    -1.391099228175    15.994914619570
         O           -1.510574285994    -1.831157542240    -0.201706428175    15.994914619570
         N           -1.925998285994     0.291976457760     1.037851571825    14.003074004430
         C            0.513889714006    -0.164140542240    -0.168797428175    12.000000000000
         C            1.266404714006    -1.109359542240     0.534573571825    12.000000000000
         C            1.101717714006     0.987875457760    -0.697939428175    12.000000000000
         C            2.635092714006    -0.896440542240     0.698788571825    12.000000000000
         C            2.472563714006     1.187640457760    -0.524017428175    12.000000000000
         C            3.236257714006     0.254263457760     0.180637571825    12.000000000000
         C           -1.734978285994     1.729374457760     1.241782571825    12.000000000000
         H            0.789377714006    -2.013172542240     0.904344571825     1.007825032230
         H            0.498593714006     1.685819457760    -1.271879428175     1.007825032230
         H           -1.738957285994    -0.288343542240     1.854604571825     1.007825032230
         H            3.234117714006    -1.630781542240     1.231459571825     1.007825032230
         H            2.944098714006     2.074304457760    -0.940331428175     1.007825032230
         H            4.303670714006     0.413977457760     0.310859571825     1.007825032230
         H           -2.367585285994     2.034475457760     2.077009571825     1.007825032230
         H           -2.073038285994     2.245329457760     0.343137571825     1.007825032230
         H           -0.694477285994     2.006064457760     1.453613571825     1.007825032230

  Basis Set: AUG-CC-PVTZ
    Blend: AUG-CC-PVTZ
  Basis Set: (AUG-CC-PVTZ AUX)
    Blend: AUG-CC-PVTZ-JKFIT
	 Reference Energy          =    -872.1536308299283746 [Eh]
	 Singles Energy            =      -0.0000000000000000 [Eh]
	 Same-Spin Energy          =      -0.5648433159391290 [Eh]
	 Opposite-Spin Energy      =      -1.6950389388226663 [Eh]
	 Correlation Energy        =      -2.2598822547617954 [Eh]
	 Total Energy              =    -874.4135130846901802 [Eh]

	 ================> DF-SCS-MP2 Energies <==================
	-----------------------------------------------------------
	 SCS Same-Spin Scale       =       0.3333333333333333 [-]
	 SCS Opposite-Spin Scale   =       1.2000000000000000 [-]
	 SCS Same-Spin Energy      =      -0.1882811053130430 [Eh]
	 SCS Opposite-Spin Energy  =      -2.0340467265871993 [Eh]
	 SCS Correlation Energy    =      -2.2223278319002424 [Eh]
	 SCS Total Energy          =    -874.3759586618285766 [Eh]
	-----------------------------------------------------------

  Dipole Moment: [D]
     X:     3.8906      Y:     2.3472      Z:     3.4238     Total:     5.6893

*** Psi4 exiting successfully. Buy a developer a beer!
