                               Psi4 1.3.2 release

  ==> Input File <==

--------------------------------------------------------------------------
#psi4
#
memory 32 gb

molecule  {
0 1
  S       -1.2780750    -0.4285550    -0.3473560
  O       -1.6596073     0.2676535    -1.3285480
  O       -1.5418650    -1.8618310    -0.2285910
  N       -1.9572890     0.2613030     1.0109670
  C        0.4825990    -0.1948140    -0.1956820
  C        1.2351140    -1.1400330     0.5076890
  C        1.0704270     0.9572020    -0.7248240
  C        2.6038020    -0.9271140     0.6719040
  C        2.4412730     1.1569670    -0.5509020
  C        3.2049670     0.2235900     0.1537530
  C       -1.7662690     1.6987010     1.2148980
  H        0.7580870    -2.0438460     0.8774600
  H        0.4673030     1.6551460    -1.2987640
  H       -1.7702480    -0.3190170     1.8277200
  H        3.2028270    -1.6614550     1.2045750
  H        2.9128080     2.0436310    -0.9672160
  H        4.2723800     0.3833040     0.2839750
  H       -2.3988760     2.0038020     2.0501250
  H       -2.1043290     2.2146560     0.3162530
  H       -0.7257680     1.9753910     1.4267290
units angstrom
no_reorient  #important for SAPT in psi4, default
symmetry c1  #important for SAPT in psi4, default
}

set PROPERTIES_ORIGIN ["COM"]
properties('MP2/aug-cc-pvtz', properties = ['dipole'])
--------------------------------------------------------------------------

    Molecular point group: c1
  Charge       = 0
  Multiplicity = 1
  Basis Set: AUG-CC-PVTZ
    Blend: AUG-CC-PVTZ
  Basis Set: (AUG-CC-PVTZ AUX)
    Blend: AUG-CC-PVTZ-JKFIT

    Orbital Energies [Eh]
    ---------------------

    Doubly Occupied:

       1A    -92.173699     2A    -20.551533     3A    -20.530567
       4A    -15.590665     5A    -11.273628     6A    -11.270867
       7A    -11.266529     8A    -11.263069     9A    -11.262945
      10A    -11.258747    11A    -11.257332    12A     -9.148198
      13A     -6.835787    14A     -6.831655    15A     -6.831081
      16A     -1.559394    17A     -1.357403    18A     -1.227608
      19A     -1.176678    20A     -1.051935    21A     -1.039130
      22A     -0.955802    23A     -0.886209    24A     -0.851196
      25A     -0.806035    26A     -0.762192    27A     -0.730624
      28A     -0.692123    29A     -0.680017    30A     -0.651741
      31A     -0.642623    32A     -0.636688    33A     -0.612921
      34A     -0.611619    35A     -0.573543    36A     -0.555391
      37A     -0.531129    38A     -0.528296    39A     -0.517975
      40A     -0.511097    41A     -0.480929    42A     -0.461080
      43A     -0.427763    44A     -0.362705    45A     -0.358376

  @DF-RHF Final Energy:  -872.11122903902333

   => Energetics <=

    Nuclear Repulsion Energy =            753.7463499115194736
    One-Electron Energy =               -2692.5421102813234029
    Two-Electron Energy =                1066.6845313307806009
    Total Energy =                       -872.1112290390233284
  Basis Set: (AUG-CC-PVTZ AUX)
    Blend: AUG-CC-PVTZ-RI
    Molecular point group: c1

    Geometry (in Angstrom), charge = 0, multiplicity = 1:

       Center              X                  Y                   Z               Mass
    ------------   -----------------  -----------------  -----------------  -----------------
         S           -1.257232545489    -0.382091170496    -0.328835298972    31.972071174400
         O           -1.638764845489     0.314117329504    -1.310027298972    15.994914619570
         O           -1.521022545489    -1.815367170496    -0.210070298972    15.994914619570
         N           -1.936446545489     0.307766829504     1.029487701028    14.003074004430
         C            0.503441454511    -0.148350170496    -0.177161298972    12.000000000000
         C            1.255956454511    -1.093569170496     0.526209701028    12.000000000000
         C            1.091269454511     1.003665829504    -0.706303298972    12.000000000000
         C            2.624644454511    -0.880650170496     0.690424701028    12.000000000000
         C            2.462115454511     1.203430829504    -0.532381298972    12.000000000000
         C            3.225809454511     0.270053829504     0.172273701028    12.000000000000
         C           -1.745426545489     1.745164829504     1.233418701028    12.000000000000
         H            0.778929454511    -1.997382170496     0.895980701028     1.007825032230
         H            0.488145454511     1.701609829504    -1.280243298972     1.007825032230
         H           -1.749405545489    -0.272553170496     1.846240701028     1.007825032230
         H            3.223669454511    -1.614991170496     1.223095701028     1.007825032230
         H            2.933650454511     2.090094829504    -0.948695298972     1.007825032230
         H            4.293222454511     0.429767829504     0.302495701028     1.007825032230
         H           -2.378033545489     2.050265829504     2.068645701028     1.007825032230
         H           -2.083486545489     2.261119829504     0.334773701028     1.007825032230
         H           -0.704925545489     2.021854829504     1.445249701028     1.007825032230

  Basis Set: AUG-CC-PVTZ
    Blend: AUG-CC-PVTZ
  Basis Set: (AUG-CC-PVTZ AUX)
    Blend: AUG-CC-PVTZ-JKFIT
	 Reference Energy          =    -872.1112290390233284 [Eh]
	 Singles Energy            =      -0.0000000000000000 [Eh]
	 Same-Spin Energy          =      -0.5597133238621707 [Eh]
	 Opposite-Spin Energy      =      -1.6833563905885329 [Eh]
	 Correlation Energy        =      -2.2430697144507037 [Eh]
	 Total Energy              =    -874.3542987534740405 [Eh]

	 ================> DF-SCS-MP2 Energies <==================
	-----------------------------------------------------------
	 SCS Same-Spin Scale       =       0.3333333333333333 [-]
	 SCS Opposite-Spin Scale   =       1.2000000000000000 [-]
	 SCS Same-Spin Energy      =      -0.1865711079540569 [Eh]
	 SCS Opposite-Spin Energy  =      -2.0200276687062395 [Eh]
	 SCS Correlation Energy    =      -2.2065987766602966 [Eh]
	 SCS Total Energy          =    -874.3178278156835859 [Eh]
	-----------------------------------------------------------

  Dipole Moment: [D]
     X:     3.2037      Y:     2.9154      Z:     2.7668     Total:     5.1399

*** Psi4 exiting successfully. Buy a developer a beer!
