                               Psi4 1.3.2 release

  ==> Input File <==

--------------------------------------------------------------------------
#psi4
#
memory 32 gb

molecule  {
0 1
  S       -1.2780750    -0.4285550    -0.3473560
  O       -1.7200650     0.3779750    -1.4840280
  O       -1.5418650    -1.8618310    -0.2285910
  N       -1.8758492     0.1785870     0.8481001
  C        0.4825990    -0.1948140    -0.1956820
  C        1.2351140    -1.1400330     0.5076890
  C        1.0704270     0.9572020    -0.7248240
  C        2.6038020    -0.9271140     0.6719040
  C        2.4412730     1.1569670    -0.5509020
  C        3.2049670     0.2235900     0.1537530
  C       -1.7662690     1.6987010     1.2148980
  H        0.7580870    -2.0438460     0.8774600
  H        0.4673030     1.6551460    -1.2987640
  H       -1.7702480    -0.3190170     1.8277200
  H        3.2028270    -1.6614550     1.2045750
  H        2.9128080     2.0436310    -0.9672160
  H        4.2723800     0.3833040     0.2839750
  H       -2.3988760     2.0038020     2.0501250
  H       -2.1043290     2.2146560     0.3162530
  H       -0.7257680     1.9753910     1.4267290
units angstrom
no_reorient  #important for SAPT in psi4, default
symmetry c1  #important for SAPT in psi4, default
}

set PROPERTIES_ORIGIN ["COM"]
properties('MP2/aug-cc-pvtz', properties = ['dipole'])
--------------------------------------------------------------------------

    Molecular point group: c1
  Charge       = 0
  Multiplicity = 1
  Basis Set: AUG-CC-PVTZ
    Blend: AUG-CC-PVTZ
  Basis Set: (AUG-CC-PVTZ AUX)
    Blend: AUG-CC-PVTZ-JKFIT

    Orbital Energies [Eh]
    ---------------------

    Doubly Occupied:

       1A    -92.187512     2A    -20.533572     3A    -20.531948
       4A    -15.610042     5A    -11.300545     6A    -11.272409
       7A    -11.263185     8A    -11.263095     9A    -11.261492
      10A    -11.257237    11A    -11.257056    12A     -9.155728
      13A     -6.842084    14A     -6.839958    15A     -6.839894
      16A     -1.462632    17A     -1.327315    18A     -1.254432
      19A     -1.175603    20A     -1.050486    21A     -1.037909
      22A     -0.987502    23A     -0.885356    24A     -0.849898
      25A     -0.811526    26A     -0.756545    27A     -0.709751
      28A     -0.681420    29A     -0.672512    30A     -0.647819
      31A     -0.638739    32A     -0.618224    33A     -0.610451
      34A     -0.603634    35A     -0.562743    36A     -0.544843
      37A     -0.530369    38A     -0.517374    39A     -0.506071
      40A     -0.484896    41A     -0.468652    42A     -0.459425
      43A     -0.447729    44A     -0.360622    45A     -0.357969

  @DF-RHF Final Energy:  -872.11583974209464

   => Energetics <=

    Nuclear Repulsion Energy =            749.1570972976950316
    One-Electron Energy =               -2683.6694616767767911
    Two-Electron Energy =                1062.3965246369868964
    Total Energy =                       -872.1158397420947495
  Basis Set: (AUG-CC-PVTZ AUX)
    Blend: AUG-CC-PVTZ-RI
    Molecular point group: c1

    Geometry (in Angstrom), charge = 0, multiplicity = 1:

       Center              X                  Y                   Z               Mass
    ------------   -----------------  -----------------  -----------------  -----------------
         S           -1.258246322736    -0.385636078187    -0.300960797046    31.972071174400
         O           -1.700236322736     0.420893921813    -1.437632797046    15.994914619570
         O           -1.522036322736    -1.818912078187    -0.182195797046    15.994914619570
         N           -1.856020522736     0.221505921813     0.894495302954    14.003074004430
         C            0.502427677264    -0.151895078187    -0.149286797046    12.000000000000
         C            1.254942677264    -1.097114078187     0.554084202954    12.000000000000
         C            1.090255677264     1.000120921813    -0.678428797046    12.000000000000
         C            2.623630677264    -0.884195078187     0.718299202954    12.000000000000
         C            2.461101677264     1.199885921813    -0.504506797046    12.000000000000
         C            3.224795677264     0.266508921813     0.200148202954    12.000000000000
         C           -1.746440322736     1.741619921813     1.261293202954    12.000000000000
         H            0.777915677264    -2.000927078187     0.923855202954     1.007825032230
         H            0.487131677264     1.698064921813    -1.252368797046     1.007825032230
         H           -1.750419322736    -0.276098078187     1.874115202954     1.007825032230
         H            3.222655677264    -1.618536078187     1.250970202954     1.007825032230
         H            2.932636677264     2.086549921813    -0.920820797046     1.007825032230
         H            4.292208677264     0.426222921813     0.330370202954     1.007825032230
         H           -2.379047322736     2.046720921813     2.096520202954     1.007825032230
         H           -2.084500322736     2.257574921813     0.362648202954     1.007825032230
         H           -0.705939322736     2.018309921813     1.473124202954     1.007825032230

  Basis Set: AUG-CC-PVTZ
    Blend: AUG-CC-PVTZ
  Basis Set: (AUG-CC-PVTZ AUX)
    Blend: AUG-CC-PVTZ-JKFIT
	 Reference Energy          =    -872.1158397420946358 [Eh]
	 Singles Energy            =      -0.0000000000000000 [Eh]
	 Same-Spin Energy          =      -0.5650360408484119 [Eh]
	 Opposite-Spin Energy      =      -1.6939850880583074 [Eh]
	 Correlation Energy        =      -2.2590211289067192 [Eh]
	 Total Energy              =    -874.3748608710013741 [Eh]

	 ================> DF-SCS-MP2 Energies <==================
	-----------------------------------------------------------
	 SCS Same-Spin Scale       =       0.3333333333333333 [-]
	 SCS Opposite-Spin Scale   =       1.2000000000000000 [-]
	 SCS Same-Spin Energy      =      -0.1883453469494706 [Eh]
	 SCS Opposite-Spin Energy  =      -2.0327821056699689 [Eh]
	 SCS Correlation Energy    =      -2.2211274526194393 [Eh]
	 SCS Total Energy          =    -874.3369671947140205 [Eh]
	-----------------------------------------------------------

  Dipole Moment: [D]
     X:     2.9453      Y:     3.0902      Z:     4.4595     Total:     6.1734

*** Psi4 exiting successfully. Buy a developer a beer!
