                               Psi4 1.3.2 release

  ==> Input File <==

--------------------------------------------------------------------------
#psi4
#
memory 32 gb

molecule  {
0 1
  S       -1.2780750    -0.4285550    -0.3473560
  O       -1.7200650     0.3779750    -1.4840280
  O       -1.5418650    -1.8618310    -0.2285910
  N       -1.9572890     0.2613030     1.0109670
  C        0.4825990    -0.1948140    -0.1956820
  C        1.2351140    -1.1400330     0.5076890
  C        1.0704270     0.9572020    -0.7248240
  C        2.6038020    -0.9271140     0.6719040
  C        2.4412730     1.1569670    -0.5509020
  C        3.2049670     0.2235900     0.1537530
  C       -1.7662690     1.6987010     1.2148980
  H        0.7580870    -2.0438460     0.8774600
  H        0.4673030     1.6551460    -1.2987640
  H       -1.7702480    -0.3190170     1.8277200
  H        3.2028270    -1.6614550     1.2045750
  H        2.9128080     2.0436310    -0.9672160
  H        4.2723800     0.3833040     0.2839750
  H       -2.3988760     2.0038020     2.0501250
  H       -2.1043290     2.2146560     0.3162530
  H       -0.7257680     1.9753910     1.4267290
units angstrom
no_reorient  #important for SAPT in psi4, default
symmetry c1  #important for SAPT in psi4, default
}

set PROPERTIES_ORIGIN ["COM"]
properties('MP2/aug-cc-pvtz', properties = ['dipole'])
--------------------------------------------------------------------------

    Molecular point group: c1
  Charge       = 0
  Multiplicity = 1
  Basis Set: AUG-CC-PVTZ
    Blend: AUG-CC-PVTZ
  Basis Set: (AUG-CC-PVTZ AUX)
    Blend: AUG-CC-PVTZ-JKFIT

    Orbital Energies [Eh]
    ---------------------

    Doubly Occupied:

       1A    -92.203020     2A    -20.547329     3A    -20.547285
       4A    -15.604433     5A    -11.282642     6A    -11.276408
       7A    -11.270658     8A    -11.270531     9A    -11.267897
      10A    -11.262179    11A    -11.262028    12A     -9.167903
      13A     -6.853073    14A     -6.852521    15A     -6.852307
      16A     -1.452149    17A     -1.336900    18A     -1.234361
      19A     -1.181997    20A     -1.057975    21A     -1.043807
      22A     -0.963080    23A     -0.893767    24A     -0.855861
      25A     -0.813784    26A     -0.750059    27A     -0.712387
      28A     -0.677614    29A     -0.672327    30A     -0.655714
      31A     -0.641743    32A     -0.621272    33A     -0.616001
      34A     -0.607545    35A     -0.566888    36A     -0.548172
      37A     -0.533284    38A     -0.523369    39A     -0.503292
      40A     -0.497956    41A     -0.473882    42A     -0.466503
      43A     -0.435370    44A     -0.368214    45A     -0.362971

  @DF-RHF Final Energy:  -872.15548147682023

   => Energetics <=

    Nuclear Repulsion Energy =            742.8010189724924430
    One-Electron Energy =               -2670.7360893898630820
    Two-Electron Energy =                1055.7795889405506387
    Total Energy =                       -872.1554814768201140
  Basis Set: (AUG-CC-PVTZ AUX)
    Blend: AUG-CC-PVTZ-RI
    Molecular point group: c1

    Geometry (in Angstrom), charge = 0, multiplicity = 1:

       Center              X                  Y                   Z               Mass
    ------------   -----------------  -----------------  -----------------  -----------------
         S           -1.251578653071    -0.392408233375    -0.314295096597    31.972071174400
         O           -1.693568653071     0.414121766625    -1.450967096597    15.994914619570
         O           -1.515368653071    -1.825684233375    -0.195530096597    15.994914619570
         N           -1.930792653071     0.297449766625     1.044027903403    14.003074004430
         C            0.509095346929    -0.158667233375    -0.162621096597    12.000000000000
         C            1.261610346929    -1.103886233375     0.540749903403    12.000000000000
         C            1.096923346929     0.993348766625    -0.691763096597    12.000000000000
         C            2.630298346929    -0.890967233375     0.704964903403    12.000000000000
         C            2.467769346929     1.193113766625    -0.517841096597    12.000000000000
         C            3.231463346929     0.259736766625     0.186813903403    12.000000000000
         C           -1.739772653071     1.734847766625     1.247958903403    12.000000000000
         H            0.784583346929    -2.007699233375     0.910520903403     1.007825032230
         H            0.493799346929     1.691292766625    -1.265703096597     1.007825032230
         H           -1.743751653071    -0.282870233375     1.860780903403     1.007825032230
         H            3.229323346929    -1.625308233375     1.237635903403     1.007825032230
         H            2.939304346929     2.079777766625    -0.934155096597     1.007825032230
         H            4.298876346929     0.419450766625     0.317035903403     1.007825032230
         H           -2.372379653071     2.039948766625     2.083185903403     1.007825032230
         H           -2.077832653071     2.250802766625     0.349313903403     1.007825032230
         H           -0.699271653071     2.011537766625     1.459789903403     1.007825032230

  Basis Set: AUG-CC-PVTZ
    Blend: AUG-CC-PVTZ
  Basis Set: (AUG-CC-PVTZ AUX)
    Blend: AUG-CC-PVTZ-JKFIT
	 Reference Energy          =    -872.1554814768202277 [Eh]
	 Singles Energy            =      -0.0000000000000000 [Eh]
	 Same-Spin Energy          =      -0.5645565040572110 [Eh]
	 Opposite-Spin Energy      =      -1.6945716545924343 [Eh]
	 Correlation Energy        =      -2.2591281586496454 [Eh]
	 Total Energy              =    -874.4146096354699011 [Eh]

	 ================> DF-SCS-MP2 Energies <==================
	-----------------------------------------------------------
	 SCS Same-Spin Scale       =       0.3333333333333333 [-]
	 SCS Opposite-Spin Scale   =       1.2000000000000000 [-]
	 SCS Same-Spin Energy      =      -0.1881855013524037 [Eh]
	 SCS Opposite-Spin Energy  =      -2.0334859855109211 [Eh]
	 SCS Correlation Energy    =      -2.2216714868633249 [Eh]
	 SCS Total Energy          =    -874.3771529636835567 [Eh]
	-----------------------------------------------------------

  Dipole Moment: [D]
     X:     3.7092      Y:     2.5120      Z:     3.5854     Total:     5.7379

*** Psi4 exiting successfully. Buy a developer a beer!
