                               Psi4 1.4a3.dev225

  ==> Input File <==

--------------------------------------------------------------------------
#psi4
#
memory 32 gb

molecule  {
0 1
  S       -1.2780750    -0.4285550    -0.3473560
  O       -1.7200650     0.3779750    -1.4840280
  O       -1.5418650    -1.8618310    -0.2285910
  N       -1.9572890     0.2613030     1.0109670
  C        0.4825990    -0.1948140    -0.1956820
  C        1.2351140    -1.1400330     0.5076890
  C        1.0704270     0.9572020    -0.7248240
  C        2.6038020    -0.9271140     0.6719040
  C        2.4412730     1.1569670    -0.5509020
  C        3.2049670     0.2235900     0.1537530
  C       -1.7688780     1.6790685     1.2121126
  H        0.7580870    -2.0438460     0.8774600
  H        0.4673030     1.6551460    -1.2987640
  H       -1.7702480    -0.3190170     1.8277200
  H        3.2028270    -1.6614550     1.2045750
  H        2.9128080     2.0436310    -0.9672160
  H        4.2723800     0.3833040     0.2839750
  H       -2.3988760     2.0038020     2.0501250
  H       -2.1043290     2.2146560     0.3162530
  H       -0.7257680     1.9753910     1.4267290
units angstrom
no_reorient  #important for SAPT in psi4, default
symmetry c1  #important for SAPT in psi4, default
}

set PROPERTIES_ORIGIN ["COM"]
properties('MP2/aug-cc-pvtz', properties = ['dipole'])
--------------------------------------------------------------------------

    Molecular point group: c1
  Charge       = 0
  Multiplicity = 1
  Basis Set: AUG-CC-PVTZ
    Blend: AUG-CC-PVTZ
  Basis Set: (AUG-CC-PVTZ AUX)
    Blend: AUG-CC-PVTZ-JKFIT

    Orbital Energies [Eh]
    ---------------------

    Doubly Occupied:

       1A    -92.203572     2A    -20.547833     3A    -20.547739
       4A    -15.604949     5A    -11.282862     6A    -11.276213
       7A    -11.270888     8A    -11.270716     9A    -11.268066
      10A    -11.262279    11A    -11.262110    12A     -9.168481
      13A     -6.853658    14A     -6.853089    15A     -6.852876
      16A     -1.452829    17A     -1.337370    18A     -1.239403
      19A     -1.182224    20A     -1.058290    21A     -1.043942
      22A     -0.962182    23A     -0.893557    24A     -0.856007
      25A     -0.814437    26A     -0.750892    27A     -0.713134
      28A     -0.679434    29A     -0.674177    30A     -0.656737
      31A     -0.642050    32A     -0.620927    33A     -0.616134
      34A     -0.608108    35A     -0.563141    36A     -0.548250
      37A     -0.533028    38A     -0.523509    39A     -0.503745
      40A     -0.498587    41A     -0.474374    42A     -0.466537
      43A     -0.434243    44A     -0.368514    45A     -0.363045

  @DF-RHF Final Energy:  -872.15502737088423

   => Energetics <=

    Nuclear Repulsion Energy =            743.2017236723365841
    One-Electron Energy =               -2671.5052330821717987
    Two-Electron Energy =                1056.1484820389509878
    Total Energy =                       -872.1550273708842269
  Basis Set: (AUG-CC-PVTZ AUX)
    Blend: AUG-CC-PVTZ-RI
    Molecular point group: c1

    Geometry (in Angstrom), charge = 0, multiplicity = 1:

       Center              X                  Y                   Z               Mass
    ------------   -----------------  -----------------  -----------------  -----------------
         S           -1.251395603246    -0.391030799227    -0.314099670387    31.972071174400
         O           -1.693385603246     0.415499200773    -1.450771670387    15.994914619570
         O           -1.515185603246    -1.824306799227    -0.195334670387    15.994914619570
         N           -1.930609603246     0.298827200773     1.044223329613    14.003074004430
         C            0.509278396754    -0.157289799227    -0.162425670387    12.000000000000
         C            1.261793396754    -1.102508799227     0.540945329613    12.000000000000
         C            1.097106396754     0.994726200773    -0.691567670387    12.000000000000
         C            2.630481396754    -0.889589799227     0.705160329613    12.000000000000
         C            2.467952396754     1.194491200773    -0.517645670387    12.000000000000
         C            3.231646396754     0.261114200773     0.187009329613    12.000000000000
         C           -1.742198603246     1.716592700773     1.245368929613    12.000000000000
         H            0.784766396754    -2.006321799227     0.910716329613     1.007825032230
         H            0.493982396754     1.692670200773    -1.265507670387     1.007825032230
         H           -1.743568603246    -0.281492799227     1.860976329613     1.007825032230
         H            3.229506396754    -1.623930799227     1.237831329613     1.007825032230
         H            2.939487396754     2.081155200773    -0.933959670387     1.007825032230
         H            4.299059396754     0.420828200773     0.317231329613     1.007825032230
         H           -2.372196603246     2.041326200773     2.083381329613     1.007825032230
         H           -2.077649603246     2.252180200773     0.349509329613     1.007825032230
         H           -0.699088603246     2.012915200773     1.459985329613     1.007825032230

  Basis Set: AUG-CC-PVTZ
    Blend: AUG-CC-PVTZ
  Basis Set: (AUG-CC-PVTZ AUX)
    Blend: AUG-CC-PVTZ-JKFIT
	 Reference Energy          =    -872.1550273708842269 [Eh]
	 Singles Energy            =      -0.0000000000000000 [Eh]
	 Same-Spin Energy          =      -0.5646988074772946 [Eh]
	 Opposite-Spin Energy      =      -1.6946076930196052 [Eh]
	 Correlation Energy        =      -2.2593065004969000 [Eh]
	 Total Energy              =    -874.4143338713811318 [Eh]

	 ================> DF-SCS-MP2 Energies <==================
	-----------------------------------------------------------
	 SCS Same-Spin Scale       =       0.3333333333333333 [-]
	 SCS Opposite-Spin Scale   =       1.2000000000000000 [-]
	 SCS Same-Spin Energy      =      -0.1882329358257649 [Eh]
	 SCS Opposite-Spin Energy  =      -2.0335292316235263 [Eh]
	 SCS Correlation Energy    =      -2.2217621674492913 [Eh]
	 SCS Total Energy          =    -874.3767895383334690 [Eh]
	-----------------------------------------------------------

  Dipole Moment: [D]
     X:     3.7125      Y:     2.4678      Z:     3.5656     Total:     5.7085

*** Psi4 exiting successfully. Buy a developer a beer!
