                               Psi4 1.3.2 release

  ==> Input File <==

--------------------------------------------------------------------------
#psi4
#
memory 32 gb

molecule  {
0 1
  S       -1.2780750    -0.4285550    -0.3473560
  O       -1.7200650     0.3779750    -1.4840280
  O       -1.5418650    -1.8618310    -0.2285910
  N       -1.9572890     0.2613030     1.0109670
  C        0.4825990    -0.1948140    -0.1956820
  C        1.2351140    -1.1400330     0.5076890
  C        1.0704270     0.9572020    -0.7248240
  C        2.6038020    -0.9271140     0.6719040
  C        2.4412730     1.1569670    -0.5509020
  C        3.2049670     0.2235900     0.1537530
  C       -1.7798522     1.7064999     1.1662458
  H        0.7580870    -2.0438460     0.8774600
  H        0.4673030     1.6551460    -1.2987640
  H       -1.7702480    -0.3190170     1.8277200
  H        3.2028270    -1.6614550     1.2045750
  H        2.9128080     2.0436310    -0.9672160
  H        4.2723800     0.3833040     0.2839750
  H       -2.3988760     2.0038020     2.0501250
  H       -2.1043290     2.2146560     0.3162530
  H       -0.7257680     1.9753910     1.4267290
units angstrom
no_reorient  #important for SAPT in psi4, default
symmetry c1  #important for SAPT in psi4, default
}

set PROPERTIES_ORIGIN ["COM"]
properties('MP2/aug-cc-pvtz', properties = ['dipole'])
--------------------------------------------------------------------------

    Molecular point group: c1
  Charge       = 0
  Multiplicity = 1
  Basis Set: AUG-CC-PVTZ
    Blend: AUG-CC-PVTZ
  Basis Set: (AUG-CC-PVTZ AUX)
    Blend: AUG-CC-PVTZ-JKFIT

    Orbital Energies [Eh]
    ---------------------

    Doubly Occupied:

       1A    -92.202327     2A    -20.547361     3A    -20.546715
       4A    -15.604899     5A    -11.282417     6A    -11.277371
       7A    -11.270502     8A    -11.270375     9A    -11.267732
      10A    -11.261984    11A    -11.261825    12A     -9.167311
      13A     -6.852460    14A     -6.851918    15A     -6.851720
      16A     -1.452081    17A     -1.336786    18A     -1.234597
      19A     -1.181812    20A     -1.057770    21A     -1.043629
      22A     -0.963260    23A     -0.894261    24A     -0.855682
      25A     -0.814351    26A     -0.750604    27A     -0.712384
      28A     -0.677064    29A     -0.671745    30A     -0.655031
      31A     -0.641623    32A     -0.621080    33A     -0.615805
      34A     -0.606872    35A     -0.574024    36A     -0.547827
      37A     -0.533094    38A     -0.523205    39A     -0.502474
      40A     -0.497713    41A     -0.473689    42A     -0.465735
      43A     -0.433238    44A     -0.368031    45A     -0.362716

  @DF-RHF Final Energy:  -872.15249938640306

   => Energetics <=

    Nuclear Repulsion Energy =            743.0828786348827180
    One-Electron Energy =               -2671.3005572735983151
    Two-Electron Energy =                1056.0651792523126460
    Total Energy =                       -872.1524993864029511
  Basis Set: (AUG-CC-PVTZ AUX)
    Blend: AUG-CC-PVTZ-RI
    Molecular point group: c1

    Geometry (in Angstrom), charge = 0, multiplicity = 1:

       Center              X                  Y                   Z               Mass
    ------------   -----------------  -----------------  -----------------  -----------------
         S           -1.250625643342    -0.392955411328    -0.310881613768    31.972071174400
         O           -1.692615643342     0.413574588672    -1.447553613768    15.994914619570
         O           -1.514415643342    -1.826231411328    -0.192116613768    15.994914619570
         N           -1.929839643342     0.296902588672     1.047441386232    14.003074004430
         C            0.510048356658    -0.159214411328    -0.159207613768    12.000000000000
         C            1.262563356658    -1.104433411328     0.544163386232    12.000000000000
         C            1.097876356658     0.992801588672    -0.688349613768    12.000000000000
         C            2.631251356658    -0.891514411328     0.708378386232    12.000000000000
         C            2.468722356658     1.192566588672    -0.514427613768    12.000000000000
         C            3.232416356658     0.259189588672     0.190227386232    12.000000000000
         C           -1.752402843342     1.742099488672     1.202720186232    12.000000000000
         H            0.785536356658    -2.008246411328     0.913934386232     1.007825032230
         H            0.494752356658     1.690745588672    -1.262289613768     1.007825032230
         H           -1.742798643342    -0.283417411328     1.864194386232     1.007825032230
         H            3.230276356658    -1.625855411328     1.241049386232     1.007825032230
         H            2.940257356658     2.079230588672    -0.930741613768     1.007825032230
         H            4.299829356658     0.418903588672     0.320449386232     1.007825032230
         H           -2.371426643342     2.039401588672     2.086599386232     1.007825032230
         H           -2.076879643342     2.250255588672     0.352727386232     1.007825032230
         H           -0.698318643342     2.010990588672     1.463203386232     1.007825032230

  Basis Set: AUG-CC-PVTZ
    Blend: AUG-CC-PVTZ
  Basis Set: (AUG-CC-PVTZ AUX)
    Blend: AUG-CC-PVTZ-JKFIT
	 Reference Energy          =    -872.1524993864030648 [Eh]
	 Singles Energy            =      -0.0000000000000000 [Eh]
	 Same-Spin Energy          =      -0.5645854253142955 [Eh]
	 Opposite-Spin Energy      =      -1.6946255755627631 [Eh]
	 Correlation Energy        =      -2.2592110008770585 [Eh]
	 Total Energy              =    -874.4117103872800953 [Eh]

	 ================> DF-SCS-MP2 Energies <==================
	-----------------------------------------------------------
	 SCS Same-Spin Scale       =       0.3333333333333333 [-]
	 SCS Opposite-Spin Scale   =       1.2000000000000000 [-]
	 SCS Same-Spin Energy      =      -0.1881951417714318 [Eh]
	 SCS Opposite-Spin Energy  =      -2.0335506906753156 [Eh]
	 SCS Correlation Energy    =      -2.2217458324467474 [Eh]
	 SCS Total Energy          =    -874.3742452188498646 [Eh]
	-----------------------------------------------------------

  Dipole Moment: [D]
     X:     3.6788      Y:     2.5273      Z:     3.5789     Total:     5.7210

*** Psi4 exiting successfully. Buy a developer a beer!
