                               Psi4 1.3.2 release

  ==> Input File <==

--------------------------------------------------------------------------
#psi4
#
memory 32 gb

molecule  {
0 1
  S       -1.2780750    -0.4285550    -0.3473560
  O       -1.7200650     0.3779750    -1.4840280
  O       -1.5418650    -1.8618310    -0.2285910
  N       -1.9572890     0.2613030     1.0109670
  C        0.2850574    -0.2210389    -0.2126993
  C        1.2351140    -1.1400330     0.5076890
  C        1.0704270     0.9572020    -0.7248240
  C        2.6038020    -0.9271140     0.6719040
  C        2.4412730     1.1569670    -0.5509020
  C        3.2049670     0.2235900     0.1537530
  C       -1.7662690     1.6987010     1.2148980
  H        0.7580870    -2.0438460     0.8774600
  H        0.4673030     1.6551460    -1.2987640
  H       -1.7702480    -0.3190170     1.8277200
  H        3.2028270    -1.6614550     1.2045750
  H        2.9128080     2.0436310    -0.9672160
  H        4.2723800     0.3833040     0.2839750
  H       -2.3988760     2.0038020     2.0501250
  H       -2.1043290     2.2146560     0.3162530
  H       -0.7257680     1.9753910     1.4267290
units angstrom
no_reorient  #important for SAPT in psi4, default
symmetry c1  #important for SAPT in psi4, default
}

set PROPERTIES_ORIGIN ["COM"]
properties('MP2/aug-cc-pvtz', properties = ['dipole'])
--------------------------------------------------------------------------

    Molecular point group: c1
  Charge       = 0
  Multiplicity = 1
  Basis Set: AUG-CC-PVTZ
    Blend: AUG-CC-PVTZ
  Basis Set: (AUG-CC-PVTZ AUX)
    Blend: AUG-CC-PVTZ-JKFIT

    Orbital Energies [Eh]
    ---------------------

    Doubly Occupied:

       1A    -92.195653     2A    -20.541183     3A    -20.541037
       4A    -15.598190     5A    -11.293280     6A    -11.292974
       7A    -11.283067     8A    -11.282227     9A    -11.273425
      10A    -11.265800    11A    -11.265697    12A     -9.163536
      13A     -6.848964    14A     -6.848399    15A     -6.847748
      16A     -1.455394    17A     -1.333656    18A     -1.231338
      19A     -1.170452    20A     -1.074567    21A     -1.040633
      22A     -0.964357    23A     -0.919985    24A     -0.847045
      25A     -0.808475    26A     -0.751423    27A     -0.717777
      28A     -0.685883    29A     -0.673499    30A     -0.654125
      31A     -0.638281    32A     -0.620031    33A     -0.608944
      34A     -0.602605    35A     -0.564912    36A     -0.555830
      37A     -0.524019    38A     -0.507535    39A     -0.504049
      40A     -0.486586    41A     -0.474813    42A     -0.468048
      43A     -0.442847    44A     -0.365329    45A     -0.359835

  @DF-RHF Final Energy:  -872.10511613823633

   => Energetics <=

    Nuclear Repulsion Energy =            744.8997156723696662
    One-Electron Energy =               -2674.8227581896526317
    Two-Electron Energy =                1057.8179263790466393
    Total Energy =                       -872.1051161382363262
  Basis Set: (AUG-CC-PVTZ AUX)
    Blend: AUG-CC-PVTZ-RI
    Molecular point group: c1

    Geometry (in Angstrom), charge = 0, multiplicity = 1:

       Center              X                  Y                   Z               Mass
    ------------   -----------------  -----------------  -----------------  -----------------
         S           -1.237718953827    -0.390568270417    -0.313101147272    31.972071174400
         O           -1.679708953827     0.415961729583    -1.449773147272    15.994914619570
         O           -1.501508953827    -1.823844270417    -0.194336147272    15.994914619570
         N           -1.916932953827     0.299289729583     1.045221852728    14.003074004430
         C            0.325413446173    -0.183052170417    -0.178444447272    12.000000000000
         C            1.275470046173    -1.102046270417     0.541943852728    12.000000000000
         C            1.110783046173     0.995188729583    -0.690569147272    12.000000000000
         C            2.644158046173    -0.889127270417     0.706158852728    12.000000000000
         C            2.481629046173     1.194953729583    -0.516647147272    12.000000000000
         C            3.245323046173     0.261576729583     0.188007852728    12.000000000000
         C           -1.725912953827     1.736687729583     1.249152852728    12.000000000000
         H            0.798443046173    -2.005859270417     0.911714852728     1.007825032230
         H            0.507659046173     1.693132729583    -1.264509147272     1.007825032230
         H           -1.729891953827    -0.281030270417     1.861974852728     1.007825032230
         H            3.243183046173    -1.623468270417     1.238829852728     1.007825032230
         H            2.953164046173     2.081617729583    -0.932961147272     1.007825032230
         H            4.312736046173     0.421290729583     0.318229852728     1.007825032230
         H           -2.358519953827     2.041788729583     2.084379852728     1.007825032230
         H           -2.063972953827     2.252642729583     0.350507852728     1.007825032230
         H           -0.685411953827     2.013377729583     1.460983852728     1.007825032230

  Basis Set: AUG-CC-PVTZ
    Blend: AUG-CC-PVTZ
  Basis Set: (AUG-CC-PVTZ AUX)
    Blend: AUG-CC-PVTZ-JKFIT
	 Reference Energy          =    -872.1051161382363262 [Eh]
	 Singles Energy            =      -0.0000000000000000 [Eh]
	 Same-Spin Energy          =      -0.5669408213881740 [Eh]
	 Opposite-Spin Energy      =      -1.6991885142479948 [Eh]
	 Correlation Energy        =      -2.2661293356361689 [Eh]
	 Total Energy              =    -874.3712454738724773 [Eh]

	 ================> DF-SCS-MP2 Energies <==================
	-----------------------------------------------------------
	 SCS Same-Spin Scale       =       0.3333333333333333 [-]
	 SCS Opposite-Spin Scale   =       1.2000000000000000 [-]
	 SCS Same-Spin Energy      =      -0.1889802737960580 [Eh]
	 SCS Opposite-Spin Energy  =      -2.0390262170975935 [Eh]
	 SCS Correlation Energy    =      -2.2280064908936517 [Eh]
	 SCS Total Energy          =    -874.3331226291300027 [Eh]
	-----------------------------------------------------------

  Dipole Moment: [D]
     X:     4.1958      Y:     2.5745      Z:     3.6411     Total:     6.1229

*** Psi4 exiting successfully. Buy a developer a beer!
