                               Psi4 1.3.2 release

  ==> Input File <==

--------------------------------------------------------------------------
#psi4
#
memory 32 gb

molecule  {
0 1
  S       -1.2798867    -0.4021872    -0.3637691
  O       -1.7200650     0.3779750    -1.4840280
  O       -1.5418650    -1.8618310    -0.2285910
  N       -1.9572890     0.2613030     1.0109670
  C        0.4825990    -0.1948140    -0.1956820
  C        1.2351140    -1.1400330     0.5076890
  C        1.0704270     0.9572020    -0.7248240
  C        2.6038020    -0.9271140     0.6719040
  C        2.4412730     1.1569670    -0.5509020
  C        3.2049670     0.2235900     0.1537530
  C       -1.7662690     1.6987010     1.2148980
  H        0.7580870    -2.0438460     0.8774600
  H        0.4673030     1.6551460    -1.2987640
  H       -1.7702480    -0.3190170     1.8277200
  H        3.2028270    -1.6614550     1.2045750
  H        2.9128080     2.0436310    -0.9672160
  H        4.2723800     0.3833040     0.2839750
  H       -2.3988760     2.0038020     2.0501250
  H       -2.1043290     2.2146560     0.3162530
  H       -0.7257680     1.9753910     1.4267290
units angstrom
no_reorient  #important for SAPT in psi4, default
symmetry c1  #important for SAPT in psi4, default
}

set PROPERTIES_ORIGIN ["COM"]
properties('MP2/aug-cc-pvtz', properties = ['dipole'])
--------------------------------------------------------------------------

    Molecular point group: c1
  Charge       = 0
  Multiplicity = 1
  Basis Set: AUG-CC-PVTZ
    Blend: AUG-CC-PVTZ
  Basis Set: (AUG-CC-PVTZ AUX)
    Blend: AUG-CC-PVTZ-JKFIT

    Orbital Energies [Eh]
    ---------------------

    Doubly Occupied:

       1A    -92.202705     2A    -20.554179     3A    -20.540753
       4A    -15.603987     5A    -11.282739     6A    -11.276393
       7A    -11.270694     8A    -11.270588     9A    -11.267932
      10A    -11.262210    11A    -11.262071    12A     -9.167786
      13A     -6.852939    14A     -6.852429    15A     -6.852145
      16A     -1.456446    17A     -1.334299    18A     -1.233576
      19A     -1.182035    20A     -1.058031    21A     -1.043838
      22A     -0.961996    23A     -0.894102    24A     -0.855830
      25A     -0.814505    26A     -0.751049    27A     -0.713413
      28A     -0.677242    29A     -0.672679    30A     -0.655241
      31A     -0.641805    32A     -0.622711    33A     -0.615961
      34A     -0.607001    35A     -0.567843    36A     -0.548690
      37A     -0.533322    38A     -0.523607    39A     -0.506409
      40A     -0.497734    41A     -0.472119    42A     -0.464327
      43A     -0.434720    44A     -0.368313    45A     -0.362914

  @DF-RHF Final Energy:  -872.15369608988487

   => Energetics <=

    Nuclear Repulsion Energy =            742.9143356014833444
    One-Electron Energy =               -2670.9534410334749737
    Two-Electron Energy =                1055.8854093421068683
    Total Energy =                       -872.1536960898847610
  Basis Set: (AUG-CC-PVTZ AUX)
    Blend: AUG-CC-PVTZ-RI
    Molecular point group: c1

    Geometry (in Angstrom), charge = 0, multiplicity = 1:

       Center              X                  Y                   Z               Mass
    ------------   -----------------  -----------------  -----------------  -----------------
         S           -1.253051687500    -0.370969431581    -0.327640055134    31.972071174400
         O           -1.693229987500     0.409192768419    -1.447898955134    15.994914619570
         O           -1.515029987500    -1.830613231581    -0.192461955134    15.994914619570
         N           -1.930453987500     0.292520768419     1.047096044866    14.003074004430
         C            0.509434012500    -0.163596231581    -0.159552955134    12.000000000000
         C            1.261949012500    -1.108815231581     0.543818044866    12.000000000000
         C            1.097262012500     0.988419768419    -0.688694955134    12.000000000000
         C            2.630637012500    -0.895896231581     0.708033044866    12.000000000000
         C            2.468108012500     1.188184768419    -0.514772955134    12.000000000000
         C            3.231802012500     0.254807768419     0.189882044866    12.000000000000
         C           -1.739433987500     1.729918768419     1.251027044866    12.000000000000
         H            0.784922012500    -2.012628231581     0.913589044866     1.007825032230
         H            0.494138012500     1.686363768419    -1.262634955134     1.007825032230
         H           -1.743412987500    -0.287799231581     1.863849044866     1.007825032230
         H            3.229662012500    -1.630237231581     1.240704044866     1.007825032230
         H            2.939643012500     2.074848768419    -0.931086955134     1.007825032230
         H            4.299215012500     0.414521768419     0.320104044866     1.007825032230
         H           -2.372040987500     2.035019768419     2.086254044866     1.007825032230
         H           -2.077493987500     2.245873768419     0.352382044866     1.007825032230
         H           -0.698932987500     2.006608768419     1.462858044866     1.007825032230

  Basis Set: AUG-CC-PVTZ
    Blend: AUG-CC-PVTZ
  Basis Set: (AUG-CC-PVTZ AUX)
    Blend: AUG-CC-PVTZ-JKFIT
	 Reference Energy          =    -872.1536960898848747 [Eh]
	 Singles Energy            =      -0.0000000000000000 [Eh]
	 Same-Spin Energy          =      -0.5645005674119783 [Eh]
	 Opposite-Spin Energy      =      -1.6945190061231696 [Eh]
	 Correlation Energy        =      -2.2590195735351477 [Eh]
	 Total Energy              =    -874.4127156634200446 [Eh]

	 ================> DF-SCS-MP2 Energies <==================
	-----------------------------------------------------------
	 SCS Same-Spin Scale       =       0.3333333333333333 [-]
	 SCS Opposite-Spin Scale   =       1.2000000000000000 [-]
	 SCS Same-Spin Energy      =      -0.1881668558039928 [Eh]
	 SCS Opposite-Spin Energy  =      -2.0334228073478036 [Eh]
	 SCS Correlation Energy    =      -2.2215896631517964 [Eh]
	 SCS Total Energy          =    -874.3752857530366782 [Eh]
	-----------------------------------------------------------

  Dipole Moment: [D]
     X:     3.7001      Y:     2.7258      Z:     3.4517     Total:     5.7476

*** Psi4 exiting successfully. Buy a developer a beer!
