                               Psi4 1.3.2 release

  ==> Input File <==

--------------------------------------------------------------------------
#psi4
#
memory 32 gb

molecule  {
0 1
  S       -1.2780750    -0.4285550    -0.3473560
  O       -1.7677836     0.3618807    -1.4757468
  O       -1.5418650    -1.8618310    -0.2285910
  N       -1.9572890     0.2613030     1.0109670
  C        0.4825990    -0.1948140    -0.1956820
  C        1.2351140    -1.1400330     0.5076890
  C        1.0704270     0.9572020    -0.7248240
  C        2.6038020    -0.9271140     0.6719040
  C        2.4412730     1.1569670    -0.5509020
  C        3.2049670     0.2235900     0.1537530
  C       -1.7662690     1.6987010     1.2148980
  H        0.7580870    -2.0438460     0.8774600
  H        0.4673030     1.6551460    -1.2987640
  H       -1.7702480    -0.3190170     1.8277200
  H        3.2028270    -1.6614550     1.2045750
  H        2.9128080     2.0436310    -0.9672160
  H        4.2723800     0.3833040     0.2839750
  H       -2.3988760     2.0038020     2.0501250
  H       -2.1043290     2.2146560     0.3162530
  H       -0.7257680     1.9753910     1.4267290
units angstrom
no_reorient  #important for SAPT in psi4, default
symmetry c1  #important for SAPT in psi4, default
}

set PROPERTIES_ORIGIN ["COM"]
properties('MP2/aug-cc-pvtz', properties = ['dipole'])
--------------------------------------------------------------------------

    Molecular point group: c1
  Charge       = 0
  Multiplicity = 1
  Basis Set: AUG-CC-PVTZ
    Blend: AUG-CC-PVTZ
  Basis Set: (AUG-CC-PVTZ AUX)
    Blend: AUG-CC-PVTZ-JKFIT

    Orbital Energies [Eh]
    ---------------------

    Doubly Occupied:

       1A    -92.202264     2A    -20.546429     3A    -20.545361
       4A    -15.603025     5A    -11.284841     6A    -11.275905
       7A    -11.272231     8A    -11.272126     9A    -11.269149
      10A    -11.263392    11A    -11.263250    12A     -9.167232
      13A     -6.852398    14A     -6.851835    15A     -6.851628
      16A     -1.451361    17A     -1.334771    18A     -1.233292
      19A     -1.183433    20A     -1.059573    21A     -1.045143
      22A     -0.962559    23A     -0.894817    24A     -0.857221
      25A     -0.813882    26A     -0.750055    27A     -0.712317
      28A     -0.677752    29A     -0.671869    30A     -0.656404
      31A     -0.642723    32A     -0.620585    33A     -0.617119
      34A     -0.606774    35A     -0.566396    36A     -0.549429
      37A     -0.534452    38A     -0.524661    39A     -0.502201
      40A     -0.496225    41A     -0.471962    42A     -0.466162
      43A     -0.435447    44A     -0.369516    45A     -0.364175

  @DF-RHF Final Energy:  -872.15551375879818

   => Energetics <=

    Nuclear Repulsion Energy =            742.4549977535367589
    One-Electron Energy =               -2670.0343411477178961
    Two-Electron Energy =                1055.4238296353830719
    Total Energy =                       -872.1555137587981790
  Basis Set: (AUG-CC-PVTZ AUX)
    Blend: AUG-CC-PVTZ-RI
    Molecular point group: c1

    Geometry (in Angstrom), charge = 0, multiplicity = 1:

       Center              X                  Y                   Z               Mass
    ------------   -----------------  -----------------  -----------------  -----------------
         S           -1.247116097752    -0.390903124170    -0.315069539123    31.972071174400
         O           -1.736824697752     0.399532575830    -1.443460339123    15.994914619570
         O           -1.510906097752    -1.824179124170    -0.196304539123    15.994914619570
         N           -1.926330097752     0.298954875830     1.043253460877    14.003074004430
         C            0.513557902248    -0.157162124170    -0.163395539123    12.000000000000
         C            1.266072902248    -1.102381124170     0.539975460877    12.000000000000
         C            1.101385902248     0.994853875830    -0.692537539123    12.000000000000
         C            2.634760902248    -0.889462124170     0.704190460877    12.000000000000
         C            2.472231902248     1.194618875830    -0.518615539123    12.000000000000
         C            3.235925902248     0.261241875830     0.186039460877    12.000000000000
         C           -1.735310097752     1.736352875830     1.247184460877    12.000000000000
         H            0.789045902248    -2.006194124170     0.909746460877     1.007825032230
         H            0.498261902248     1.692797875830    -1.266477539123     1.007825032230
         H           -1.739289097752    -0.281365124170     1.860006460877     1.007825032230
         H            3.233785902248    -1.623803124170     1.236861460877     1.007825032230
         H            2.943766902248     2.081282875830    -0.934929539123     1.007825032230
         H            4.303338902248     0.420955875830     0.316261460877     1.007825032230
         H           -2.367917097752     2.041453875830     2.082411460877     1.007825032230
         H           -2.073370097752     2.252307875830     0.348539460877     1.007825032230
         H           -0.694809097752     2.013042875830     1.459015460877     1.007825032230

  Basis Set: AUG-CC-PVTZ
    Blend: AUG-CC-PVTZ
  Basis Set: (AUG-CC-PVTZ AUX)
    Blend: AUG-CC-PVTZ-JKFIT
	 Reference Energy          =    -872.1555137587981790 [Eh]
	 Singles Energy            =      -0.0000000000000000 [Eh]
	 Same-Spin Energy          =      -0.5644595217869701 [Eh]
	 Opposite-Spin Energy      =      -1.6944205294420414 [Eh]
	 Correlation Energy        =      -2.2588800512290117 [Eh]
	 Total Energy              =    -874.4143938100271498 [Eh]

	 ================> DF-SCS-MP2 Energies <==================
	-----------------------------------------------------------
	 SCS Same-Spin Scale       =       0.3333333333333333 [-]
	 SCS Opposite-Spin Scale   =       1.2000000000000000 [-]
	 SCS Same-Spin Energy      =      -0.1881531739289900 [Eh]
	 SCS Opposite-Spin Energy  =      -2.0333046353304494 [Eh]
	 SCS Correlation Energy    =      -2.2214578092594395 [Eh]
	 SCS Total Energy          =    -874.3769715680575700 [Eh]
	-----------------------------------------------------------

  Dipole Moment: [D]
     X:     3.8751      Y:     2.5440      Z:     3.5742     Total:     5.8535

*** Psi4 exiting successfully. Buy a developer a beer!
