                               Psi4 1.3.2 release

  ==> Input File <==

--------------------------------------------------------------------------
#psi4
#
memory 32 gb

molecule  {
0 1
  S       -1.2574107    -0.3762296    -0.3623500
  O       -1.7200650     0.3779750    -1.4840280
  O       -1.5418650    -1.8618310    -0.2285910
  N       -1.9572890     0.2613030     1.0109670
  C        0.4825990    -0.1948140    -0.1956820
  C        1.2351140    -1.1400330     0.5076890
  C        1.0704270     0.9572020    -0.7248240
  C        2.6038020    -0.9271140     0.6719040
  C        2.4412730     1.1569670    -0.5509020
  C        3.2049670     0.2235900     0.1537530
  C       -1.7662690     1.6987010     1.2148980
  H        0.7580870    -2.0438460     0.8774600
  H        0.4673030     1.6551460    -1.2987640
  H       -1.7702480    -0.3190170     1.8277200
  H        3.2028270    -1.6614550     1.2045750
  H        2.9128080     2.0436310    -0.9672160
  H        4.2723800     0.3833040     0.2839750
  H       -2.3988760     2.0038020     2.0501250
  H       -2.1043290     2.2146560     0.3162530
  H       -0.7257680     1.9753910     1.4267290
units angstrom
no_reorient  #important for SAPT in psi4, default
symmetry c1  #important for SAPT in psi4, default
}

set PROPERTIES_ORIGIN ["COM"]
properties('MP2/aug-cc-pvtz', properties = ['dipole'])
--------------------------------------------------------------------------

    Molecular point group: c1
  Charge       = 0
  Multiplicity = 1
  Basis Set: AUG-CC-PVTZ
    Blend: AUG-CC-PVTZ
  Basis Set: (AUG-CC-PVTZ AUX)
    Blend: AUG-CC-PVTZ-JKFIT

    Orbital Energies [Eh]
    ---------------------

    Doubly Occupied:

       1A    -92.201201     2A    -20.555126     3A    -20.533019
       4A    -15.604723     5A    -11.284066     6A    -11.276689
       7A    -11.273570     8A    -11.273344     9A    -11.270592
      10A    -11.264038    11A    -11.263915    12A     -9.166827
      13A     -6.851924    14A     -6.851472    15A     -6.851020
      16A     -1.454197    17A     -1.320454    18A     -1.233437
      19A     -1.185032    20A     -1.063090    21A     -1.046099
      22A     -0.962388    23A     -0.899286    24A     -0.858363
      25A     -0.815747    26A     -0.753374    27A     -0.713855
      28A     -0.677145    29A     -0.672586    30A     -0.656924
      31A     -0.642906    32A     -0.621656    33A     -0.617913
      34A     -0.604123    35A     -0.568594    36A     -0.549849
      37A     -0.535687    38A     -0.525861    39A     -0.503863
      40A     -0.493929    41A     -0.463408    42A     -0.459798
      43A     -0.437114    44A     -0.370966    45A     -0.364810

  @DF-RHF Final Energy:  -872.14857700926154

   => Energetics <=

    Nuclear Repulsion Energy =            743.4280704082957527
    One-Electron Energy =               -2671.9653296033557126
    Two-Electron Energy =                1056.3886821857984160
    Total Energy =                       -872.1485770092615439
  Basis Set: (AUG-CC-PVTZ AUX)
    Blend: AUG-CC-PVTZ-RI
    Molecular point group: c1

    Geometry (in Angstrom), charge = 0, multiplicity = 1:

       Center              X                  Y                   Z               Mass
    ------------   -----------------  -----------------  -----------------  -----------------
         S           -1.234777181886    -0.349864150084    -0.326486231015    31.972071174400
         O           -1.697431481886     0.404340449916    -1.448164231015    15.994914619570
         O           -1.519231481886    -1.835465550084    -0.192727231015    15.994914619570
         N           -1.934655481886     0.287668449916     1.046830768985    14.003074004430
         C            0.505232518114    -0.168448550084    -0.159818231015    12.000000000000
         C            1.257747518114    -1.113667550084     0.543552768985    12.000000000000
         C            1.093060518114     0.983567449916    -0.688960231015    12.000000000000
         C            2.626435518114    -0.900748550084     0.707767768985    12.000000000000
         C            2.463906518114     1.183332449916    -0.515038231015    12.000000000000
         C            3.227600518114     0.249955449916     0.189616768985    12.000000000000
         C           -1.743635481886     1.725066449916     1.250761768985    12.000000000000
         H            0.780720518114    -2.017480550084     0.913323768985     1.007825032230
         H            0.489936518114     1.681511449916    -1.262900231015     1.007825032230
         H           -1.747614481886    -0.292651550084     1.863583768985     1.007825032230
         H            3.225460518114    -1.635089550084     1.240438768985     1.007825032230
         H            2.935441518114     2.069996449916    -0.931352231015     1.007825032230
         H            4.295013518114     0.409669449916     0.319838768985     1.007825032230
         H           -2.376242481886     2.030167449916     2.085988768985     1.007825032230
         H           -2.081695481886     2.241021449916     0.352116768985     1.007825032230
         H           -0.703134481886     2.001756449916     1.462592768985     1.007825032230

  Basis Set: AUG-CC-PVTZ
    Blend: AUG-CC-PVTZ
  Basis Set: (AUG-CC-PVTZ AUX)
    Blend: AUG-CC-PVTZ-JKFIT
	 Reference Energy          =    -872.1485770092615439 [Eh]
	 Singles Energy            =      -0.0000000000000000 [Eh]
	 Same-Spin Energy          =      -0.5648936979917969 [Eh]
	 Opposite-Spin Energy      =      -1.6952263548613726 [Eh]
	 Correlation Energy        =      -2.2601200528531695 [Eh]
	 Total Energy              =    -874.4086970621146975 [Eh]

	 ================> DF-SCS-MP2 Energies <==================
	-----------------------------------------------------------
	 SCS Same-Spin Scale       =       0.3333333333333333 [-]
	 SCS Opposite-Spin Scale   =       1.2000000000000000 [-]
	 SCS Same-Spin Energy      =      -0.1882978993305990 [Eh]
	 SCS Opposite-Spin Energy  =      -2.0342716258336471 [Eh]
	 SCS Correlation Energy    =      -2.2225695251642459 [Eh]
	 SCS Total Energy          =    -874.3711465344257476 [Eh]
	-----------------------------------------------------------

  Dipole Moment: [D]
     X:     3.9651      Y:     2.9595      Z:     3.4811     Total:     6.0497

*** Psi4 exiting successfully. Buy a developer a beer!
