                               Psi4 1.3.2 release

  ==> Input File <==

--------------------------------------------------------------------------
#psi4
#
memory 32 gb

molecule  {
0 1
  S       -1.2780750    -0.4285550    -0.3473560
  O       -1.7200650     0.3779750    -1.4840280
  O       -1.5418650    -1.8618310    -0.2285910
  N       -2.1122824     0.2127946     0.9468796
  C        0.4825990    -0.1948140    -0.1956820
  C        1.2351140    -1.1400330     0.5076890
  C        1.0704270     0.9572020    -0.7248240
  C        2.6038020    -0.9271140     0.6719040
  C        2.4412730     1.1569670    -0.5509020
  C        3.2049670     0.2235900     0.1537530
  C       -1.7662690     1.6987010     1.2148980
  H        0.7580870    -2.0438460     0.8774600
  H        0.4673030     1.6551460    -1.2987640
  H       -1.7702480    -0.3190170     1.8277200
  H        3.2028270    -1.6614550     1.2045750
  H        2.9128080     2.0436310    -0.9672160
  H        4.2723800     0.3833040     0.2839750
  H       -2.3988760     2.0038020     2.0501250
  H       -2.1043290     2.2146560     0.3162530
  H       -0.7257680     1.9753910     1.4267290
units angstrom
no_reorient  #important for SAPT in psi4, default
symmetry c1  #important for SAPT in psi4, default
}

set PROPERTIES_ORIGIN ["COM"]
properties('MP2/aug-cc-pvtz', properties = ['dipole'])
--------------------------------------------------------------------------

    Molecular point group: c1
  Charge       = 0
  Multiplicity = 1
  Basis Set: AUG-CC-PVTZ
    Blend: AUG-CC-PVTZ
  Basis Set: (AUG-CC-PVTZ AUX)
    Blend: AUG-CC-PVTZ-JKFIT

    Orbital Energies [Eh]
    ---------------------

    Doubly Occupied:

       1A    -92.198226     2A    -20.541451     3A    -20.540469
       4A    -15.619532     5A    -11.287233     6A    -11.282256
       7A    -11.274535     8A    -11.274391     9A    -11.271803
      10A    -11.264867    11A    -11.264750    12A     -9.163943
      13A     -6.849047    14A     -6.848539    15A     -6.848150
      16A     -1.448840    17A     -1.332350    18A     -1.214592
      19A     -1.185214    20A     -1.060527    21A     -1.046974
      22A     -0.956789    23A     -0.895204    24A     -0.858918
      25A     -0.808926    26A     -0.747223    27A     -0.707187
      28A     -0.672248    29A     -0.667387    30A     -0.654774
      31A     -0.643147    32A     -0.618886    33A     -0.618352
      34A     -0.589618    35A     -0.557256    36A     -0.550657
      37A     -0.536588    38A     -0.526230    39A     -0.496724
      40A     -0.491417    41A     -0.471732    42A     -0.467337
      43A     -0.446429    44A     -0.373241    45A     -0.365987

  @DF-RHF Final Energy:  -872.13975955236651

   => Energetics <=

    Nuclear Repulsion Energy =            740.8409813947145039
    One-Electron Energy =               -2666.8815862057031154
    Two-Electron Energy =                1053.9008452586219846
    Total Energy =                       -872.1397595523665132
  Basis Set: (AUG-CC-PVTZ AUX)
    Blend: AUG-CC-PVTZ-RI
    Molecular point group: c1

    Geometry (in Angstrom), charge = 0, multiplicity = 1:

       Center              X                  Y                   Z               Mass
    ------------   -----------------  -----------------  -----------------  -----------------
         S           -1.238888975647    -0.388436735567    -0.309048109093    31.972071174400
         O           -1.680878975647     0.418093264433    -1.445720109093    15.994914619570
         O           -1.502678975647    -1.821712735567    -0.190283109093    15.994914619570
         N           -2.073096375647     0.252912864433     0.985187490907    14.003074004430
         C            0.521785024353    -0.154695735567    -0.157374109093    12.000000000000
         C            1.274300024353    -1.099914735567     0.545996890907    12.000000000000
         C            1.109613024353     0.997320264433    -0.686516109093    12.000000000000
         C            2.642988024353    -0.886995735567     0.710211890907    12.000000000000
         C            2.480459024353     1.197085264433    -0.512594109093    12.000000000000
         C            3.244153024353     0.263708264433     0.192060890907    12.000000000000
         C           -1.727082975647     1.738819264433     1.253205890907    12.000000000000
         H            0.797273024353    -2.003727735567     0.915767890907     1.007825032230
         H            0.506489024353     1.695264264433    -1.260456109093     1.007825032230
         H           -1.731061975647    -0.278898735567     1.866027890907     1.007825032230
         H            3.242013024353    -1.621336735567     1.242882890907     1.007825032230
         H            2.951994024353     2.083749264433    -0.928908109093     1.007825032230
         H            4.311566024353     0.423422264433     0.322282890907     1.007825032230
         H           -2.359689975647     2.043920264433     2.088432890907     1.007825032230
         H           -2.065142975647     2.254774264433     0.354560890907     1.007825032230
         H           -0.686581975647     2.015509264433     1.465036890907     1.007825032230

  Basis Set: AUG-CC-PVTZ
    Blend: AUG-CC-PVTZ
  Basis Set: (AUG-CC-PVTZ AUX)
    Blend: AUG-CC-PVTZ-JKFIT
	 Reference Energy          =    -872.1397595523665132 [Eh]
	 Singles Energy            =      -0.0000000000000000 [Eh]
	 Same-Spin Energy          =      -0.5652695177632554 [Eh]
	 Opposite-Spin Energy      =      -1.6977436139088073 [Eh]
	 Correlation Energy        =      -2.2630131316720625 [Eh]
	 Total Energy              =    -874.4027726840386094 [Eh]

	 ================> DF-SCS-MP2 Energies <==================
	-----------------------------------------------------------
	 SCS Same-Spin Scale       =       0.3333333333333333 [-]
	 SCS Opposite-Spin Scale   =       1.2000000000000000 [-]
	 SCS Same-Spin Energy      =      -0.1884231725877518 [Eh]
	 SCS Opposite-Spin Energy  =      -2.0372923366905686 [Eh]
	 SCS Correlation Energy    =      -2.2257155092783205 [Eh]
	 SCS Total Energy          =    -874.3654750616448155 [Eh]
	-----------------------------------------------------------

  Dipole Moment: [D]
     X:     4.2340      Y:     2.6863      Z:     3.6737     Total:     6.2161

*** Psi4 exiting successfully. Buy a developer a beer!
