                               Psi4 1.4a3.dev225

  ==> Input File <==

--------------------------------------------------------------------------
#psi4
#
memory 32 gb

molecule  {
0 1
  S       -1.2780750    -0.4285550    -0.3473560
  O       -1.7200650     0.3779750    -1.4840280
  O       -1.5418650    -1.8618310    -0.2285910
  N       -1.9776489     0.2819820     1.0516837
  C        0.4825990    -0.1948140    -0.1956820
  C        1.2351140    -1.1400330     0.5076890
  C        1.0704270     0.9572020    -0.7248240
  C        2.6038020    -0.9271140     0.6719040
  C        2.4412730     1.1569670    -0.5509020
  C        3.2049670     0.2235900     0.1537530
  C       -1.7662690     1.6987010     1.2148980
  H        0.7580870    -2.0438460     0.8774600
  H        0.4673030     1.6551460    -1.2987640
  H       -1.7702480    -0.3190170     1.8277200
  H        3.2028270    -1.6614550     1.2045750
  H        2.9128080     2.0436310    -0.9672160
  H        4.2723800     0.3833040     0.2839750
  H       -2.3988760     2.0038020     2.0501250
  H       -2.1043290     2.2146560     0.3162530
  H       -0.7257680     1.9753910     1.4267290
units angstrom
no_reorient  #important for SAPT in psi4, default
symmetry c1  #important for SAPT in psi4, default
}

set PROPERTIES_ORIGIN ["COM"]
properties('MP2/aug-cc-pvtz', properties = ['dipole'])
--------------------------------------------------------------------------

    Molecular point group: c1
  Charge       = 0
  Multiplicity = 1
  Basis Set: AUG-CC-PVTZ
    Blend: AUG-CC-PVTZ
  Basis Set: (AUG-CC-PVTZ AUX)
    Blend: AUG-CC-PVTZ-JKFIT

    Orbital Energies [Eh]
    ---------------------

    Doubly Occupied:

       1A    -92.204117     2A    -20.549923     3A    -20.549655
       4A    -15.603143     5A    -11.284499     6A    -11.272225
       7A    -11.272089     8A    -11.271941     9A    -11.269144
      10A    -11.263122    11A    -11.262964    12A     -9.168906
      13A     -6.853896    14A     -6.853492    15A     -6.853253
      16A     -1.451057    17A     -1.338418    18A     -1.232608
      19A     -1.183253    20A     -1.059365    21A     -1.044929
      22A     -0.958162    23A     -0.895580    24A     -0.856987
      25A     -0.813903    26A     -0.748009    27A     -0.711787
      28A     -0.677581    29A     -0.673463    30A     -0.658121
      31A     -0.642336    32A     -0.623284    33A     -0.617069
      34A     -0.608640    35A     -0.568008    36A     -0.549050
      37A     -0.533608    38A     -0.524483    39A     -0.501426
      40A     -0.499308    41A     -0.476055    42A     -0.465026
      43A     -0.430769    44A     -0.369710    45A     -0.363906

  @DF-RHF Final Energy:  -872.15205357345246

   => Energetics <=

    Nuclear Repulsion Energy =            741.3958198469252920
    One-Electron Energy =               -2667.8792070401514138
    Two-Electron Energy =                1054.3313336197736589
    Total Energy =                       -872.1520535734523492
  Basis Set: (AUG-CC-PVTZ AUX)
    Blend: AUG-CC-PVTZ-RI
    Molecular point group: c1

    Geometry (in Angstrom), charge = 0, multiplicity = 1:

       Center              X                  Y                   Z               Mass
    ------------   -----------------  -----------------  -----------------  -----------------
         S           -1.249911739748    -0.394101272172    -0.317628669438    31.972071174400
         O           -1.691901739748     0.412428727828    -1.454300669438    15.994914619570
         O           -1.513701739748    -1.827377272172    -0.198863669438    15.994914619570
         N           -1.949485639748     0.316435727828     1.081411030562    14.003074004430
         C            0.510762260252    -0.160360272172    -0.165954669438    12.000000000000
         C            1.263277260252    -1.105579272172     0.537416330562    12.000000000000
         C            1.098590260252     0.991655727828    -0.695096669438    12.000000000000
         C            2.631965260252    -0.892660272172     0.701631330562    12.000000000000
         C            2.469436260252     1.191420727828    -0.521174669438    12.000000000000
         C            3.233130260252     0.258043727828     0.183480330562    12.000000000000
         C           -1.738105739748     1.733154727828     1.244625330562    12.000000000000
         H            0.786250260252    -2.009392272172     0.907187330562     1.007825032230
         H            0.495466260252     1.689599727828    -1.269036669438     1.007825032230
         H           -1.742084739748    -0.284563272172     1.857447330562     1.007825032230
         H            3.230990260252    -1.627001272172     1.234302330562     1.007825032230
         H            2.940971260252     2.078084727828    -0.937488669438     1.007825032230
         H            4.300543260252     0.417757727828     0.313702330562     1.007825032230
         H           -2.370712739748     2.038255727828     2.079852330562     1.007825032230
         H           -2.076165739748     2.249109727828     0.345980330562     1.007825032230
         H           -0.697604739748     2.009844727828     1.456456330562     1.007825032230

  Basis Set: AUG-CC-PVTZ
    Blend: AUG-CC-PVTZ
  Basis Set: (AUG-CC-PVTZ AUX)
    Blend: AUG-CC-PVTZ-JKFIT
	 Reference Energy          =    -872.1520535734524628 [Eh]
	 Singles Energy            =      -0.0000000000000000 [Eh]
	 Same-Spin Energy          =      -0.5648245669364806 [Eh]
	 Opposite-Spin Energy      =      -1.6954536519723260 [Eh]
	 Correlation Energy        =      -2.2602782189088066 [Eh]
	 Total Energy              =    -874.4123317923612149 [Eh]

	 ================> DF-SCS-MP2 Energies <==================
	-----------------------------------------------------------
	 SCS Same-Spin Scale       =       0.3333333333333333 [-]
	 SCS Opposite-Spin Scale   =       1.2000000000000000 [-]
	 SCS Same-Spin Energy      =      -0.1882748556454935 [Eh]
	 SCS Opposite-Spin Energy  =      -2.0345443823667910 [Eh]
	 SCS Correlation Energy    =      -2.2228192380122844 [Eh]
	 SCS Total Energy          =    -874.3748728114647975 [Eh]
	-----------------------------------------------------------

  Dipole Moment: [D]
     X:     3.8748      Y:     2.3966      Z:     3.4019     Total:     5.6860

*** Psi4 exiting successfully. Buy a developer a beer!
