                               Psi4 1.3.2 release

  ==> Input File <==

--------------------------------------------------------------------------
#psi4
#
memory 32 gb

molecule  {
0 1
  S       -1.2780750    -0.4285550    -0.3473560
  O       -1.7409528     0.3361278    -1.5044530
  O       -1.5418650    -1.8618310    -0.2285910
  N       -1.9572890     0.2613030     1.0109670
  C        0.4825990    -0.1948140    -0.1956820
  C        1.2351140    -1.1400330     0.5076890
  C        1.0704270     0.9572020    -0.7248240
  C        2.6038020    -0.9271140     0.6719040
  C        2.4412730     1.1569670    -0.5509020
  C        3.2049670     0.2235900     0.1537530
  C       -1.7662690     1.6987010     1.2148980
  H        0.7580870    -2.0438460     0.8774600
  H        0.4673030     1.6551460    -1.2987640
  H       -1.7702480    -0.3190170     1.8277200
  H        3.2028270    -1.6614550     1.2045750
  H        2.9128080     2.0436310    -0.9672160
  H        4.2723800     0.3833040     0.2839750
  H       -2.3988760     2.0038020     2.0501250
  H       -2.1043290     2.2146560     0.3162530
  H       -0.7257680     1.9753910     1.4267290
units angstrom
no_reorient  #important for SAPT in psi4, default
symmetry c1  #important for SAPT in psi4, default
}

set PROPERTIES_ORIGIN ["COM"]
properties('MP2/aug-cc-pvtz', properties = ['dipole'])
--------------------------------------------------------------------------

    Molecular point group: c1
  Charge       = 0
  Multiplicity = 1
  Basis Set: AUG-CC-PVTZ
    Blend: AUG-CC-PVTZ
  Basis Set: (AUG-CC-PVTZ AUX)
    Blend: AUG-CC-PVTZ-JKFIT

    Orbital Energies [Eh]
    ---------------------

    Doubly Occupied:

       1A    -92.202384     2A    -20.546927     3A    -20.544096
       4A    -15.605388     5A    -11.283783     6A    -11.277472
       7A    -11.271506     8A    -11.271345     9A    -11.268501
      10A    -11.262838    11A    -11.262702    12A     -9.167357
      13A     -6.852507    14A     -6.851946    15A     -6.851776
      16A     -1.451240    17A     -1.333814    18A     -1.235673
      19A     -1.182758    20A     -1.058851    21A     -1.044518
      22A     -0.963886    23A     -0.894653    24A     -0.856595
      25A     -0.814340    26A     -0.750178    27A     -0.712130
      28A     -0.677613    29A     -0.672500    30A     -0.656317
      31A     -0.642251    32A     -0.620650    33A     -0.616542
      34A     -0.607632    35A     -0.568165    36A     -0.548858
      37A     -0.534055    38A     -0.524060    39A     -0.502874
      40A     -0.495528    41A     -0.471199    42A     -0.466952
      43A     -0.436152    44A     -0.368921    45A     -0.363629

  @DF-RHF Final Energy:  -872.15570123966256

   => Energetics <=

    Nuclear Repulsion Energy =            742.3909469499109264
    One-Electron Energy =               -2669.9071682954240714
    Two-Electron Energy =                1055.3605201058508101
    Total Energy =                       -872.1557012396624486
  Basis Set: (AUG-CC-PVTZ AUX)
    Blend: AUG-CC-PVTZ-RI
    Molecular point group: c1

    Geometry (in Angstrom), charge = 0, multiplicity = 1:

       Center              X                  Y                   Z               Mass
    ------------   -----------------  -----------------  -----------------  -----------------
         S           -1.249625264602    -0.388494760537    -0.312384988329    31.972071174400
         O           -1.712503064602     0.376188039463    -1.469481988329    15.994914619570
         O           -1.513415264602    -1.821770760537    -0.193619988329    15.994914619570
         N           -1.928839264602     0.301363239463     1.045938011671    14.003074004430
         C            0.511048735398    -0.154753760537    -0.160710988329    12.000000000000
         C            1.263563735398    -1.099972760537     0.542660011671    12.000000000000
         C            1.098876735398     0.997262239463    -0.689852988329    12.000000000000
         C            2.632251735398    -0.887053760537     0.706875011671    12.000000000000
         C            2.469722735398     1.197027239463    -0.515930988329    12.000000000000
         C            3.233416735398     0.263650239463     0.188724011671    12.000000000000
         C           -1.737819264602     1.738761239463     1.249869011671    12.000000000000
         H            0.786536735398    -2.003785760537     0.912431011671     1.007825032230
         H            0.495752735398     1.695206239463    -1.263792988329     1.007825032230
         H           -1.741798264602    -0.278956760537     1.862691011671     1.007825032230
         H            3.231276735398    -1.621394760537     1.239546011671     1.007825032230
         H            2.941257735398     2.083691239463    -0.932244988329     1.007825032230
         H            4.300829735398     0.423364239463     0.318946011671     1.007825032230
         H           -2.370426264602     2.043862239463     2.085096011671     1.007825032230
         H           -2.075879264602     2.254716239463     0.351224011671     1.007825032230
         H           -0.697318264602     2.015451239463     1.461700011671     1.007825032230

  Basis Set: AUG-CC-PVTZ
    Blend: AUG-CC-PVTZ
  Basis Set: (AUG-CC-PVTZ AUX)
    Blend: AUG-CC-PVTZ-JKFIT
	 Reference Energy          =    -872.1557012396625623 [Eh]
	 Singles Energy            =      -0.0000000000000000 [Eh]
	 Same-Spin Energy          =      -0.5643733142740681 [Eh]
	 Opposite-Spin Energy      =      -1.6942922189488749 [Eh]
	 Correlation Energy        =      -2.2586655332229428 [Eh]
	 Total Energy              =    -874.4143667728855007 [Eh]

	 ================> DF-SCS-MP2 Energies <==================
	-----------------------------------------------------------
	 SCS Same-Spin Scale       =       0.3333333333333333 [-]
	 SCS Opposite-Spin Scale   =       1.2000000000000000 [-]
	 SCS Same-Spin Energy      =      -0.1881244380913560 [Eh]
	 SCS Opposite-Spin Energy  =      -2.0331506627386497 [Eh]
	 SCS Correlation Energy    =      -2.2212751008300060 [Eh]
	 SCS Total Energy          =    -874.3769763404925470 [Eh]
	-----------------------------------------------------------

  Dipole Moment: [D]
     X:     3.7822      Y:     2.6159      Z:     3.6423     Total:     5.8663

*** Psi4 exiting successfully. Buy a developer a beer!
