                               Psi4 1.3.2 release

  ==> Input File <==

--------------------------------------------------------------------------
#psi4
#
memory 32 gb

molecule  {
0 1
  S       -1.2780750    -0.4285550    -0.3473560
  O       -1.7200650     0.3779750    -1.4840280
  O       -1.5418650    -1.8618310    -0.2285910
  N       -1.9572890     0.2613030     1.0109670
  C        0.4825990    -0.1948140    -0.1956820
  C        1.2351140    -1.1400330     0.5076890
  C        1.0704270     0.9572020    -0.7248240
  C        2.6038020    -0.9271140     0.6719040
  C        2.4412730     1.1569670    -0.5509020
  C        3.2049670     0.2235900     0.1537530
  C       -1.7793141     1.6005385     1.2009712
  H        0.7580870    -2.0438460     0.8774600
  H        0.4673030     1.6551460    -1.2987640
  H       -1.7702480    -0.3190170     1.8277200
  H        3.2028270    -1.6614550     1.2045750
  H        2.9128080     2.0436310    -0.9672160
  H        4.2723800     0.3833040     0.2839750
  H       -2.3988760     2.0038020     2.0501250
  H       -2.1043290     2.2146560     0.3162530
  H       -0.7257680     1.9753910     1.4267290
units angstrom
no_reorient  #important for SAPT in psi4, default
symmetry c1  #important for SAPT in psi4, default
}

set PROPERTIES_ORIGIN ["COM"]
properties('MP2/aug-cc-pvtz', properties = ['dipole'])
--------------------------------------------------------------------------

    Molecular point group: c1
  Charge       = 0
  Multiplicity = 1
  Basis Set: AUG-CC-PVTZ
    Blend: AUG-CC-PVTZ
  Basis Set: (AUG-CC-PVTZ AUX)
    Blend: AUG-CC-PVTZ-JKFIT

    Orbital Energies [Eh]
    ---------------------

    Doubly Occupied:

       1A    -92.205776     2A    -20.549867     3A    -20.549635
       4A    -15.606532     5A    -11.283766     6A    -11.276850
       7A    -11.271843     8A    -11.271465     9A    -11.268753
      10A    -11.262682    11A    -11.262402    12A     -9.170820
      13A     -6.856029    14A     -6.855380    15A     -6.855169
      16A     -1.455799    17A     -1.339297    18A     -1.262614
      19A     -1.183073    20A     -1.059609    21A     -1.044479
      22A     -0.959928    23A     -0.892175    24A     -0.856590
      25A     -0.817261    26A     -0.754648    27A     -0.716519
      28A     -0.693810    29A     -0.678027    30A     -0.659650
      31A     -0.643152    32A     -0.622317    33A     -0.616643
      34A     -0.609014    35A     -0.549067    36A     -0.548349
      37A     -0.531252    38A     -0.524049    39A     -0.504610
      40A     -0.500812    41A     -0.476225    42A     -0.465797
      43A     -0.426914    44A     -0.369700    45A     -0.363273

  @DF-RHF Final Energy:  -872.14464118982710

   => Energetics <=

    Nuclear Repulsion Energy =            744.8622247572955075
    One-Electron Energy =               -2674.6704874634519911
    Two-Electron Energy =                1057.6636215163293855
    Total Energy =                       -872.1446411898270981
  Basis Set: (AUG-CC-PVTZ AUX)
    Blend: AUG-CC-PVTZ-RI
    Molecular point group: c1

    Geometry (in Angstrom), charge = 0, multiplicity = 1:

       Center              X                  Y                   Z               Mass
    ------------   -----------------  -----------------  -----------------  -----------------
         S           -1.250663396930    -0.385521062637    -0.313317979577    31.972071174400
         O           -1.692653396930     0.421008937363    -1.449989979577    15.994914619570
         O           -1.514453396930    -1.818797062637    -0.194552979577    15.994914619570
         N           -1.929877396930     0.304336937363     1.045005020423    14.003074004430
         C            0.510010603070    -0.151780062637    -0.161643979577    12.000000000000
         C            1.262525603070    -1.096999062637     0.541727020423    12.000000000000
         C            1.097838603070     1.000235937363    -0.690785979577    12.000000000000
         C            2.631213603070    -0.884080062637     0.705942020423    12.000000000000
         C            2.468684603070     1.200000937363    -0.516863979577    12.000000000000
         C            3.232378603070     0.266623937363     0.187791020423    12.000000000000
         C           -1.751902496930     1.643572437363     1.235009220423    12.000000000000
         H            0.785498603070    -2.000812062637     0.911498020423     1.007825032230
         H            0.494714603070     1.698179937363    -1.264725979577     1.007825032230
         H           -1.742836396930    -0.275983062637     1.861758020423     1.007825032230
         H            3.230238603070    -1.618421062637     1.238613020423     1.007825032230
         H            2.940219603070     2.086664937363    -0.933177979577     1.007825032230
         H            4.299791603070     0.426337937363     0.318013020423     1.007825032230
         H           -2.371464396930     2.046835937363     2.084163020423     1.007825032230
         H           -2.076917396930     2.257689937363     0.350291020423     1.007825032230
         H           -0.698356396930     2.018424937363     1.460767020423     1.007825032230

  Basis Set: AUG-CC-PVTZ
    Blend: AUG-CC-PVTZ
  Basis Set: (AUG-CC-PVTZ AUX)
    Blend: AUG-CC-PVTZ-JKFIT
	 Reference Energy          =    -872.1446411898270981 [Eh]
	 Singles Energy            =      -0.0000000000000000 [Eh]
	 Same-Spin Energy          =      -0.5655577181002884 [Eh]
	 Opposite-Spin Energy      =      -1.6952300638240194 [Eh]
	 Correlation Energy        =      -2.2607877819243081 [Eh]
	 Total Energy              =    -874.4054289717514621 [Eh]

	 ================> DF-SCS-MP2 Energies <==================
	-----------------------------------------------------------
	 SCS Same-Spin Scale       =       0.3333333333333333 [-]
	 SCS Opposite-Spin Scale   =       1.2000000000000000 [-]
	 SCS Same-Spin Energy      =      -0.1885192393667628 [Eh]
	 SCS Opposite-Spin Energy  =      -2.0342760765888230 [Eh]
	 SCS Correlation Energy    =      -2.2227953159555858 [Eh]
	 SCS Total Energy          =    -874.3674365057827345 [Eh]
	-----------------------------------------------------------

  Dipole Moment: [D]
     X:     3.7220      Y:     2.2787      Z:     3.4793     Total:     5.5813

*** Psi4 exiting successfully. Buy a developer a beer!
