                               Psi4 1.3.2 release

  ==> Input File <==

--------------------------------------------------------------------------
#psi4
#
memory 32 gb

molecule  {
0 1
  S       -1.2780750    -0.4285550    -0.3473560
  O       -1.7094176     0.3985332    -1.4732946
  O       -1.5418650    -1.8618310    -0.2285910
  N       -1.9572890     0.2613030     1.0109670
  C        0.4825990    -0.1948140    -0.1956820
  C        1.2351140    -1.1400330     0.5076890
  C        1.0704270     0.9572020    -0.7248240
  C        2.6038020    -0.9271140     0.6719040
  C        2.4412730     1.1569670    -0.5509020
  C        3.2049670     0.2235900     0.1537530
  C       -1.7662690     1.6987010     1.2148980
  H        0.7580870    -2.0438460     0.8774600
  H        0.4673030     1.6551460    -1.2987640
  H       -1.7702480    -0.3190170     1.8277200
  H        3.2028270    -1.6614550     1.2045750
  H        2.9128080     2.0436310    -0.9672160
  H        4.2723800     0.3833040     0.2839750
  H       -2.3988760     2.0038020     2.0501250
  H       -2.1043290     2.2146560     0.3162530
  H       -0.7257680     1.9753910     1.4267290
units angstrom
no_reorient  #important for SAPT in psi4, default
symmetry c1  #important for SAPT in psi4, default
}

set PROPERTIES_ORIGIN ["COM"]
properties('MP2/aug-cc-pvtz', properties = ['dipole'])
--------------------------------------------------------------------------

    Molecular point group: c1
  Charge       = 0
  Multiplicity = 1
  Basis Set: AUG-CC-PVTZ
    Blend: AUG-CC-PVTZ
  Basis Set: (AUG-CC-PVTZ AUX)
    Blend: AUG-CC-PVTZ-JKFIT

    Orbital Energies [Eh]
    ---------------------

    Doubly Occupied:

       1A    -92.203327     2A    -20.548912     3A    -20.547435
       4A    -15.603948     5A    -11.282068     6A    -11.275864
       7A    -11.270291     8A    -11.270052     9A    -11.267590
      10A    -11.261848    11A    -11.261679    12A     -9.168169
      13A     -6.853348    14A     -6.852802    15A     -6.852561
      16A     -1.452616    17A     -1.338401    18A     -1.233684
      19A     -1.181611    20A     -1.057530    21A     -1.043445
      22A     -0.962676    23A     -0.893317    24A     -0.855489
      25A     -0.813505    26A     -0.750003    27A     -0.712524
      28A     -0.677614    29A     -0.672234    30A     -0.655412
      31A     -0.641482    32A     -0.621643    33A     -0.615713
      34A     -0.607408    35A     -0.566239    36A     -0.547828
      37A     -0.532894    38A     -0.523017    39A     -0.503476
      40A     -0.499133    41A     -0.475138    42A     -0.466252
      43A     -0.434958    44A     -0.367856    45A     -0.362635

  @DF-RHF Final Energy:  -872.15512649370316

   => Energetics <=

    Nuclear Repulsion Energy =            743.0158989771787219
    One-Electron Energy =               -2671.1708013542729532
    Two-Electron Energy =                1055.9997758833910666
    Total Energy =                       -872.1551264937031647
  Basis Set: (AUG-CC-PVTZ AUX)
    Blend: AUG-CC-PVTZ-RI
    Molecular point group: c1

    Geometry (in Angstrom), charge = 0, multiplicity = 1:

       Center              X                  Y                   Z               Mass
    ------------   -----------------  -----------------  -----------------  -----------------
         S           -1.252574378250    -0.394330798261    -0.315298864337    31.972071174400
         O           -1.683916978250     0.432757401739    -1.441237464337    15.994914619570
         O           -1.516364378250    -1.827606798261    -0.196533864337    15.994914619570
         N           -1.931788378250     0.295527201739     1.043024135663    14.003074004430
         C            0.508099621750    -0.160589798261    -0.163624864337    12.000000000000
         C            1.260614621750    -1.105808798261     0.539746135663    12.000000000000
         C            1.095927621750     0.991426201739    -0.692766864337    12.000000000000
         C            2.629302621750    -0.892889798261     0.703961135663    12.000000000000
         C            2.466773621750     1.191191201739    -0.518844864337    12.000000000000
         C            3.230467621750     0.257814201739     0.185810135663    12.000000000000
         C           -1.740768378250     1.732925201739     1.246955135663    12.000000000000
         H            0.783587621750    -2.009621798261     0.909517135663     1.007825032230
         H            0.492803621750     1.689370201739    -1.266706864337     1.007825032230
         H           -1.744747378250    -0.284792798261     1.859777135663     1.007825032230
         H            3.228327621750    -1.627230798261     1.236632135663     1.007825032230
         H            2.938308621750     2.077855201739    -0.935158864337     1.007825032230
         H            4.297880621750     0.417528201739     0.316032135663     1.007825032230
         H           -2.373375378250     2.038026201739     2.082182135663     1.007825032230
         H           -2.078828378250     2.248880201739     0.348310135663     1.007825032230
         H           -0.700267378250     2.009615201739     1.458786135663     1.007825032230

  Basis Set: AUG-CC-PVTZ
    Blend: AUG-CC-PVTZ
  Basis Set: (AUG-CC-PVTZ AUX)
    Blend: AUG-CC-PVTZ-JKFIT
	 Reference Energy          =    -872.1551264937031647 [Eh]
	 Singles Energy            =      -0.0000000000000000 [Eh]
	 Same-Spin Energy          =      -0.5646613515494499 [Eh]
	 Opposite-Spin Energy      =      -1.6947375141615790 [Eh]
	 Correlation Energy        =      -2.2593988657110291 [Eh]
	 Total Energy              =    -874.4145253594141423 [Eh]

	 ================> DF-SCS-MP2 Energies <==================
	-----------------------------------------------------------
	 SCS Same-Spin Scale       =       0.3333333333333333 [-]
	 SCS Opposite-Spin Scale   =       1.2000000000000000 [-]
	 SCS Same-Spin Energy      =      -0.1882204505164833 [Eh]
	 SCS Opposite-Spin Energy  =      -2.0336850169938949 [Eh]
	 SCS Correlation Energy    =      -2.2219054675103784 [Eh]
	 SCS Total Energy          =    -874.3770319612135609 [Eh]
	-----------------------------------------------------------

  Dipole Moment: [D]
     X:     3.6721      Y:     2.4608      Z:     3.5556     Total:     5.6729

*** Psi4 exiting successfully. Buy a developer a beer!
