                               Psi4 1.4a3.dev225

  ==> Input File <==

--------------------------------------------------------------------------
#psi4
#
memory 32 gb

molecule  {
0 1
  S       -1.2780750    -0.4285550    -0.3473560
  O       -1.7200650     0.3779750    -1.4840280
  O       -1.5418650    -1.8618310    -0.2285910
  N       -1.9572890     0.2613030     1.0109670
  C        0.4825990    -0.1948140    -0.1956820
  C        1.2351140    -1.1400330     0.5076890
  C        1.0704270     0.9572020    -0.7248240
  C        2.6038020    -0.9271140     0.6719040
  C        2.4412730     1.1569670    -0.5509020
  C        3.2049670     0.2235900     0.1537530
  C       -1.7597465     1.7477822     1.2218614
  H        0.7580870    -2.0438460     0.8774600
  H        0.4673030     1.6551460    -1.2987640
  H       -1.7702480    -0.3190170     1.8277200
  H        3.2028270    -1.6614550     1.2045750
  H        2.9128080     2.0436310    -0.9672160
  H        4.2723800     0.3833040     0.2839750
  H       -2.3988760     2.0038020     2.0501250
  H       -2.1043290     2.2146560     0.3162530
  H       -0.7257680     1.9753910     1.4267290
units angstrom
no_reorient  #important for SAPT in psi4, default
symmetry c1  #important for SAPT in psi4, default
}

set PROPERTIES_ORIGIN ["COM"]
properties('MP2/aug-cc-pvtz', properties = ['dipole'])
--------------------------------------------------------------------------

    Molecular point group: c1
  Charge       = 0
  Multiplicity = 1
  Basis Set: AUG-CC-PVTZ
    Blend: AUG-CC-PVTZ
  Basis Set: (AUG-CC-PVTZ AUX)
    Blend: AUG-CC-PVTZ-JKFIT

    Orbital Energies [Eh]
    ---------------------

    Doubly Occupied:

       1A    -92.201621     2A    -20.546168     3A    -20.546043
       4A    -15.602890     5A    -11.282095     6A    -11.277556
       7A    -11.270114     8A    -11.270036     9A    -11.267473
      10A    -11.261934    11A    -11.261795    12A     -9.166447
      13A     -6.851597    14A     -6.851087    15A     -6.850872
      16A     -1.450513    17A     -1.335724    18A     -1.222924
      19A     -1.181387    20A     -1.057202    21A     -1.043462
      22A     -0.965779    23A     -0.894060    24A     -0.855489
      25A     -0.812221    26A     -0.748115    27A     -0.710621
      28A     -0.675419    29A     -0.667564    30A     -0.652856
      31A     -0.640787    32A     -0.623616    33A     -0.615662
      34A     -0.605165    35A     -0.575398    36A     -0.547953
      37A     -0.533714    38A     -0.523007    39A     -0.501979
      40A     -0.496211    41A     -0.472572    42A     -0.465967
      43A     -0.437193    44A     -0.367449    45A     -0.362759

  @DF-RHF Final Energy:  -872.15355639053917

   => Energetics <=

    Nuclear Repulsion Energy =            741.8203696650022039
    One-Electron Energy =               -2668.8468662922409749
    Two-Electron Energy =                1054.8729402366996055
    Total Energy =                       -872.1535563905392792
  Basis Set: (AUG-CC-PVTZ AUX)
    Blend: AUG-CC-PVTZ-RI
    Molecular point group: c1

    Geometry (in Angstrom), charge = 0, multiplicity = 1:

       Center              X                  Y                   Z               Mass
    ------------   -----------------  -----------------  -----------------  -----------------
         S           -1.252036277634    -0.395851815236    -0.314783655107    31.972071174400
         O           -1.694026277634     0.410678184764    -1.451455655107    15.994914619570
         O           -1.515826277634    -1.829127815236    -0.196018655107    15.994914619570
         N           -1.931250277634     0.294006184764     1.043539344893    14.003074004430
         C            0.508637722366    -0.162110815236    -0.163109655107    12.000000000000
         C            1.261152722366    -1.107329815236     0.540261344893    12.000000000000
         C            1.096465722366     0.989905184764    -0.692251655107    12.000000000000
         C            2.629840722366    -0.894410815236     0.704476344893    12.000000000000
         C            2.467311722366     1.189670184764    -0.518329655107    12.000000000000
         C            3.231005722366     0.256293184764     0.186325344893    12.000000000000
         C           -1.733707777634     1.780485384764     1.254433744893    12.000000000000
         H            0.784125722366    -2.011142815236     0.910032344893     1.007825032230
         H            0.493341722366     1.687849184764    -1.266191655107     1.007825032230
         H           -1.744209277634    -0.286313815236     1.860292344893     1.007825032230
         H            3.228865722366    -1.628751815236     1.237147344893     1.007825032230
         H            2.938846722366     2.076334184764    -0.934643655107     1.007825032230
         H            4.298418722366     0.416007184764     0.316547344893     1.007825032230
         H           -2.372837277634     2.036505184764     2.082697344893     1.007825032230
         H           -2.078290277634     2.247359184764     0.348825344893     1.007825032230
         H           -0.699729277634     2.008094184764     1.459301344893     1.007825032230

  Basis Set: AUG-CC-PVTZ
    Blend: AUG-CC-PVTZ
  Basis Set: (AUG-CC-PVTZ AUX)
    Blend: AUG-CC-PVTZ-JKFIT
	 Reference Energy          =    -872.1535563905391655 [Eh]
	 Singles Energy            =      -0.0000000000000000 [Eh]
	 Same-Spin Energy          =      -0.5643148758087785 [Eh]
	 Opposite-Spin Energy      =      -1.6946704657572202 [Eh]
	 Correlation Energy        =      -2.2589853415659986 [Eh]
	 Total Energy              =    -874.4125417321051827 [Eh]

	 ================> DF-SCS-MP2 Energies <==================
	-----------------------------------------------------------
	 SCS Same-Spin Scale       =       0.3333333333333333 [-]
	 SCS Opposite-Spin Scale   =       1.2000000000000000 [-]
	 SCS Same-Spin Energy      =      -0.1881049586029261 [Eh]
	 SCS Opposite-Spin Energy  =      -2.0336045589086642 [Eh]
	 SCS Correlation Energy    =      -2.2217095175115902 [Eh]
	 SCS Total Energy          =    -874.3752659080507783 [Eh]
	-----------------------------------------------------------

  Dipole Moment: [D]
     X:     3.6995      Y:     2.6188      Z:     3.6325     Total:     5.8085

*** Psi4 exiting successfully. Buy a developer a beer!
