                               Psi4 1.4a3.dev225

  ==> Input File <==

--------------------------------------------------------------------------
#psi4
#
memory 32 gb

molecule  {
0 1
  S       -1.2780750    -0.4285550    -0.3473560
  O       -1.7200650     0.3779750    -1.4840280
  O       -1.5418650    -1.8618310    -0.2285910
  N       -1.9572890     0.2613030     1.0109670
  C        0.4825990    -0.1948140    -0.1956820
  C        1.2351140    -1.1400330     0.5076890
  C        1.0704270     0.9572020    -0.7248240
  C        2.6038020    -0.9271140     0.6719040
  C        2.4412730     1.1569670    -0.5509020
  C        3.2049670     0.2235900     0.1537530
  C       -1.7727915     1.6496198     1.2079346
  H        0.7580870    -2.0438460     0.8774600
  H        0.4673030     1.6551460    -1.2987640
  H       -1.7702480    -0.3190170     1.8277200
  H        3.2028270    -1.6614550     1.2045750
  H        2.9128080     2.0436310    -0.9672160
  H        4.2723800     0.3833040     0.2839750
  H       -2.3988760     2.0038020     2.0501250
  H       -2.1043290     2.2146560     0.3162530
  H       -0.7257680     1.9753910     1.4267290
units angstrom
no_reorient  #important for SAPT in psi4, default
symmetry c1  #important for SAPT in psi4, default
}

set PROPERTIES_ORIGIN ["COM"]
properties('MP2/aug-cc-pvtz', properties = ['dipole'])
--------------------------------------------------------------------------

    Molecular point group: c1
  Charge       = 0
  Multiplicity = 1
  Basis Set: AUG-CC-PVTZ
    Blend: AUG-CC-PVTZ
  Basis Set: (AUG-CC-PVTZ AUX)
    Blend: AUG-CC-PVTZ-JKFIT

    Orbital Energies [Eh]
    ---------------------

    Doubly Occupied:

       1A    -92.204395     2A    -20.548590     3A    -20.548431
       4A    -15.605626     5A    -11.283193     6A    -11.276193
       7A    -11.271239     8A    -11.270993     9A    -11.268320
      10A    -11.262429    11A    -11.262224    12A     -9.169349
      13A     -6.854538    14A     -6.853941    15A     -6.853728
      16A     -1.453887    17A     -1.338080    18A     -1.247514
      19A     -1.182550    20A     -1.058772    21A     -1.044143
      22A     -0.961069    23A     -0.893138    24A     -0.856224
      25A     -0.815451    26A     -0.752213    27A     -0.714313
      28A     -0.683893    29A     -0.676035    30A     -0.658027
      31A     -0.642473    32A     -0.621054    33A     -0.616327
      34A     -0.608535    35A     -0.557492    36A     -0.548363
      37A     -0.532531    38A     -0.523715    39A     -0.504291
      40A     -0.499473    41A     -0.475085    42A     -0.466418
      43A     -0.432054    44A     -0.368960    45A     -0.363143

  @DF-RHF Final Energy:  -872.15284378944739

   => Energetics <=

    Nuclear Repulsion Energy =            743.8129797896499440
    One-Electron Energy =               -2672.6748206196630235
    Two-Electron Energy =                1056.7089970405656913
    Total Energy =                       -872.1528437894473882
  Basis Set: (AUG-CC-PVTZ AUX)
    Blend: AUG-CC-PVTZ-RI
    Molecular point group: c1

    Geometry (in Angstrom), charge = 0, multiplicity = 1:

       Center              X                  Y                   Z               Mass
    ------------   -----------------  -----------------  -----------------  -----------------
         S           -1.251121028508    -0.388964651514    -0.313806538087    31.972071174400
         O           -1.693111028508     0.417565348486    -1.450478538087    15.994914619570
         O           -1.514911028508    -1.822240651514    -0.195041538087    15.994914619570
         N           -1.930335028508     0.300893348486     1.044516461913    14.003074004430
         C            0.509552971492    -0.155223651514    -0.162132538087    12.000000000000
         C            1.262067971492    -1.100442651514     0.541238461913    12.000000000000
         C            1.097380971492     0.996792348486    -0.691274538087    12.000000000000
         C            2.630755971492    -0.887523651514     0.705453461913    12.000000000000
         C            2.468226971492     1.196557348486    -0.517352538087    12.000000000000
         C            3.231920971492     0.263180348486     0.187302461913    12.000000000000
         C           -1.745837528508     1.689210148486     1.241484061913    12.000000000000
         H            0.785040971492    -2.004255651514     0.911009461913     1.007825032230
         H            0.494256971492     1.694736348486    -1.265214538087     1.007825032230
         H           -1.743294028508    -0.279426651514     1.861269461913     1.007825032230
         H            3.229780971492    -1.621864651514     1.238124461913     1.007825032230
         H            2.939761971492     2.083221348486    -0.933666538087     1.007825032230
         H            4.299333971492     0.422894348486     0.317524461913     1.007825032230
         H           -2.371922028508     2.043392348486     2.083674461913     1.007825032230
         H           -2.077375028508     2.254246348486     0.349802461913     1.007825032230
         H           -0.698814028508     2.014981348486     1.460278461913     1.007825032230

  Basis Set: AUG-CC-PVTZ
    Blend: AUG-CC-PVTZ
  Basis Set: (AUG-CC-PVTZ AUX)
    Blend: AUG-CC-PVTZ-JKFIT
	 Reference Energy          =    -872.1528437894473882 [Eh]
	 Singles Energy            =      -0.0000000000000000 [Eh]
	 Same-Spin Energy          =      -0.5649648209323400 [Eh]
	 Opposite-Spin Energy      =      -1.6947485845901771 [Eh]
	 Correlation Energy        =      -2.2597134055225170 [Eh]
	 Total Energy              =    -874.4125571949698497 [Eh]

	 ================> DF-SCS-MP2 Energies <==================
	-----------------------------------------------------------
	 SCS Same-Spin Scale       =       0.3333333333333333 [-]
	 SCS Opposite-Spin Scale   =       1.2000000000000000 [-]
	 SCS Same-Spin Energy      =      -0.1883216069774467 [Eh]
	 SCS Opposite-Spin Energy  =      -2.0336983015082124 [Eh]
	 SCS Correlation Energy    =      -2.2220199084856591 [Eh]
	 SCS Total Energy          =    -874.3748636979330513 [Eh]
	-----------------------------------------------------------

  Dipole Moment: [D]
     X:     3.7168      Y:     2.3995      Z:     3.5347     Total:     5.6627

*** Psi4 exiting successfully. Buy a developer a beer!
