                               Psi4 1.4a3.dev225

  ==> Input File <==

--------------------------------------------------------------------------
#psi4
#
memory 32 gb

molecule  {
0 1
  S       -1.2780750    -0.4285550    -0.3473560
  O       -1.7049506     0.3503946    -1.4451580
  O       -1.5418650    -1.8618310    -0.2285910
  N       -1.9572890     0.2613030     1.0109670
  C        0.4825990    -0.1948140    -0.1956820
  C        1.2351140    -1.1400330     0.5076890
  C        1.0704270     0.9572020    -0.7248240
  C        2.6038020    -0.9271140     0.6719040
  C        2.4412730     1.1569670    -0.5509020
  C        3.2049670     0.2235900     0.1537530
  C       -1.7662690     1.6987010     1.2148980
  H        0.7580870    -2.0438460     0.8774600
  H        0.4673030     1.6551460    -1.2987640
  H       -1.7702480    -0.3190170     1.8277200
  H        3.2028270    -1.6614550     1.2045750
  H        2.9128080     2.0436310    -0.9672160
  H        4.2723800     0.3833040     0.2839750
  H       -2.3988760     2.0038020     2.0501250
  H       -2.1043290     2.2146560     0.3162530
  H       -0.7257680     1.9753910     1.4267290
units angstrom
no_reorient  #important for SAPT in psi4, default
symmetry c1  #important for SAPT in psi4, default
}

set PROPERTIES_ORIGIN ["COM"]
properties('MP2/aug-cc-pvtz', properties = ['dipole'])
--------------------------------------------------------------------------

    Molecular point group: c1
  Charge       = 0
  Multiplicity = 1
  Basis Set: AUG-CC-PVTZ
    Blend: AUG-CC-PVTZ
  Basis Set: (AUG-CC-PVTZ AUX)
    Blend: AUG-CC-PVTZ-JKFIT

    Orbital Energies [Eh]
    ---------------------

    Doubly Occupied:

       1A    -92.197921     2A    -20.548431     3A    -20.543419
       4A    -15.601233     5A    -11.279941     6A    -11.275712
       7A    -11.269563     8A    -11.268833     9A    -11.266709
      10A    -11.261271    11A    -11.260969    12A     -9.163878
      13A     -6.849073    14A     -6.848662    15A     -6.848334
      16A     -1.470433    17A     -1.347468    18A     -1.232995
      19A     -1.180714    20A     -1.056434    21A     -1.042680
      22A     -0.961223    23A     -0.891585    24A     -0.854693
      25A     -0.811667    26A     -0.751312    27A     -0.714520
      28A     -0.679482    29A     -0.673641    30A     -0.654599
      31A     -0.641576    32A     -0.625284    33A     -0.615039
      34A     -0.609036    35A     -0.567326    36A     -0.548977
      37A     -0.532149    38A     -0.522521    39A     -0.509858
      40A     -0.502203    41A     -0.477896    42A     -0.466281
      43A     -0.433691    44A     -0.366851    45A     -0.361909

  @DF-RHF Final Energy:  -872.15817288842629

   => Energetics <=

    Nuclear Repulsion Energy =            745.3265745642071352
    One-Electron Energy =               -2675.7935088770295806
    Two-Electron Energy =                1058.3087614243963799
    Total Energy =                       -872.1581728884261793
  Basis Set: (AUG-CC-PVTZ AUX)
    Blend: AUG-CC-PVTZ-RI
    Molecular point group: c1

    Geometry (in Angstrom), charge = 0, multiplicity = 1:

       Center              X                  Y                   Z               Mass
    ------------   -----------------  -----------------  -----------------  -----------------
         S           -1.252992123838    -0.389828965317    -0.317930147191    31.972071174400
         O           -1.679867723838     0.389120634683    -1.415732147191    15.994914619570
         O           -1.516782123838    -1.823104965317    -0.199165147191    15.994914619570
         N           -1.932206123838     0.300029034683     1.040392852809    14.003074004430
         C            0.507681876162    -0.156087965317    -0.166256147191    12.000000000000
         C            1.260196876162    -1.101306965317     0.537114852809    12.000000000000
         C            1.095509876162     0.995928034683    -0.695398147191    12.000000000000
         C            2.628884876162    -0.888387965317     0.701329852809    12.000000000000
         C            2.466355876162     1.195693034683    -0.521476147191    12.000000000000
         C            3.230049876162     0.262316034683     0.183178852809    12.000000000000
         C           -1.741186123838     1.737427034683     1.244323852809    12.000000000000
         H            0.783169876162    -2.005119965317     0.906885852809     1.007825032230
         H            0.492385876162     1.693872034683    -1.269338147191     1.007825032230
         H           -1.745165123838    -0.280290965317     1.857145852809     1.007825032230
         H            3.227909876162    -1.622728965317     1.234000852809     1.007825032230
         H            2.937890876162     2.082357034683    -0.937790147191     1.007825032230
         H            4.297462876162     0.422030034683     0.313400852809     1.007825032230
         H           -2.373793123838     2.042528034683     2.079550852809     1.007825032230
         H           -2.079246123838     2.253382034683     0.345678852809     1.007825032230
         H           -0.700685123838     2.014117034683     1.456154852809     1.007825032230

  Basis Set: AUG-CC-PVTZ
    Blend: AUG-CC-PVTZ
  Basis Set: (AUG-CC-PVTZ AUX)
    Blend: AUG-CC-PVTZ-JKFIT
	 Reference Energy          =    -872.1581728884262930 [Eh]
	 Singles Energy            =      -0.0000000000000000 [Eh]
	 Same-Spin Energy          =      -0.5634425098981398 [Eh]
	 Opposite-Spin Energy      =      -1.6918589299868299 [Eh]
	 Correlation Energy        =      -2.2553014398849696 [Eh]
	 Total Energy              =    -874.4134743283112812 [Eh]

	 ================> DF-SCS-MP2 Energies <==================
	-----------------------------------------------------------
	 SCS Same-Spin Scale       =       0.3333333333333333 [-]
	 SCS Opposite-Spin Scale   =       1.2000000000000000 [-]
	 SCS Same-Spin Energy      =      -0.1878141699660466 [Eh]
	 SCS Opposite-Spin Energy  =      -2.0302307159841959 [Eh]
	 SCS Correlation Energy    =      -2.2180448859502424 [Eh]
	 SCS Total Energy          =    -874.3762177743765278 [Eh]
	-----------------------------------------------------------

  Dipole Moment: [D]
     X:     3.5835      Y:     2.6131      Z:     3.3834     Total:     5.5783

*** Psi4 exiting successfully. Buy a developer a beer!
