                               Psi4 1.3.2 release

  ==> Input File <==

--------------------------------------------------------------------------
#psi4
#
memory 32 gb

molecule  {
0 1
  S       -1.2780750    -0.4285550    -0.3473560
  O       -1.7200650     0.3779750    -1.4840280
  O       -1.5418650    -1.8618310    -0.2285910
  N       -1.9572890     0.2613030     1.0109670
  C        0.4825990    -0.1948140    -0.1956820
  C        1.2351140    -1.1400330     0.5076890
  C        1.0704270     0.9572020    -0.7248240
  C        2.6038020    -0.9271140     0.6719040
  C        2.4412730     1.1569670    -0.5509020
  C        3.2049670     0.2235900     0.1537530
  C       -1.7532239     1.7968635     1.2288248
  H        0.7580870    -2.0438460     0.8774600
  H        0.4673030     1.6551460    -1.2987640
  H       -1.7702480    -0.3190170     1.8277200
  H        3.2028270    -1.6614550     1.2045750
  H        2.9128080     2.0436310    -0.9672160
  H        4.2723800     0.3833040     0.2839750
  H       -2.3988760     2.0038020     2.0501250
  H       -2.1043290     2.2146560     0.3162530
  H       -0.7257680     1.9753910     1.4267290
units angstrom
no_reorient  #important for SAPT in psi4, default
symmetry c1  #important for SAPT in psi4, default
}

set PROPERTIES_ORIGIN ["COM"]
properties('MP2/aug-cc-pvtz', properties = ['dipole'])
--------------------------------------------------------------------------

    Molecular point group: c1
  Charge       = 0
  Multiplicity = 1
  Basis Set: AUG-CC-PVTZ
    Blend: AUG-CC-PVTZ
  Basis Set: (AUG-CC-PVTZ AUX)
    Blend: AUG-CC-PVTZ-JKFIT

    Orbital Energies [Eh]
    ---------------------

    Doubly Occupied:

       1A    -92.200177     2A    -20.545051     3A    -20.544716
       4A    -15.600970     5A    -11.281538     6A    -11.279666
       7A    -11.269633     8A    -11.269460     9A    -11.267039
      10A    -11.261690    11A    -11.261518    12A     -9.164958
      13A     -6.850089    14A     -6.849617    15A     -6.849400
      16A     -1.448930    17A     -1.334529    18A     -1.212982
      19A     -1.180681    20A     -1.056440    21A     -1.043100
      22A     -0.968982    23A     -0.894055    24A     -0.855101
      25A     -0.810734    26A     -0.746331    27A     -0.708963
      28A     -0.674151    29A     -0.664537    30A     -0.650968
      31A     -0.639469    32A     -0.626924    33A     -0.615336
      34A     -0.603571    35A     -0.580408    36A     -0.547678
      37A     -0.533881    38A     -0.522624    39A     -0.500559
      40A     -0.494203    41A     -0.471149    42A     -0.464666
      43A     -0.437873    44A     -0.366658    45A     -0.362507

  @DF-RHF Final Energy:  -872.14796374112711

   => Energetics <=

    Nuclear Repulsion Energy =            740.8655553004953163
    One-Electron Energy =               -2667.0000129489676510
    Two-Electron Energy =                1053.9864939073452206
    Total Energy =                       -872.1479637411271142
  Basis Set: (AUG-CC-PVTZ AUX)
    Blend: AUG-CC-PVTZ-RI
    Molecular point group: c1

    Geometry (in Angstrom), charge = 0, multiplicity = 1:

       Center              X                  Y                   Z               Mass
    ------------   -----------------  -----------------  -----------------  -----------------
         S           -1.252493909213    -0.399295404113    -0.315272213616    31.972071174400
         O           -1.694483909213     0.407234595887    -1.451944213616    15.994914619570
         O           -1.516283909213    -1.832571404113    -0.196507213616    15.994914619570
         N           -1.931707909213     0.290562595887     1.043050786384    14.003074004430
         C            0.508180090787    -0.165554404113    -0.163598213616    12.000000000000
         C            1.260695090787    -1.110773404113     0.539772786384    12.000000000000
         C            1.096008090787     0.986461595887    -0.692740213616    12.000000000000
         C            2.629383090787    -0.897854404113     0.703987786384    12.000000000000
         C            2.466854090787     1.186226595887    -0.518818213616    12.000000000000
         C            3.230548090787     0.252849595887     0.185836786384    12.000000000000
         C           -1.727642809213     1.826123095887     1.260908586384    12.000000000000
         H            0.783668090787    -2.014586404113     0.909543786384     1.007825032230
         H            0.492884090787     1.684405595887    -1.266680213616     1.007825032230
         H           -1.744666909213    -0.289757404113     1.859803786384     1.007825032230
         H            3.228408090787    -1.632195404113     1.236658786384     1.007825032230
         H            2.938389090787     2.072890595887    -0.935132213616     1.007825032230
         H            4.297961090787     0.412563595887     0.316058786384     1.007825032230
         H           -2.373294909213     2.033061595887     2.082208786384     1.007825032230
         H           -2.078747909213     2.243915595887     0.348336786384     1.007825032230
         H           -0.700186909213     2.004650595887     1.458812786384     1.007825032230

  Basis Set: AUG-CC-PVTZ
    Blend: AUG-CC-PVTZ
  Basis Set: (AUG-CC-PVTZ AUX)
    Blend: AUG-CC-PVTZ-JKFIT
	 Reference Energy          =    -872.1479637411271142 [Eh]
	 Singles Energy            =      -0.0000000000000000 [Eh]
	 Same-Spin Energy          =      -0.5642215855923622 [Eh]
	 Opposite-Spin Energy      =      -1.6950154701052167 [Eh]
	 Correlation Energy        =      -2.2592370556975787 [Eh]
	 Total Energy              =    -874.4072007968246680 [Eh]

	 ================> DF-SCS-MP2 Energies <==================
	-----------------------------------------------------------
	 SCS Same-Spin Scale       =       0.3333333333333333 [-]
	 SCS Opposite-Spin Scale   =       1.2000000000000000 [-]
	 SCS Same-Spin Energy      =      -0.1880738618641207 [Eh]
	 SCS Opposite-Spin Energy  =      -2.0340185641262600 [Eh]
	 SCS Correlation Energy    =      -2.2220924259903807 [Eh]
	 SCS Total Energy          =    -874.3700561671174682 [Eh]
	-----------------------------------------------------------

  Dipole Moment: [D]
     X:     3.6879      Y:     2.7209      Z:     3.6762     Total:     5.8752

*** Psi4 exiting successfully. Buy a developer a beer!
