                               Psi4 1.3.2 release

  ==> Input File <==

--------------------------------------------------------------------------
#psi4
#
memory 32 gb

molecule  {
0 1
  S       -1.2780750    -0.4285550    -0.3473560
  O       -1.7805227     0.4882965    -1.6395080
  O       -1.5418650    -1.8618310    -0.2285910
  N       -1.9572890     0.2613030     1.0109670
  C        0.4825990    -0.1948140    -0.1956820
  C        1.2351140    -1.1400330     0.5076890
  C        1.0704270     0.9572020    -0.7248240
  C        2.6038020    -0.9271140     0.6719040
  C        2.4412730     1.1569670    -0.5509020
  C        3.2049670     0.2235900     0.1537530
  C       -1.7662690     1.6987010     1.2148980
  H        0.7580870    -2.0438460     0.8774600
  H        0.4673030     1.6551460    -1.2987640
  H       -1.7702480    -0.3190170     1.8277200
  H        3.2028270    -1.6614550     1.2045750
  H        2.9128080     2.0436310    -0.9672160
  H        4.2723800     0.3833040     0.2839750
  H       -2.3988760     2.0038020     2.0501250
  H       -2.1043290     2.2146560     0.3162530
  H       -0.7257680     1.9753910     1.4267290
units angstrom
no_reorient  #important for SAPT in psi4, default
symmetry c1  #important for SAPT in psi4, default
}

set PROPERTIES_ORIGIN ["COM"]
properties('MP2/aug-cc-pvtz', properties = ['dipole'])
--------------------------------------------------------------------------

    Molecular point group: c1
  Charge       = 0
  Multiplicity = 1
  Basis Set: AUG-CC-PVTZ
    Blend: AUG-CC-PVTZ
  Basis Set: (AUG-CC-PVTZ AUX)
    Blend: AUG-CC-PVTZ-JKFIT

    Orbital Energies [Eh]
    ---------------------

    Doubly Occupied:

       1A    -92.208971     2A    -20.558836     3A    -20.546176
       4A    -15.614133     5A    -11.290610     6A    -11.278834
       7A    -11.276248     8A    -11.273811     9A    -11.271711
      10A    -11.265825    11A    -11.264762    12A     -9.174545
      13A     -6.859275    14A     -6.858802    15A     -6.857811
      16A     -1.426652    17A     -1.277631    18A     -1.230827
      19A     -1.185964    20A     -1.063281    21A     -1.047436
      22A     -0.969742    23A     -0.902043    24A     -0.859755
      25A     -0.821273    26A     -0.748838    27A     -0.709795
      28A     -0.678176    29A     -0.668440    30A     -0.659443
      31A     -0.643164    32A     -0.619674    33A     -0.612597
      34A     -0.597194    35A     -0.567628    36A     -0.548526
      37A     -0.536916    38A     -0.526730    39A     -0.491826
      40A     -0.479717    41A     -0.457396    42A     -0.452059
      43A     -0.438582    44A     -0.372625    45A     -0.366296

  @DF-RHF Final Energy:  -872.10949449904751

   => Energetics <=

    Nuclear Repulsion Energy =            733.7928072693268859
    One-Electron Energy =               -2652.6834500426462000
    Two-Electron Energy =                1046.7811482742717999
    Total Energy =                       -872.1094944990475142
  Basis Set: (AUG-CC-PVTZ AUX)
    Blend: AUG-CC-PVTZ-RI
    Molecular point group: c1

    Geometry (in Angstrom), charge = 0, multiplicity = 1:

       Center              X                  Y                   Z               Mass
    ------------   -----------------  -----------------  -----------------  -----------------
         S           -1.245924760653    -0.402725296253    -0.299754894222    31.972071174400
         O           -1.748372460653     0.514126203747    -1.591906894222    15.994914619570
         O           -1.509714760653    -1.836001296253    -0.180989894222    15.994914619570
         N           -1.925138760653     0.287132703747     1.058568105778    14.003074004430
         C            0.514749239347    -0.168984296253    -0.148080894222    12.000000000000
         C            1.267264239347    -1.114203296253     0.555290105778    12.000000000000
         C            1.102577239347     0.983031703747    -0.677222894222    12.000000000000
         C            2.635952239347    -0.901284296253     0.719505105778    12.000000000000
         C            2.473423239347     1.182796703747    -0.503300894222    12.000000000000
         C            3.237117239347     0.249419703747     0.201354105778    12.000000000000
         C           -1.734118760653     1.724530703747     1.262499105778    12.000000000000
         H            0.790237239347    -2.018016296253     0.925061105778     1.007825032230
         H            0.499453239347     1.680975703747    -1.251162894222     1.007825032230
         H           -1.738097760653    -0.293187296253     1.875321105778     1.007825032230
         H            3.234977239347    -1.635625296253     1.252176105778     1.007825032230
         H            2.944958239347     2.069460703747    -0.919614894222     1.007825032230
         H            4.304530239347     0.409133703747     0.331576105778     1.007825032230
         H           -2.366725760653     2.029631703747     2.097726105778     1.007825032230
         H           -2.072178760653     2.240485703747     0.363854105778     1.007825032230
         H           -0.693617760653     2.001220703747     1.474330105778     1.007825032230

  Basis Set: AUG-CC-PVTZ
    Blend: AUG-CC-PVTZ
  Basis Set: (AUG-CC-PVTZ AUX)
    Blend: AUG-CC-PVTZ-JKFIT
	 Reference Energy          =    -872.1094944990475142 [Eh]
	 Singles Energy            =      -0.0000000000000000 [Eh]
	 Same-Spin Energy          =      -0.5668145982105861 [Eh]
	 Opposite-Spin Energy      =      -1.7024190611500445 [Eh]
	 Correlation Energy        =      -2.2692336593606308 [Eh]
	 Total Energy              =    -874.3787281584081938 [Eh]

	 ================> DF-SCS-MP2 Energies <==================
	-----------------------------------------------------------
	 SCS Same-Spin Scale       =       0.3333333333333333 [-]
	 SCS Opposite-Spin Scale   =       1.2000000000000000 [-]
	 SCS Same-Spin Energy      =      -0.1889381994035287 [Eh]
	 SCS Opposite-Spin Energy  =      -2.0429028733800534 [Eh]
	 SCS Correlation Energy    =      -2.2318410727835820 [Eh]
	 SCS Total Energy          =    -874.3413355718311095 [Eh]
	-----------------------------------------------------------

  Dipole Moment: [D]
     X:     4.2315      Y:     2.0836      Z:     4.4179     Total:     6.4626

*** Psi4 exiting successfully. Buy a developer a beer!
