                               Psi4 1.3.2 release

  ==> Input File <==

--------------------------------------------------------------------------
#psi4
#
memory 32 gb

molecule  {
0 1
  S       -1.2780750    -0.4285550    -0.3473560
  O       -1.6898361     0.3228143    -1.4062880
  O       -1.5418650    -1.8618310    -0.2285910
  N       -1.9572890     0.2613030     1.0109670
  C        0.4825990    -0.1948140    -0.1956820
  C        1.2351140    -1.1400330     0.5076890
  C        1.0704270     0.9572020    -0.7248240
  C        2.6038020    -0.9271140     0.6719040
  C        2.4412730     1.1569670    -0.5509020
  C        3.2049670     0.2235900     0.1537530
  C       -1.7662690     1.6987010     1.2148980
  H        0.7580870    -2.0438460     0.8774600
  H        0.4673030     1.6551460    -1.2987640
  H       -1.7702480    -0.3190170     1.8277200
  H        3.2028270    -1.6614550     1.2045750
  H        2.9128080     2.0436310    -0.9672160
  H        4.2723800     0.3833040     0.2839750
  H       -2.3988760     2.0038020     2.0501250
  H       -2.1043290     2.2146560     0.3162530
  H       -0.7257680     1.9753910     1.4267290
units angstrom
no_reorient  #important for SAPT in psi4, default
symmetry c1  #important for SAPT in psi4, default
}

set PROPERTIES_ORIGIN ["COM"]
properties('MP2/aug-cc-pvtz', properties = ['dipole'])
--------------------------------------------------------------------------

    Molecular point group: c1
  Charge       = 0
  Multiplicity = 1
  Basis Set: AUG-CC-PVTZ
    Blend: AUG-CC-PVTZ
  Basis Set: (AUG-CC-PVTZ AUX)
    Blend: AUG-CC-PVTZ-JKFIT

    Orbital Energies [Eh]
    ---------------------

    Doubly Occupied:

       1A    -92.191331     2A    -20.549597     3A    -20.539271
       4A    -15.597835     5A    -11.277045     6A    -11.275009
       7A    -11.268556     8A    -11.266937     9A    -11.265480
      10A    -11.260428    11A    -11.259779    12A     -9.159125
      13A     -6.844789    14A     -6.843799    15A     -6.843297
      16A     -1.495232    17A     -1.353848    18A     -1.231327
      19A     -1.179380    20A     -1.054884    21A     -1.041512
      22A     -0.959364    23A     -0.889517    24A     -0.853507
      25A     -0.809587    26A     -0.753457    27A     -0.717959
      28A     -0.682841    29A     -0.674943    30A     -0.653508
      31A     -0.641624    32A     -0.629455    33A     -0.613989
      34A     -0.610386    35A     -0.568405    36A     -0.550513
      37A     -0.530981    38A     -0.522408    39A     -0.516329
      40A     -0.506034    41A     -0.480319    42A     -0.465061
      43A     -0.431823    44A     -0.365455    45A     -0.360783

  @DF-RHF Final Energy:  -872.15370504020666

   => Energetics <=

    Nuclear Repulsion Energy =            747.9831708071222920
    One-Electron Energy =               -2681.1003304353248495
    Two-Electron Energy =                1060.9634545879957841
    Total Energy =                       -872.1537050402066598
  Basis Set: (AUG-CC-PVTZ AUX)
    Blend: AUG-CC-PVTZ-RI
    Molecular point group: c1

    Geometry (in Angstrom), charge = 0, multiplicity = 1:

       Center              X                  Y                   Z               Mass
    ------------   -----------------  -----------------  -----------------  -----------------
         S           -1.254405603956    -0.387249706611    -0.321565197784    31.972071174400
         O           -1.666166703956     0.364119593389    -1.380497197784    15.994914619570
         O           -1.518195603956    -1.820525706611    -0.202800197784    15.994914619570
         N           -1.933619603956     0.302608293389     1.036757802216    14.003074004430
         C            0.506268396044    -0.153508706611    -0.169891197784    12.000000000000
         C            1.258783396044    -1.098727706611     0.533479802216    12.000000000000
         C            1.094096396044     0.998507293389    -0.699033197784    12.000000000000
         C            2.627471396044    -0.885808706611     0.697694802216    12.000000000000
         C            2.464942396044     1.198272293389    -0.525111197784    12.000000000000
         C            3.228636396044     0.264895293389     0.179543802216    12.000000000000
         C           -1.742599603956     1.740006293389     1.240688802216    12.000000000000
         H            0.781756396044    -2.002540706611     0.903250802216     1.007825032230
         H            0.490972396044     1.696451293389    -1.272973197784     1.007825032230
         H           -1.746578603956    -0.277711706611     1.853510802216     1.007825032230
         H            3.226496396044    -1.620149706611     1.230365802216     1.007825032230
         H            2.936477396044     2.084936293389    -0.941425197784     1.007825032230
         H            4.296049396044     0.424609293389     0.309765802216     1.007825032230
         H           -2.375206603956     2.045107293389     2.075915802216     1.007825032230
         H           -2.080659603956     2.255961293389     0.342043802216     1.007825032230
         H           -0.702098603956     2.016696293389     1.452519802216     1.007825032230

  Basis Set: AUG-CC-PVTZ
    Blend: AUG-CC-PVTZ
  Basis Set: (AUG-CC-PVTZ AUX)
    Blend: AUG-CC-PVTZ-JKFIT
	 Reference Energy          =    -872.1537050402066598 [Eh]
	 Singles Energy            =      -0.0000000000000000 [Eh]
	 Same-Spin Energy          =      -0.5622338040822549 [Eh]
	 Opposite-Spin Energy      =      -1.6890388860570842 [Eh]
	 Correlation Energy        =      -2.2512726901393392 [Eh]
	 Total Energy              =    -874.4049777303459905 [Eh]

	 ================> DF-SCS-MP2 Energies <==================
	-----------------------------------------------------------
	 SCS Same-Spin Scale       =       0.3333333333333333 [-]
	 SCS Opposite-Spin Scale   =       1.2000000000000000 [-]
	 SCS Same-Spin Energy      =      -0.1874112680274183 [Eh]
	 SCS Opposite-Spin Energy  =      -2.0268466632685009 [Eh]
	 SCS Correlation Energy    =      -2.2142579312959194 [Eh]
	 SCS Total Energy          =    -874.3679629715026067 [Eh]
	-----------------------------------------------------------

  Dipole Moment: [D]
     X:     3.4573      Y:     2.7140      Z:     3.1795     Total:     5.4248

*** Psi4 exiting successfully. Buy a developer a beer!
