                               Psi4 1.3.2 release

  ==> Input File <==

--------------------------------------------------------------------------
#psi4
#
memory 32 gb

molecule  {
0 1
  S       -1.2780750    -0.4285550    -0.3473560
  O       -1.7200650     0.3779750    -1.4840280
  O       -1.5418650    -1.8618310    -0.2285910
  N       -1.9572890     0.2613030     1.0109670
  C        0.4825990    -0.1948140    -0.1956820
  C        1.2351140    -1.1400330     0.5076890
  C        1.0704270     0.9572020    -0.7248240
  C        2.6038020    -0.9271140     0.6719040
  C        2.4412730     1.1569670    -0.5509020
  C        3.2049670     0.2235900     0.1537530
  C       -1.7730326     1.7028200     1.1905993
  H        0.7580870    -2.0438460     0.8774600
  H        0.4673030     1.6551460    -1.2987640
  H       -1.7702480    -0.3190170     1.8277200
  H        3.2028270    -1.6614550     1.2045750
  H        2.9128080     2.0436310    -0.9672160
  H        4.2723800     0.3833040     0.2839750
  H       -2.3988760     2.0038020     2.0501250
  H       -2.1043290     2.2146560     0.3162530
  H       -0.7257680     1.9753910     1.4267290
units angstrom
no_reorient  #important for SAPT in psi4, default
symmetry c1  #important for SAPT in psi4, default
}

set PROPERTIES_ORIGIN ["COM"]
properties('MP2/aug-cc-pvtz', properties = ['dipole'])
--------------------------------------------------------------------------

    Molecular point group: c1
  Charge       = 0
  Multiplicity = 1
  Basis Set: AUG-CC-PVTZ
    Blend: AUG-CC-PVTZ
  Basis Set: (AUG-CC-PVTZ AUX)
    Blend: AUG-CC-PVTZ-JKFIT

    Orbital Energies [Eh]
    ---------------------

    Doubly Occupied:

       1A    -92.202662     2A    -20.547309     3A    -20.547010
       4A    -15.604620     5A    -11.282524     6A    -11.276786
       7A    -11.270575     8A    -11.270449     9A    -11.267810
      10A    -11.262078    11A    -11.261924    12A     -9.167594
      13A     -6.852753    14A     -6.852207    15A     -6.852001
      16A     -1.452100    17A     -1.336830    18A     -1.234445
      19A     -1.181900    20A     -1.057867    21A     -1.043714
      22A     -0.963072    23A     -0.893971    24A     -0.855767
      25A     -0.814033    26A     -0.750315    27A     -0.712386
      28A     -0.677283    29A     -0.671922    30A     -0.655368
      31A     -0.641642    32A     -0.621028    33A     -0.615896
      34A     -0.606251    35A     -0.571658    36A     -0.548026
      37A     -0.533250    38A     -0.523283    39A     -0.502865
      40A     -0.497839    41A     -0.473780    42A     -0.466149
      43A     -0.434372    44A     -0.368117    45A     -0.362842

  @DF-RHF Final Energy:  -872.15480152409361

   => Energetics <=

    Nuclear Repulsion Energy =            742.9398164579782815
    One-Electron Energy =               -2671.0166871310084389
    Two-Electron Energy =                1055.9220691489363162
    Total Energy =                       -872.1548015240937275
  Basis Set: (AUG-CC-PVTZ AUX)
    Blend: AUG-CC-PVTZ-RI
    Molecular point group: c1

    Geometry (in Angstrom), charge = 0, multiplicity = 1:

       Center              X                  Y                   Z               Mass
    ------------   -----------------  -----------------  -----------------  -----------------
         S           -1.251104112712    -0.392697226180    -0.312590277592    31.972071174400
         O           -1.693094112712     0.413832773820    -1.449262277592    15.994914619570
         O           -1.514894112712    -1.825973226180    -0.193825277592    15.994914619570
         N           -1.930318112712     0.297160773820     1.045732722408    14.003074004430
         C            0.509569887288    -0.158956226180    -0.160916277592    12.000000000000
         C            1.262084887288    -1.104175226180     0.542454722408    12.000000000000
         C            1.097397887288     0.993059773820    -0.690058277592    12.000000000000
         C            2.630772887288    -0.891256226180     0.706669722408    12.000000000000
         C            2.468243887288     1.192824773820    -0.516136277592    12.000000000000
         C            3.231937887288     0.259447773820     0.188518722408    12.000000000000
         C           -1.746061712712     1.738677773820     1.225365022408    12.000000000000
         H            0.785057887288    -2.007988226180     0.912225722408     1.007825032230
         H            0.494273887288     1.691003773820    -1.263998277592     1.007825032230
         H           -1.743277112712    -0.283159226180     1.862485722408     1.007825032230
         H            3.229797887288    -1.625597226180     1.239340722408     1.007825032230
         H            2.939778887288     2.079488773820    -0.932450277592     1.007825032230
         H            4.299350887288     0.419161773820     0.318740722408     1.007825032230
         H           -2.371905112712     2.039659773820     2.084890722408     1.007825032230
         H           -2.077358112712     2.250513773820     0.351018722408     1.007825032230
         H           -0.698797112712     2.011248773820     1.461494722408     1.007825032230

  Basis Set: AUG-CC-PVTZ
    Blend: AUG-CC-PVTZ
  Basis Set: (AUG-CC-PVTZ AUX)
    Blend: AUG-CC-PVTZ-JKFIT
	 Reference Energy          =    -872.1548015240936138 [Eh]
	 Singles Energy            =      -0.0000000000000000 [Eh]
	 Same-Spin Energy          =      -0.5645563439285011 [Eh]
	 Opposite-Spin Energy      =      -1.6945575893105471 [Eh]
	 Correlation Energy        =      -2.2591139332390480 [Eh]
	 Total Energy              =    -874.4139154573326778 [Eh]

	 ================> DF-SCS-MP2 Energies <==================
	-----------------------------------------------------------
	 SCS Same-Spin Scale       =       0.3333333333333333 [-]
	 SCS Opposite-Spin Scale   =       1.2000000000000000 [-]
	 SCS Same-Spin Energy      =      -0.1881854479761670 [Eh]
	 SCS Opposite-Spin Energy  =      -2.0334691071726563 [Eh]
	 SCS Correlation Energy    =      -2.2216545551488234 [Eh]
	 SCS Total Energy          =    -874.3764560792424163 [Eh]
	-----------------------------------------------------------

  Dipole Moment: [D]
     X:     3.6937      Y:     2.5211      Z:     3.5824     Total:     5.7300

*** Psi4 exiting successfully. Buy a developer a beer!
