                               Psi4 1.3.2 release

  ==> Input File <==

--------------------------------------------------------------------------
#psi4
#
memory 32 gb

molecule  {
0 1
  S       -1.2780750    -0.4285550    -0.3473560
  O       -1.6960001     0.3856548    -1.4876498
  O       -1.5418650    -1.8618310    -0.2285910
  N       -1.9572890     0.2613030     1.0109670
  C        0.4825990    -0.1948140    -0.1956820
  C        1.2351140    -1.1400330     0.5076890
  C        1.0704270     0.9572020    -0.7248240
  C        2.6038020    -0.9271140     0.6719040
  C        2.4412730     1.1569670    -0.5509020
  C        3.2049670     0.2235900     0.1537530
  C       -1.7662690     1.6987010     1.2148980
  H        0.7580870    -2.0438460     0.8774600
  H        0.4673030     1.6551460    -1.2987640
  H       -1.7702480    -0.3190170     1.8277200
  H        3.2028270    -1.6614550     1.2045750
  H        2.9128080     2.0436310    -0.9672160
  H        4.2723800     0.3833040     0.2839750
  H       -2.3988760     2.0038020     2.0501250
  H       -2.1043290     2.2146560     0.3162530
  H       -0.7257680     1.9753910     1.4267290
units angstrom
no_reorient  #important for SAPT in psi4, default
symmetry c1  #important for SAPT in psi4, default
}

set PROPERTIES_ORIGIN ["COM"]
properties('MP2/aug-cc-pvtz', properties = ['dipole'])
--------------------------------------------------------------------------

    Molecular point group: c1
  Charge       = 0
  Multiplicity = 1
  Basis Set: AUG-CC-PVTZ
    Blend: AUG-CC-PVTZ
  Basis Set: (AUG-CC-PVTZ AUX)
    Blend: AUG-CC-PVTZ-JKFIT

    Orbital Energies [Eh]
    ---------------------

    Doubly Occupied:

       1A    -92.203393     2A    -20.548303     3A    -20.547693
       4A    -15.605132     5A    -11.281526     6A    -11.276664
       7A    -11.269884     8A    -11.269676     9A    -11.267253
      10A    -11.261557    11A    -11.261400    12A     -9.168237
      13A     -6.853408    14A     -6.852868    15A     -6.852638
      16A     -1.452558    17A     -1.337949    18A     -1.234895
      19A     -1.181259    20A     -1.057154    21A     -1.043122
      22A     -0.963346    23A     -0.893233    24A     -0.855166
      25A     -0.813747    26A     -0.750046    27A     -0.712440
      28A     -0.677560    29A     -0.672543    30A     -0.655336
      31A     -0.641236    32A     -0.621634    33A     -0.615413
      34A     -0.607913    35A     -0.567145    36A     -0.547527
      37A     -0.532696    38A     -0.522709    39A     -0.503842
      40A     -0.498790    41A     -0.474808    42A     -0.466636
      43A     -0.435279    44A     -0.367536    45A     -0.362350

  @DF-RHF Final Energy:  -872.15520701164689

   => Energetics <=

    Nuclear Repulsion Energy =            742.9843474129274910
    One-Electron Energy =               -2671.1081068058224446
    Two-Electron Energy =                1055.9685523812481733
    Total Energy =                       -872.1552070116467803
  Basis Set: (AUG-CC-PVTZ AUX)
    Blend: AUG-CC-PVTZ-RI
    Molecular point group: c1

    Geometry (in Angstrom), charge = 0, multiplicity = 1:

       Center              X                  Y                   Z               Mass
    ------------   -----------------  -----------------  -----------------  -----------------
         S           -1.253829158063    -0.393126434083    -0.313956392552    31.972071174400
         O           -1.671754258063     0.421083365917    -1.454250192552    15.994914619570
         O           -1.517619158063    -1.826402434083    -0.195191392552    15.994914619570
         N           -1.933043158063     0.296731565917     1.044366607448    14.003074004430
         C            0.506844841937    -0.159385434083    -0.162282392552    12.000000000000
         C            1.259359841937    -1.104604434083     0.541088607448    12.000000000000
         C            1.094672841937     0.992630565917    -0.691424392552    12.000000000000
         C            2.628047841937    -0.891685434083     0.705303607448    12.000000000000
         C            2.465518841937     1.192395565917    -0.517502392552    12.000000000000
         C            3.229212841937     0.259018565917     0.187152607448    12.000000000000
         C           -1.742023158063     1.734129565917     1.248297607448    12.000000000000
         H            0.782332841937    -2.008417434083     0.910859607448     1.007825032230
         H            0.491548841937     1.690574565917    -1.265364392552     1.007825032230
         H           -1.746002158063    -0.283588434083     1.861119607448     1.007825032230
         H            3.227072841937    -1.626026434083     1.237974607448     1.007825032230
         H            2.937053841937     2.079059565917    -0.933816392552     1.007825032230
         H            4.296625841937     0.418732565917     0.317374607448     1.007825032230
         H           -2.374630158063     2.039230565917     2.083524607448     1.007825032230
         H           -2.080083158063     2.250084565917     0.349652607448     1.007825032230
         H           -0.701522158063     2.010819565917     1.460128607448     1.007825032230

  Basis Set: AUG-CC-PVTZ
    Blend: AUG-CC-PVTZ
  Basis Set: (AUG-CC-PVTZ AUX)
    Blend: AUG-CC-PVTZ-JKFIT
	 Reference Energy          =    -872.1552070116468940 [Eh]
	 Singles Energy            =      -0.0000000000000000 [Eh]
	 Same-Spin Energy          =      -0.5646183920359439 [Eh]
	 Opposite-Spin Energy      =      -1.6946735126954122 [Eh]
	 Correlation Energy        =      -2.2592919047313562 [Eh]
	 Total Energy              =    -874.4144989163783066 [Eh]

	 ================> DF-SCS-MP2 Energies <==================
	-----------------------------------------------------------
	 SCS Same-Spin Scale       =       0.3333333333333333 [-]
	 SCS Opposite-Spin Scale   =       1.2000000000000000 [-]
	 SCS Same-Spin Energy      =      -0.1882061306786479 [Eh]
	 SCS Opposite-Spin Energy  =      -2.0336082152344948 [Eh]
	 SCS Correlation Energy    =      -2.2218143459131428 [Eh]
	 SCS Total Energy          =    -874.3770213575600110 [Eh]
	-----------------------------------------------------------

  Dipole Moment: [D]
     X:     3.6247      Y:     2.4967      Z:     3.5897     Total:     5.6796

*** Psi4 exiting successfully. Buy a developer a beer!
