                               Psi4 1.3.2 release

  ==> Input File <==

--------------------------------------------------------------------------
#psi4
#
memory 32 gb

molecule  {
0 1
  S       -1.2780750    -0.4285550    -0.3473560
  O       -1.7200650     0.3779750    -1.4840280
  O       -1.5418650    -1.8618310    -0.2285910
  N       -1.9572890     0.2613030     1.0109670
  C        0.4825990    -0.1948140    -0.1956820
  C        1.2351140    -1.1400330     0.5076890
  C        1.0704270     0.9572020    -0.7248240
  C        2.6038020    -0.9271140     0.6719040
  C        2.4412730     1.1569670    -0.5509020
  C        3.2049670     0.2235900     0.1537530
  C       -1.8076504     1.7168082     1.0684333
  H        0.7580870    -2.0438460     0.8774600
  H        0.4673030     1.6551460    -1.2987640
  H       -1.7702480    -0.3190170     1.8277200
  H        3.2028270    -1.6614550     1.2045750
  H        2.9128080     2.0436310    -0.9672160
  H        4.2723800     0.3833040     0.2839750
  H       -2.3988760     2.0038020     2.0501250
  H       -2.1043290     2.2146560     0.3162530
  H       -0.7257680     1.9753910     1.4267290
units angstrom
no_reorient  #important for SAPT in psi4, default
symmetry c1  #important for SAPT in psi4, default
}

set PROPERTIES_ORIGIN ["COM"]
properties('MP2/aug-cc-pvtz', properties = ['dipole'])
--------------------------------------------------------------------------

    Molecular point group: c1
  Charge       = 0
  Multiplicity = 1
  Basis Set: AUG-CC-PVTZ
    Blend: AUG-CC-PVTZ
  Basis Set: (AUG-CC-PVTZ AUX)
    Blend: AUG-CC-PVTZ-JKFIT

    Orbital Energies [Eh]
    ---------------------

    Doubly Occupied:

       1A    -92.201249     2A    -20.547896     3A    -20.545756
       4A    -15.606957     5A    -11.282102     6A    -11.281736
       7A    -11.270325     8A    -11.270165     9A    -11.267501
      10A    -11.261673    11A    -11.261480    12A     -9.166450
      13A     -6.851564    14A     -6.851026    15A     -6.850861
      16A     -1.452334    17A     -1.336884    18A     -1.235860
      19A     -1.181554    20A     -1.057516    21A     -1.043362
      22A     -0.966593    23A     -0.896321    24A     -0.855430
      25A     -0.816227    26A     -0.751928    27A     -0.712315
      28A     -0.680353    29A     -0.673506    30A     -0.655217
      31A     -0.642558    32A     -0.625522    33A     -0.615567
      34A     -0.615470    35A     -0.565579    36A     -0.546481
      37A     -0.531838    38A     -0.522959    39A     -0.501429
      40A     -0.496903    41A     -0.473388    42A     -0.463725
      43A     -0.427291    44A     -0.367809    45A     -0.362237

  @DF-RHF Final Energy:  -872.12486458353681

   => Energetics <=

    Nuclear Repulsion Energy =            743.7045972133539635
    One-Electron Energy =               -2672.4771332053514925
    Two-Electron Energy =                1056.6476714084606101
    Total Energy =                       -872.1248645835369189
  Basis Set: (AUG-CC-PVTZ AUX)
    Blend: AUG-CC-PVTZ-RI
    Molecular point group: c1

    Geometry (in Angstrom), charge = 0, multiplicity = 1:

       Center              X                  Y                   Z               Mass
    ------------   -----------------  -----------------  -----------------  -----------------
         S           -1.248675296217    -0.393678651080    -0.304018999350    31.972071174400
         O           -1.690665296217     0.412851348920    -1.440690999350    15.994914619570
         O           -1.512465296217    -1.826954651080    -0.185253999350    15.994914619570
         N           -1.927889296217     0.296179348920     1.054304000650    14.003074004430
         C            0.511998703783    -0.159937651080    -0.152344999350    12.000000000000
         C            1.264513703783    -1.105156651080     0.551026000650    12.000000000000
         C            1.099826703783     0.992078348920    -0.681486999350    12.000000000000
         C            2.633201703783    -0.892237651080     0.715241000650    12.000000000000
         C            2.470672703783     1.191843348920    -0.507564999350    12.000000000000
         C            3.234366703783     0.258466348920     0.197090000650    12.000000000000
         C           -1.778250696217     1.751684548920     1.111770300650    12.000000000000
         H            0.787486703783    -2.008969651080     0.920797000650     1.007825032230
         H            0.496702703783     1.690022348920    -1.255426999350     1.007825032230
         H           -1.740848296217    -0.284140651080     1.871057000650     1.007825032230
         H            3.232226703783    -1.626578651080     1.247912000650     1.007825032230
         H            2.942207703783     2.078507348920    -0.923878999350     1.007825032230
         H            4.301779703783     0.418180348920     0.327312000650     1.007825032230
         H           -2.369476296217     2.038678348920     2.093462000650     1.007825032230
         H           -2.074929296217     2.249532348920     0.359590000650     1.007825032230
         H           -0.696368296217     2.010267348920     1.470066000650     1.007825032230

  Basis Set: AUG-CC-PVTZ
    Blend: AUG-CC-PVTZ
  Basis Set: (AUG-CC-PVTZ AUX)
    Blend: AUG-CC-PVTZ-JKFIT
	 Reference Energy          =    -872.1248645835368052 [Eh]
	 Singles Energy            =      -0.0000000000000000 [Eh]
	 Same-Spin Energy          =      -0.5650078453276068 [Eh]
	 Opposite-Spin Energy      =      -1.6957828454501143 [Eh]
	 Correlation Energy        =      -2.2607906907777213 [Eh]
	 Total Energy              =    -874.3856552743145585 [Eh]

	 ================> DF-SCS-MP2 Energies <==================
	-----------------------------------------------------------
	 SCS Same-Spin Scale       =       0.3333333333333333 [-]
	 SCS Opposite-Spin Scale   =       1.2000000000000000 [-]
	 SCS Same-Spin Energy      =      -0.1883359484425356 [Eh]
	 SCS Opposite-Spin Energy  =      -2.0349394145401369 [Eh]
	 SCS Correlation Energy    =      -2.2232753629826725 [Eh]
	 SCS Total Energy          =    -874.3481399465194954 [Eh]
	-----------------------------------------------------------

  Dipole Moment: [D]
     X:     3.6253      Y:     2.5229      Z:     3.5616     Total:     5.6739

*** Psi4 exiting successfully. Buy a developer a beer!
