                               Psi4 1.3.2 release

  ==> Input File <==

--------------------------------------------------------------------------
#psi4
#
memory 32 gb

molecule  {
0 1
  S       -1.2780750    -0.4285550    -0.3473560
  O       -1.7200650     0.3779750    -1.4840280
  O       -1.5418650    -1.8618310    -0.2285910
  N       -1.9572890     0.2613030     1.0109670
  C        0.4825990    -0.1948140    -0.1956820
  C        1.2351140    -1.1400330     0.5076890
  C        1.0704270     0.9572020    -0.7248240
  C        2.6038020    -0.9271140     0.6719040
  C        2.4412730     1.1569670    -0.5509020
  C        3.2049670     0.2235900     0.1537530
  C       -1.7936516     1.7125381     1.1174044
  H        0.7580870    -2.0438460     0.8774600
  H        0.4673030     1.6551460    -1.2987640
  H       -1.7702480    -0.3190170     1.8277200
  H        3.2028270    -1.6614550     1.2045750
  H        2.9128080     2.0436310    -0.9672160
  H        4.2723800     0.3833040     0.2839750
  H       -2.3988760     2.0038020     2.0501250
  H       -2.1043290     2.2146560     0.3162530
  H       -0.7257680     1.9753910     1.4267290
units angstrom
no_reorient  #important for SAPT in psi4, default
symmetry c1  #important for SAPT in psi4, default
}

set PROPERTIES_ORIGIN ["COM"]
properties('MP2/aug-cc-pvtz', properties = ['dipole'])
--------------------------------------------------------------------------

    Molecular point group: c1
  Charge       = 0
  Multiplicity = 1
  Basis Set: AUG-CC-PVTZ
    Blend: AUG-CC-PVTZ
  Basis Set: (AUG-CC-PVTZ AUX)
    Blend: AUG-CC-PVTZ-JKFIT

    Orbital Energies [Eh]
    ---------------------

    Doubly Occupied:

       1A    -92.201734     2A    -20.547561     3A    -20.546190
       4A    -15.605737     5A    -11.282236     6A    -11.279149
       7A    -11.270391     8A    -11.270253     9A    -11.267599
      10A    -11.261815    11A    -11.261643    12A     -9.166824
      13A     -6.851954    14A     -6.851417    15A     -6.851236
      16A     -1.452140    17A     -1.336778    18A     -1.235101
      19A     -1.181664    20A     -1.057617    21A     -1.043480
      22A     -0.964348    23A     -0.895111    24A     -0.855538
      25A     -0.815182    26A     -0.751250    27A     -0.712363
      28A     -0.677297    29A     -0.672297    30A     -0.654642
      31A     -0.641908    32A     -0.622388    33A     -0.615656
      34A     -0.612228    35A     -0.571762    36A     -0.547290
      37A     -0.532567    38A     -0.523068    39A     -0.501827
      40A     -0.497393    41A     -0.473529    42A     -0.464782
      43A     -0.430555    44A     -0.367896    45A     -0.362472

  @DF-RHF Final Energy:  -872.14258269100787

   => Energetics <=

    Nuclear Repulsion Energy =            743.3832088426958080
    One-Electron Energy =               -2671.8798493994559067
    Two-Electron Energy =                1056.3540578657523383
    Total Energy =                       -872.1425826910078740
  Basis Set: (AUG-CC-PVTZ AUX)
    Blend: AUG-CC-PVTZ-RI
    Molecular point group: c1

    Geometry (in Angstrom), charge = 0, multiplicity = 1:

       Center              X                  Y                   Z               Mass
    ------------   -----------------  -----------------  -----------------  -----------------
         S           -1.249657464823    -0.393379056960    -0.307454856495    31.972071174400
         O           -1.691647464823     0.413150943040    -1.444126856495    15.994914619570
         O           -1.513447464823    -1.826655056960    -0.188689856495    15.994914619570
         N           -1.928871464823     0.296478943040     1.050868143505    14.003074004430
         C            0.511016535177    -0.159638056960    -0.155780856495    12.000000000000
         C            1.263531535177    -1.104857056960     0.547590143505    12.000000000000
         C            1.098844535177     0.992377943040    -0.684922856495    12.000000000000
         C            2.632219535177    -0.891938056960     0.711805143505    12.000000000000
         C            2.469690535177     1.192142943040    -0.511000856495    12.000000000000
         C            3.233384535177     0.258765943040     0.193654143505    12.000000000000
         C           -1.765234064823     1.747714043040     1.157305543505    12.000000000000
         H            0.786504535177    -2.008670056960     0.917361143505     1.007825032230
         H            0.495720535177     1.690321943040    -1.258862856495     1.007825032230
         H           -1.741830464823    -0.283841056960     1.867621143505     1.007825032230
         H            3.231244535177    -1.626279056960     1.244476143505     1.007825032230
         H            2.941225535177     2.078806943040    -0.927314856495     1.007825032230
         H            4.300797535177     0.418479943040     0.323876143505     1.007825032230
         H           -2.370458464823     2.038977943040     2.090026143505     1.007825032230
         H           -2.075911464823     2.249831943040     0.356154143505     1.007825032230
         H           -0.697350464823     2.010566943040     1.466630143505     1.007825032230

  Basis Set: AUG-CC-PVTZ
    Blend: AUG-CC-PVTZ
  Basis Set: (AUG-CC-PVTZ AUX)
    Blend: AUG-CC-PVTZ-JKFIT
	 Reference Energy          =    -872.1425826910078740 [Eh]
	 Singles Energy            =      -0.0000000000000000 [Eh]
	 Same-Spin Energy          =      -0.5647340786079377 [Eh]
	 Opposite-Spin Energy      =      -1.6950211498492929 [Eh]
	 Correlation Energy        =      -2.2597552284572306 [Eh]
	 Total Energy              =    -874.4023379194651397 [Eh]

	 ================> DF-SCS-MP2 Energies <==================
	-----------------------------------------------------------
	 SCS Same-Spin Scale       =       0.3333333333333333 [-]
	 SCS Opposite-Spin Scale   =       1.2000000000000000 [-]
	 SCS Same-Spin Energy      =      -0.1882446928693126 [Eh]
	 SCS Opposite-Spin Energy  =      -2.0340253798191514 [Eh]
	 SCS Correlation Energy    =      -2.2222700726884641 [Eh]
	 SCS Total Energy          =    -874.3648527636963763 [Eh]
	-----------------------------------------------------------

  Dipole Moment: [D]
     X:     3.6508      Y:     2.5311      Z:     3.5710     Total:     5.6998

*** Psi4 exiting successfully. Buy a developer a beer!
