                               Psi4 1.3.2 release

  ==> Input File <==

--------------------------------------------------------------------------
#psi4
#
memory 32 gb

molecule  {
0 1
  S       -1.2780750    -0.4285550    -0.3473560
  O       -1.6230712     0.4071972    -1.4964273
  O       -1.5418650    -1.8618310    -0.2285910
  N       -1.9572890     0.2613030     1.0109670
  C        0.4825990    -0.1948140    -0.1956820
  C        1.2351140    -1.1400330     0.5076890
  C        1.0704270     0.9572020    -0.7248240
  C        2.6038020    -0.9271140     0.6719040
  C        2.4412730     1.1569670    -0.5509020
  C        3.2049670     0.2235900     0.1537530
  C       -1.7662690     1.6987010     1.2148980
  H        0.7580870    -2.0438460     0.8774600
  H        0.4673030     1.6551460    -1.2987640
  H       -1.7702480    -0.3190170     1.8277200
  H        3.2028270    -1.6614550     1.2045750
  H        2.9128080     2.0436310    -0.9672160
  H        4.2723800     0.3833040     0.2839750
  H       -2.3988760     2.0038020     2.0501250
  H       -2.1043290     2.2146560     0.3162530
  H       -0.7257680     1.9753910     1.4267290
units angstrom
no_reorient  #important for SAPT in psi4, default
symmetry c1  #important for SAPT in psi4, default
}

set PROPERTIES_ORIGIN ["COM"]
properties('MP2/aug-cc-pvtz', properties = ['dipole'])
--------------------------------------------------------------------------

    Molecular point group: c1
  Charge       = 0
  Multiplicity = 1
  Basis Set: AUG-CC-PVTZ
    Blend: AUG-CC-PVTZ
  Basis Set: (AUG-CC-PVTZ AUX)
    Blend: AUG-CC-PVTZ-JKFIT

    Orbital Energies [Eh]
    ---------------------

    Doubly Occupied:

       1A    -92.204485     2A    -20.551209     3A    -20.548817
       4A    -15.607208     5A    -11.278115     6A    -11.277453
       7A    -11.267485     8A    -11.267009     9A    -11.265252
      10A    -11.259631    11A    -11.259449    12A     -9.169235
      13A     -6.854409    14A     -6.853914    15A     -6.853608
      16A     -1.453842    17A     -1.341041    18A     -1.236492
      19A     -1.178960    20A     -1.054603    21A     -1.040999
      22A     -0.964165    23A     -0.891611    24A     -0.853030
      25A     -0.813688    26A     -0.749947    27A     -0.712683
      28A     -0.677555    29A     -0.673025    30A     -0.654095
      31A     -0.639644    32A     -0.622757    33A     -0.613604
      34A     -0.608928    35A     -0.567956    36A     -0.545544
      37A     -0.530943    38A     -0.520687    39A     -0.505497
      40A     -0.501141    41A     -0.477434    42A     -0.466889
      43A     -0.434783    44A     -0.365397    45A     -0.360414

  @DF-RHF Final Energy:  -872.15330540325078

   => Energetics <=

    Nuclear Repulsion Energy =            743.5765829060627539
    One-Electron Energy =               -2672.3105089931018483
    Two-Electron Energy =                1056.5806206837883110
    Total Energy =                       -872.1533054032506698
  Basis Set: (AUG-CC-PVTZ AUX)
    Blend: AUG-CC-PVTZ-RI
    Molecular point group: c1

    Geometry (in Angstrom), charge = 0, multiplicity = 1:

       Center              X                  Y                   Z               Mass
    ------------   -----------------  -----------------  -----------------  -----------------
         S           -1.260649334066    -0.395141039535    -0.313135536967    31.972071174400
         O           -1.605645534066     0.440611160465    -1.462206836967    15.994914619570
         O           -1.524439334066    -1.828417039535    -0.194370536967    15.994914619570
         N           -1.939863334066     0.294716960465     1.045187463033    14.003074004430
         C            0.500024665934    -0.161400039535    -0.161461536967    12.000000000000
         C            1.252539665934    -1.106619039535     0.541909463033    12.000000000000
         C            1.087852665934     0.990615960465    -0.690603536967    12.000000000000
         C            2.621227665934    -0.893700039535     0.706124463033    12.000000000000
         C            2.458698665934     1.190380960465    -0.516681536967    12.000000000000
         C            3.222392665934     0.257003960465     0.187973463033    12.000000000000
         C           -1.748843334066     1.732114960465     1.249118463033    12.000000000000
         H            0.775512665934    -2.010432039535     0.911680463033     1.007825032230
         H            0.484728665934     1.688559960465    -1.264543536967     1.007825032230
         H           -1.752822334066    -0.285603039535     1.861940463033     1.007825032230
         H            3.220252665934    -1.628041039535     1.238795463033     1.007825032230
         H            2.930233665934     2.077044960465    -0.932995536967     1.007825032230
         H            4.289805665934     0.416717960465     0.318195463033     1.007825032230
         H           -2.381450334066     2.037215960465     2.084345463033     1.007825032230
         H           -2.086903334066     2.248069960465     0.350473463033     1.007825032230
         H           -0.708342334066     2.008804960465     1.460949463033     1.007825032230

  Basis Set: AUG-CC-PVTZ
    Blend: AUG-CC-PVTZ
  Basis Set: (AUG-CC-PVTZ AUX)
    Blend: AUG-CC-PVTZ-JKFIT
	 Reference Energy          =    -872.1533054032507835 [Eh]
	 Singles Energy            =      -0.0000000000000000 [Eh]
	 Same-Spin Energy          =      -0.5648597935889093 [Eh]
	 Opposite-Spin Energy      =      -1.6950880098253953 [Eh]
	 Correlation Energy        =      -2.2599478034143043 [Eh]
	 Total Energy              =    -874.4132532066651038 [Eh]

	 ================> DF-SCS-MP2 Energies <==================
	-----------------------------------------------------------
	 SCS Same-Spin Scale       =       0.3333333333333333 [-]
	 SCS Opposite-Spin Scale   =       1.2000000000000000 [-]
	 SCS Same-Spin Energy      =      -0.1882865978629698 [Eh]
	 SCS Opposite-Spin Energy  =      -2.0341056117904741 [Eh]
	 SCS Correlation Energy    =      -2.2223922096534441 [Eh]
	 SCS Total Energy          =    -874.3756976129042187 [Eh]
	-----------------------------------------------------------

  Dipole Moment: [D]
     X:     3.3652      Y:     2.4532      Z:     3.5971     Total:     5.5028

*** Psi4 exiting successfully. Buy a developer a beer!
