                               Psi4 1.3.2 release

  ==> Input File <==

--------------------------------------------------------------------------
#psi4
#
memory 32 gb

molecule  {
0 1
  S       -1.2780750    -0.4285550    -0.3473560
  O       -1.6936081     0.3472196    -1.5149925
  O       -1.5418650    -1.8618310    -0.2285910
  N       -1.9572890     0.2613030     1.0109670
  C        0.4825990    -0.1948140    -0.1956820
  C        1.2351140    -1.1400330     0.5076890
  C        1.0704270     0.9572020    -0.7248240
  C        2.6038020    -0.9271140     0.6719040
  C        2.4412730     1.1569670    -0.5509020
  C        3.2049670     0.2235900     0.1537530
  C       -1.7662690     1.6987010     1.2148980
  H        0.7580870    -2.0438460     0.8774600
  H        0.4673030     1.6551460    -1.2987640
  H       -1.7702480    -0.3190170     1.8277200
  H        3.2028270    -1.6614550     1.2045750
  H        2.9128080     2.0436310    -0.9672160
  H        4.2723800     0.3833040     0.2839750
  H       -2.3988760     2.0038020     2.0501250
  H       -2.1043290     2.2146560     0.3162530
  H       -0.7257680     1.9753910     1.4267290
units angstrom
no_reorient  #important for SAPT in psi4, default
symmetry c1  #important for SAPT in psi4, default
}

set PROPERTIES_ORIGIN ["COM"]
properties('MP2/aug-cc-pvtz', properties = ['dipole'])
--------------------------------------------------------------------------

    Molecular point group: c1
  Charge       = 0
  Multiplicity = 1
  Basis Set: AUG-CC-PVTZ
    Blend: AUG-CC-PVTZ
  Basis Set: (AUG-CC-PVTZ AUX)
    Blend: AUG-CC-PVTZ-JKFIT

    Orbital Energies [Eh]
    ---------------------

    Doubly Occupied:

       1A    -92.203092     2A    -20.547758     3A    -20.545767
       4A    -15.606934     5A    -11.281629     6A    -11.278124
       7A    -11.269896     8A    -11.269820     9A    -11.267248
      10A    -11.261641    11A    -11.261504    12A     -9.167993
      13A     -6.853145    14A     -6.852597    15A     -6.852415
      16A     -1.451970    17A     -1.335674    18A     -1.236917
      19A     -1.181335    20A     -1.057276    21A     -1.043199
      22A     -0.964529    23A     -0.893663    24A     -0.855258
      25A     -0.814328    26A     -0.750150    27A     -0.712186
      28A     -0.677536    29A     -0.672981    30A     -0.655582
      31A     -0.641281    32A     -0.621265    33A     -0.615425
      34A     -0.608477    35A     -0.568850    36A     -0.547614
      37A     -0.532943    38A     -0.522792    39A     -0.503973
      40A     -0.497031    41A     -0.472878    42A     -0.467302
      43A     -0.436053    44A     -0.367601    45A     -0.362439

  @DF-RHF Final Energy:  -872.15537185008588

   => Energetics <=

    Nuclear Repulsion Energy =            742.7114553684259590
    One-Electron Energy =               -2670.5575175683334237
    Two-Electron Energy =                1055.6906903498215797
    Total Energy =                       -872.1553718500858849
  Basis Set: (AUG-CC-PVTZ AUX)
    Blend: AUG-CC-PVTZ-RI
    Molecular point group: c1

    Geometry (in Angstrom), charge = 0, multiplicity = 1:

       Center              X                  Y                   Z               Mass
    ------------   -----------------  -----------------  -----------------  -----------------
         S           -1.254052853484    -0.389532045182    -0.311399353759    31.972071174400
         O           -1.669585953484     0.386242554818    -1.479035853759    15.994914619570
         O           -1.517842853484    -1.822808045182    -0.192634353759    15.994914619570
         N           -1.933266853484     0.300325954818     1.046923646241    14.003074004430
         C            0.506621146516    -0.155791045182    -0.159725353759    12.000000000000
         C            1.259136146516    -1.101010045182     0.543645646241    12.000000000000
         C            1.094449146516     0.996224954818    -0.688867353759    12.000000000000
         C            2.627824146516    -0.888091045182     0.707860646241    12.000000000000
         C            2.465295146516     1.195989954818    -0.514945353759    12.000000000000
         C            3.228989146516     0.262612954818     0.189709646241    12.000000000000
         C           -1.742246853484     1.737723954818     1.250854646241    12.000000000000
         H            0.782109146516    -2.004823045182     0.913416646241     1.007825032230
         H            0.491325146516     1.694168954818    -1.262807353759     1.007825032230
         H           -1.746225853484    -0.279994045182     1.863676646241     1.007825032230
         H            3.226849146516    -1.622432045182     1.240531646241     1.007825032230
         H            2.936830146516     2.082653954818    -0.931259353759     1.007825032230
         H            4.296402146516     0.422326954818     0.319931646241     1.007825032230
         H           -2.374853853484     2.042824954818     2.086081646241     1.007825032230
         H           -2.080306853484     2.253678954818     0.352209646241     1.007825032230
         H           -0.701745853484     2.014413954818     1.462685646241     1.007825032230

  Basis Set: AUG-CC-PVTZ
    Blend: AUG-CC-PVTZ
  Basis Set: (AUG-CC-PVTZ AUX)
    Blend: AUG-CC-PVTZ-JKFIT
	 Reference Energy          =    -872.1553718500858849 [Eh]
	 Singles Energy            =      -0.0000000000000000 [Eh]
	 Same-Spin Energy          =      -0.5644678594284409 [Eh]
	 Opposite-Spin Energy      =      -1.6944473145167489 [Eh]
	 Correlation Energy        =      -2.2589151739451898 [Eh]
	 Total Energy              =    -874.4142870240310685 [Eh]

	 ================> DF-SCS-MP2 Energies <==================
	-----------------------------------------------------------
	 SCS Same-Spin Scale       =       0.3333333333333333 [-]
	 SCS Opposite-Spin Scale   =       1.2000000000000000 [-]
	 SCS Same-Spin Energy      =      -0.1881559531428136 [Eh]
	 SCS Opposite-Spin Energy  =      -2.0333367774200988 [Eh]
	 SCS Correlation Energy    =      -2.2214927305629124 [Eh]
	 SCS Total Energy          =    -874.3768645806487712 [Eh]
	-----------------------------------------------------------

  Dipole Moment: [D]
     X:     3.6167      Y:     2.5958      Z:     3.6589     Total:     5.7625

*** Psi4 exiting successfully. Buy a developer a beer!
