                               Psi4 1.3.2 release

  ==> Input File <==

--------------------------------------------------------------------------
#psi4
#
memory 32 gb

molecule  {
0 1
  S       -1.2780750    -0.4285550    -0.3473560
  O       -1.7200650     0.3779750    -1.4840280
  O       -1.5418650    -1.8618310    -0.2285910
  N       -1.9572890     0.2613030     1.0109670
  C        0.4825990    -0.1948140    -0.1956820
  C        1.2351140    -1.1400330     0.5076890
  C        1.0704270     0.9572020    -0.7248240
  C        2.6038020    -0.9271140     0.6719040
  C        2.4412730     1.1569670    -0.5509020
  C        3.2049670     0.2235900     0.1537530
  C       -1.7595636     1.6941441     1.2391346
  H        0.7580870    -2.0438460     0.8774600
  H        0.4673030     1.6551460    -1.2987640
  H       -1.7702480    -0.3190170     1.8277200
  H        3.2028270    -1.6614550     1.2045750
  H        2.9128080     2.0436310    -0.9672160
  H        4.2723800     0.3833040     0.2839750
  H       -2.3988760     2.0038020     2.0501250
  H       -2.1043290     2.2146560     0.3162530
  H       -0.7257680     1.9753910     1.4267290
units angstrom
no_reorient  #important for SAPT in psi4, default
symmetry c1  #important for SAPT in psi4, default
}

set PROPERTIES_ORIGIN ["COM"]
properties('MP2/aug-cc-pvtz', properties = ['dipole'])
--------------------------------------------------------------------------

    Molecular point group: c1
  Charge       = 0
  Multiplicity = 1
  Basis Set: AUG-CC-PVTZ
    Blend: AUG-CC-PVTZ
  Basis Set: (AUG-CC-PVTZ AUX)
    Blend: AUG-CC-PVTZ-JKFIT

    Orbital Energies [Eh]
    ---------------------

    Doubly Occupied:

       1A    -92.203402     2A    -20.547662     3A    -20.547295
       4A    -15.604335     5A    -11.282771     6A    -11.276238
       7A    -11.270752     8A    -11.270621     9A    -11.267991
      10A    -11.262285    11A    -11.262136    12A     -9.168236
      13A     -6.853417    14A     -6.852858    15A     -6.852637
      16A     -1.452228    17A     -1.336994    18A     -1.234347
      19A     -1.182104    20A     -1.058096    21A     -1.043907
      22A     -0.963258    23A     -0.893640    24A     -0.855962
      25A     -0.813607    26A     -0.749843    27A     -0.712392
      28A     -0.678026    29A     -0.672898    30A     -0.656038
      31A     -0.641916    32A     -0.621898    33A     -0.616126
      34A     -0.609927    35A     -0.560739    36A     -0.548216
      37A     -0.533106    38A     -0.523460    39A     -0.503746
      40A     -0.498072    41A     -0.473992    42A     -0.466776
      43A     -0.436231    44A     -0.368322    45A     -0.363104

  @DF-RHF Final Energy:  -872.15465289228030

   => Energetics <=

    Nuclear Repulsion Energy =            742.6661066686184540
    One-Electron Energy =               -2670.4582985219244620
    Two-Electron Energy =                1055.6375389610257116
    Total Energy =                       -872.1546528922804100
  Basis Set: (AUG-CC-PVTZ AUX)
    Blend: AUG-CC-PVTZ-RI
    Molecular point group: c1

    Geometry (in Angstrom), charge = 0, multiplicity = 1:

       Center              X                  Y                   Z               Mass
    ------------   -----------------  -----------------  -----------------  -----------------
         S           -1.252049110065    -0.392088517105    -0.315995558609    31.972071174400
         O           -1.694039110065     0.414441482895    -1.452667558609    15.994914619570
         O           -1.515839110065    -1.825364517105    -0.197230558609    15.994914619570
         N           -1.931263110065     0.297769482895     1.042327441391    14.003074004430
         C            0.508624889935    -0.158347517105    -0.164321558609    12.000000000000
         C            1.261139889935    -1.103566517105     0.539049441391    12.000000000000
         C            1.096452889935     0.993668482895    -0.693463558609    12.000000000000
         C            2.629827889935    -0.890647517105     0.703264441391    12.000000000000
         C            2.467298889935     1.193433482895    -0.519541558609    12.000000000000
         C            3.230992889935     0.260056482895     0.185113441391    12.000000000000
         C           -1.733537710065     1.730610582895     1.270495041391    12.000000000000
         H            0.784112889935    -2.007379517105     0.908820441391     1.007825032230
         H            0.493328889935     1.691612482895    -1.267403558609     1.007825032230
         H           -1.744222110065    -0.282550517105     1.859080441391     1.007825032230
         H            3.228852889935    -1.624988517105     1.235935441391     1.007825032230
         H            2.938833889935     2.080097482895    -0.935855558609     1.007825032230
         H            4.298405889935     0.419770482895     0.315335441391     1.007825032230
         H           -2.372850110065     2.040268482895     2.081485441391     1.007825032230
         H           -2.078303110065     2.251122482895     0.347613441391     1.007825032230
         H           -0.699742110065     2.011857482895     1.458089441391     1.007825032230

  Basis Set: AUG-CC-PVTZ
    Blend: AUG-CC-PVTZ
  Basis Set: (AUG-CC-PVTZ AUX)
    Blend: AUG-CC-PVTZ-JKFIT
	 Reference Energy          =    -872.1546528922802963 [Eh]
	 Singles Energy            =      -0.0000000000000000 [Eh]
	 Same-Spin Energy          =      -0.5645852226429238 [Eh]
	 Opposite-Spin Energy      =      -1.6946644644484778 [Eh]
	 Correlation Energy        =      -2.2592496870914016 [Eh]
	 Total Energy              =    -874.4139025793716655 [Eh]

	 ================> DF-SCS-MP2 Energies <==================
	-----------------------------------------------------------
	 SCS Same-Spin Scale       =       0.3333333333333333 [-]
	 SCS Opposite-Spin Scale   =       1.2000000000000000 [-]
	 SCS Same-Spin Energy      =      -0.1881950742143079 [Eh]
	 SCS Opposite-Spin Energy  =      -2.0335973573381732 [Eh]
	 SCS Correlation Energy    =      -2.2217924315524811 [Eh]
	 SCS Total Energy          =    -874.3764453238327405 [Eh]
	-----------------------------------------------------------

  Dipole Moment: [D]
     X:     3.7252      Y:     2.5004      Z:     3.5881     Total:     5.7449

*** Psi4 exiting successfully. Buy a developer a beer!
