                               Psi4 1.3.2 release

  ==> Input File <==

--------------------------------------------------------------------------
#psi4
#
memory 32 gb

molecule  {
0 1
  S       -1.2780750    -0.4285550    -0.3473560
  O       -1.6986387     0.4188395    -1.4622182
  O       -1.5418650    -1.8618310    -0.2285910
  N       -1.9572890     0.2613030     1.0109670
  C        0.4825990    -0.1948140    -0.1956820
  C        1.2351140    -1.1400330     0.5076890
  C        1.0704270     0.9572020    -0.7248240
  C        2.6038020    -0.9271140     0.6719040
  C        2.4412730     1.1569670    -0.5509020
  C        3.2049670     0.2235900     0.1537530
  C       -1.7662690     1.6987010     1.2148980
  H        0.7580870    -2.0438460     0.8774600
  H        0.4673030     1.6551460    -1.2987640
  H       -1.7702480    -0.3190170     1.8277200
  H        3.2028270    -1.6614550     1.2045750
  H        2.9128080     2.0436310    -0.9672160
  H        4.2723800     0.3833040     0.2839750
  H       -2.3988760     2.0038020     2.0501250
  H       -2.1043290     2.2146560     0.3162530
  H       -0.7257680     1.9753910     1.4267290
units angstrom
no_reorient  #important for SAPT in psi4, default
symmetry c1  #important for SAPT in psi4, default
}

set PROPERTIES_ORIGIN ["COM"]
properties('MP2/aug-cc-pvtz', properties = ['dipole'])
--------------------------------------------------------------------------

    Molecular point group: c1
  Charge       = 0
  Multiplicity = 1
  Basis Set: AUG-CC-PVTZ
    Blend: AUG-CC-PVTZ
  Basis Set: (AUG-CC-PVTZ AUX)
    Blend: AUG-CC-PVTZ-JKFIT

    Orbital Energies [Eh]
    ---------------------

    Doubly Occupied:

       1A    -92.203625     2A    -20.550478     3A    -20.547563
       4A    -15.603458     5A    -11.281492     6A    -11.275313
       7A    -11.269924     8A    -11.269562     9A    -11.267280
      10A    -11.261516    11A    -11.261323    12A     -9.168429
      13A     -6.853619    14A     -6.853078    15A     -6.852808
      16A     -1.453089    17A     -1.339875    18A     -1.232994
      19A     -1.181220    20A     -1.057080    21A     -1.043079
      22A     -0.962273    23A     -0.892864    24A     -0.855114
      25A     -0.813225    26A     -0.749951    27A     -0.712665
      28A     -0.677615    29A     -0.672137    30A     -0.655109
      31A     -0.641217    32A     -0.622045    33A     -0.615416
      34A     -0.607217    35A     -0.565583    36A     -0.547486
      37A     -0.532501    38A     -0.522661    39A     -0.503647
      40A     -0.500277    41A     -0.476335    42A     -0.465984
      43A     -0.434532    44A     -0.367496    45A     -0.362294

  @DF-RHF Final Energy:  -872.15460729685174

   => Energetics <=

    Nuclear Repulsion Energy =            743.2373370680265907
    One-Electron Energy =               -2671.6189894448293671
    Two-Electron Energy =                1056.2270450799510400
    Total Energy =                       -872.1546072968517365
  Basis Set: (AUG-CC-PVTZ AUX)
    Blend: AUG-CC-PVTZ-RI
    Molecular point group: c1

    Geometry (in Angstrom), charge = 0, multiplicity = 1:

       Center              X                  Y                   Z               Mass
    ------------   -----------------  -----------------  -----------------  -----------------
         S           -1.253582401065    -0.396229805924    -0.316334708803    31.972071174400
         O           -1.674146101065     0.451164694076    -1.431196908803    15.994914619570
         O           -1.517372401065    -1.829505805924    -0.197569708803    15.994914619570
         N           -1.932796401065     0.293628194076     1.041988291197    14.003074004430
         C            0.507091598935    -0.162488805924    -0.164660708803    12.000000000000
         C            1.259606598935    -1.107707805924     0.538710291197    12.000000000000
         C            1.094919598935     0.989527194076    -0.693802708803    12.000000000000
         C            2.628294598935    -0.894788805924     0.702925291197    12.000000000000
         C            2.465765598935     1.189292194076    -0.519880708803    12.000000000000
         C            3.229459598935     0.255915194076     0.184774291197    12.000000000000
         C           -1.741776401065     1.731026194076     1.245919291197    12.000000000000
         H            0.782579598935    -2.011520805924     0.908481291197     1.007825032230
         H            0.491795598935     1.687471194076    -1.267742708803     1.007825032230
         H           -1.745755401065    -0.286691805924     1.858741291197     1.007825032230
         H            3.227319598935    -1.629129805924     1.235596291197     1.007825032230
         H            2.937300598935     2.075956194076    -0.936194708803     1.007825032230
         H            4.296872598935     0.415629194076     0.314996291197     1.007825032230
         H           -2.374383401065     2.036127194076     2.081146291197     1.007825032230
         H           -2.079836401065     2.246981194076     0.347274291197     1.007825032230
         H           -0.701275401065     2.007716194076     1.457750291197     1.007825032230

  Basis Set: AUG-CC-PVTZ
    Blend: AUG-CC-PVTZ
  Basis Set: (AUG-CC-PVTZ AUX)
    Blend: AUG-CC-PVTZ-JKFIT
	 Reference Energy          =    -872.1546072968517365 [Eh]
	 Singles Energy            =      -0.0000000000000000 [Eh]
	 Same-Spin Energy          =      -0.5647750618548206 [Eh]
	 Opposite-Spin Energy      =      -1.6949210206062397 [Eh]
	 Correlation Energy        =      -2.2596960824610601 [Eh]
	 Total Energy              =    -874.4143033793127415 [Eh]

	 ================> DF-SCS-MP2 Energies <==================
	-----------------------------------------------------------
	 SCS Same-Spin Scale       =       0.3333333333333333 [-]
	 SCS Opposite-Spin Scale   =       1.2000000000000000 [-]
	 SCS Same-Spin Energy      =      -0.1882583539516069 [Eh]
	 SCS Opposite-Spin Energy  =      -2.0339052247274876 [Eh]
	 SCS Correlation Energy    =      -2.2221635786790945 [Eh]
	 SCS Total Energy          =    -874.3767708755308377 [Eh]
	-----------------------------------------------------------

  Dipole Moment: [D]
     X:     3.6346      Y:     2.4099      Z:     3.5248     Total:     5.6074

*** Psi4 exiting successfully. Buy a developer a beer!
