                               Psi4 1.3.2 release

  ==> Input File <==

--------------------------------------------------------------------------
#psi4
#
memory 32 gb

molecule  {
0 1
  S       -1.2780750    -0.4285550    -0.3473560
  O       -1.6542757     0.4974228    -1.4145519
  O       -1.5418650    -1.8618310    -0.2285910
  N       -1.9572890     0.2613030     1.0109670
  C        0.4825990    -0.1948140    -0.1956820
  C        1.2351140    -1.1400330     0.5076890
  C        1.0704270     0.9572020    -0.7248240
  C        2.6038020    -0.9271140     0.6719040
  C        2.4412730     1.1569670    -0.5509020
  C        3.2049670     0.2235900     0.1537530
  C       -1.7662690     1.6987010     1.2148980
  H        0.7580870    -2.0438460     0.8774600
  H        0.4673030     1.6551460    -1.2987640
  H       -1.7702480    -0.3190170     1.8277200
  H        3.2028270    -1.6614550     1.2045750
  H        2.9128080     2.0436310    -0.9672160
  H        4.2723800     0.3833040     0.2839750
  H       -2.3988760     2.0038020     2.0501250
  H       -2.1043290     2.2146560     0.3162530
  H       -0.7257680     1.9753910     1.4267290
units angstrom
no_reorient  #important for SAPT in psi4, default
symmetry c1  #important for SAPT in psi4, default
}

set PROPERTIES_ORIGIN ["COM"]
properties('MP2/aug-cc-pvtz', properties = ['dipole'])
--------------------------------------------------------------------------

    Molecular point group: c1
  Charge       = 0
  Multiplicity = 1
  Basis Set: AUG-CC-PVTZ
    Blend: AUG-CC-PVTZ
  Basis Set: (AUG-CC-PVTZ AUX)
    Blend: AUG-CC-PVTZ-JKFIT

    Orbital Energies [Eh]
    ---------------------

    Doubly Occupied:

       1A    -92.204739     2A    -20.556542     3A    -20.547862
       4A    -15.601453     5A    -11.279173     6A    -11.273040
       7A    -11.268417     8A    -11.267545     9A    -11.266012
      10A    -11.260160    11A    -11.259845    12A     -9.169416
      13A     -6.854653    14A     -6.854118    15A     -6.853733
      16A     -1.455052    17A     -1.345520    18A     -1.230095
      19A     -1.179620    20A     -1.055237    21A     -1.041577
      22A     -0.960672    23A     -0.891016    24A     -0.853587
      25A     -0.812101    26A     -0.749783    27A     -0.713278
      28A     -0.677646    29A     -0.671719    30A     -0.653904
      31A     -0.640113    32A     -0.623815    33A     -0.614165
      34A     -0.606040    35A     -0.562919    36A     -0.546151
      37A     -0.530915    38A     -0.521217    39A     -0.504921
      40A     -0.503730    41A     -0.480524    42A     -0.464769
      43A     -0.432703    44A     -0.366038    45A     -0.360886

  @DF-RHF Final Energy:  -872.15086866776221

   => Energetics <=

    Nuclear Repulsion Energy =            744.1885079955879974
    One-Electron Energy =               -2673.5459153993733707
    Two-Electron Energy =                1057.2065387360232762
    Total Energy =                       -872.1508686677620972
  Basis Set: (AUG-CC-PVTZ AUX)
    Blend: AUG-CC-PVTZ-RI
    Molecular point group: c1

    Geometry (in Angstrom), charge = 0, multiplicity = 1:

       Center              X                  Y                   Z               Mass
    ------------   -----------------  -----------------  -----------------  -----------------
         S           -1.257731146872    -0.403578770970    -0.320792373123    31.972071174400
         O           -1.633931846872     0.522399029030    -1.387988273123    15.994914619570
         O           -1.521521146872    -1.836854770970    -0.202027373123    15.994914619570
         N           -1.936945146872     0.286279229030     1.037530626877    14.003074004430
         C            0.502942853128    -0.169837770970    -0.169118373123    12.000000000000
         C            1.255457853128    -1.115056770970     0.534252626877    12.000000000000
         C            1.090770853128     0.982178229030    -0.698260373123    12.000000000000
         C            2.624145853128    -0.902137770970     0.698467626877    12.000000000000
         C            2.461616853128     1.181943229030    -0.524338373123    12.000000000000
         C            3.225310853128     0.248566229030     0.180316626877    12.000000000000
         C           -1.745925146872     1.723677229030     1.241461626877    12.000000000000
         H            0.778430853128    -2.018869770970     0.904023626877     1.007825032230
         H            0.487646853128     1.680122229030    -1.272200373123     1.007825032230
         H           -1.749904146872    -0.294040770970     1.854283626877     1.007825032230
         H            3.223170853128    -1.636478770970     1.231138626877     1.007825032230
         H            2.933151853128     2.068607229030    -0.940652373123     1.007825032230
         H            4.292723853128     0.408280229030     0.310538626877     1.007825032230
         H           -2.378532146872     2.028778229030     2.076688626877     1.007825032230
         H           -2.083985146872     2.239632229030     0.342816626877     1.007825032230
         H           -0.705424146872     2.000367229030     1.453292626877     1.007825032230

  Basis Set: AUG-CC-PVTZ
    Blend: AUG-CC-PVTZ
  Basis Set: (AUG-CC-PVTZ AUX)
    Blend: AUG-CC-PVTZ-JKFIT
	 Reference Energy          =    -872.1508686677622109 [Eh]
	 Singles Energy            =      -0.0000000000000000 [Eh]
	 Same-Spin Energy          =      -0.5653192539179377 [Eh]
	 Opposite-Spin Energy      =      -1.6958350882056155 [Eh]
	 Correlation Energy        =      -2.2611543421235529 [Eh]
	 Total Energy              =    -874.4120230098857292 [Eh]

	 ================> DF-SCS-MP2 Energies <==================
	-----------------------------------------------------------
	 SCS Same-Spin Scale       =       0.3333333333333333 [-]
	 SCS Opposite-Spin Scale   =       1.2000000000000000 [-]
	 SCS Same-Spin Energy      =      -0.1884397513059792 [Eh]
	 SCS Opposite-Spin Energy  =      -2.0350021058467385 [Eh]
	 SCS Correlation Energy    =      -2.2234418571527179 [Eh]
	 SCS Total Energy          =    -874.3743105249149039 [Eh]
	-----------------------------------------------------------

  Dipole Moment: [D]
     X:     3.4810      Y:     2.2120      Z:     3.3929     Total:     5.3406

*** Psi4 exiting successfully. Buy a developer a beer!
