                               Psi4 1.4a3.dev225

  ==> Input File <==

--------------------------------------------------------------------------
#psi4
#
memory 32 gb

molecule  {
0 1
  S       -1.2780750    -0.4285550    -0.3473560
  O       -1.7200650     0.3779750    -1.4840280
  O       -1.5418650    -1.8618310    -0.2285910
  N       -1.9369291     0.2406240     0.9702503
  C        0.4825990    -0.1948140    -0.1956820
  C        1.2351140    -1.1400330     0.5076890
  C        1.0704270     0.9572020    -0.7248240
  C        2.6038020    -0.9271140     0.6719040
  C        2.4412730     1.1569670    -0.5509020
  C        3.2049670     0.2235900     0.1537530
  C       -1.7662690     1.6987010     1.2148980
  H        0.7580870    -2.0438460     0.8774600
  H        0.4673030     1.6551460    -1.2987640
  H       -1.7702480    -0.3190170     1.8277200
  H        3.2028270    -1.6614550     1.2045750
  H        2.9128080     2.0436310    -0.9672160
  H        4.2723800     0.3833040     0.2839750
  H       -2.3988760     2.0038020     2.0501250
  H       -2.1043290     2.2146560     0.3162530
  H       -0.7257680     1.9753910     1.4267290
units angstrom
no_reorient  #important for SAPT in psi4, default
symmetry c1  #important for SAPT in psi4, default
}

set PROPERTIES_ORIGIN ["COM"]
properties('MP2/aug-cc-pvtz', properties = ['dipole'])
--------------------------------------------------------------------------

    Molecular point group: c1
  Charge       = 0
  Multiplicity = 1
  Basis Set: AUG-CC-PVTZ
    Blend: AUG-CC-PVTZ
  Basis Set: (AUG-CC-PVTZ AUX)
    Blend: AUG-CC-PVTZ-JKFIT

    Orbital Energies [Eh]
    ---------------------

    Doubly Occupied:

       1A    -92.200886     2A    -20.544491     3A    -20.544216
       4A    -15.605992     5A    -11.281349     6A    -11.280504
       7A    -11.269042     8A    -11.268934     9A    -11.266500
      10A    -11.261114    11A    -11.260965    12A     -9.166098
      13A     -6.851479    14A     -6.850711    15A     -6.850529
      16A     -1.453593    17A     -1.335017    18A     -1.237501
      19A     -1.180599    20A     -1.056379    21A     -1.042538
      22A     -0.968676    23A     -0.891848    24A     -0.854584
      25A     -0.813517    26A     -0.752034    27A     -0.712404
      28A     -0.677966    29A     -0.671661    30A     -0.653462
      31A     -0.641086    32A     -0.619552    33A     -0.614791
      34A     -0.606330    35A     -0.566090    36A     -0.547237
      37A     -0.532876    38A     -0.522097    39A     -0.505023
      40A     -0.495524    41A     -0.471190    42A     -0.467164
      43A     -0.439783    44A     -0.366547    45A     -0.361906

  @DF-RHF Final Energy:  -872.15449579450797

   => Energetics <=

    Nuclear Repulsion Energy =            744.2705783303841827
    One-Electron Energy =               -2673.7265794287118297
    Two-Electron Energy =                1057.3015053038197948
    Total Energy =                       -872.1544957945079659
  Basis Set: (AUG-CC-PVTZ AUX)
    Blend: AUG-CC-PVTZ-RI
    Molecular point group: c1

    Geometry (in Angstrom), charge = 0, multiplicity = 1:

       Center              X                  Y                   Z               Mass
    ------------   -----------------  -----------------  -----------------  -----------------
         S           -1.253245566394    -0.390715194578    -0.310961523756    31.972071174400
         O           -1.695235566394     0.415814805422    -1.447633523756    15.994914619570
         O           -1.517035566394    -1.823991194578    -0.192196523756    15.994914619570
         N           -1.912099666394     0.278463805422     1.006644776244    14.003074004430
         C            0.507428433606    -0.156974194578    -0.159287523756    12.000000000000
         C            1.259943433606    -1.102193194578     0.544083476244    12.000000000000
         C            1.095256433606     0.995041805422    -0.688429523756    12.000000000000
         C            2.628631433606    -0.889274194578     0.708298476244    12.000000000000
         C            2.466102433606     1.194806805422    -0.514507523756    12.000000000000
         C            3.229796433606     0.261429805422     0.190147476244    12.000000000000
         C           -1.741439566394     1.736540805422     1.251292476244    12.000000000000
         H            0.782916433606    -2.006006194578     0.913854476244     1.007825032230
         H            0.492132433606     1.692985805422    -1.262369523756     1.007825032230
         H           -1.745418566394    -0.281177194578     1.864114476244     1.007825032230
         H            3.227656433606    -1.623615194578     1.240969476244     1.007825032230
         H            2.937637433606     2.081470805422    -0.930821523756     1.007825032230
         H            4.297209433606     0.421143805422     0.320369476244     1.007825032230
         H           -2.374046566394     2.041641805422     2.086519476244     1.007825032230
         H           -2.079499566394     2.252495805422     0.352647476244     1.007825032230
         H           -0.700938566394     2.013230805422     1.463123476244     1.007825032230

  Basis Set: AUG-CC-PVTZ
    Blend: AUG-CC-PVTZ
  Basis Set: (AUG-CC-PVTZ AUX)
    Blend: AUG-CC-PVTZ-JKFIT
	 Reference Energy          =    -872.1544957945079659 [Eh]
	 Singles Energy            =      -0.0000000000000000 [Eh]
	 Same-Spin Energy          =      -0.5644361759892351 [Eh]
	 Opposite-Spin Energy      =      -1.6939660103464207 [Eh]
	 Correlation Energy        =      -2.2584021863356556 [Eh]
	 Total Energy              =    -874.4128979808435815 [Eh]

	 ================> DF-SCS-MP2 Energies <==================
	-----------------------------------------------------------
	 SCS Same-Spin Scale       =       0.3333333333333333 [-]
	 SCS Opposite-Spin Scale   =       1.2000000000000000 [-]
	 SCS Same-Spin Energy      =      -0.1881453919964117 [Eh]
	 SCS Opposite-Spin Energy  =      -2.0327592124157046 [Eh]
	 SCS Correlation Energy    =      -2.2209046044121163 [Eh]
	 SCS Total Energy          =    -874.3754003989200783 [Eh]
	-----------------------------------------------------------

  Dipole Moment: [D]
     X:     3.5328      Y:     2.6398      Z:     3.7841     Total:     5.8111

*** Psi4 exiting successfully. Buy a developer a beer!
