                               Psi4 1.3.2 release

  ==> Input File <==

--------------------------------------------------------------------------
#psi4
#
memory 32 gb

molecule  {
0 1
  S       -1.2780750    -0.4285550    -0.3473560
  O       -1.5739141     0.4202896    -1.5005304
  O       -1.5418650    -1.8618310    -0.2285910
  N       -1.9572890     0.2613030     1.0109670
  C        0.4825990    -0.1948140    -0.1956820
  C        1.2351140    -1.1400330     0.5076890
  C        1.0704270     0.9572020    -0.7248240
  C        2.6038020    -0.9271140     0.6719040
  C        2.4412730     1.1569670    -0.5509020
  C        3.2049670     0.2235900     0.1537530
  C       -1.7662690     1.6987010     1.2148980
  H        0.7580870    -2.0438460     0.8774600
  H        0.4673030     1.6551460    -1.2987640
  H       -1.7702480    -0.3190170     1.8277200
  H        3.2028270    -1.6614550     1.2045750
  H        2.9128080     2.0436310    -0.9672160
  H        4.2723800     0.3833040     0.2839750
  H       -2.3988760     2.0038020     2.0501250
  H       -2.1043290     2.2146560     0.3162530
  H       -0.7257680     1.9753910     1.4267290
units angstrom
no_reorient  #important for SAPT in psi4, default
symmetry c1  #important for SAPT in psi4, default
}

set PROPERTIES_ORIGIN ["COM"]
properties('MP2/aug-cc-pvtz', properties = ['dipole'])
--------------------------------------------------------------------------

    Molecular point group: c1
  Charge       = 0
  Multiplicity = 1
  Basis Set: AUG-CC-PVTZ
    Blend: AUG-CC-PVTZ
  Basis Set: (AUG-CC-PVTZ AUX)
    Blend: AUG-CC-PVTZ-JKFIT

    Orbital Energies [Eh]
    ---------------------

    Doubly Occupied:

       1A    -92.205195     2A    -20.553123     3A    -20.549486
       4A    -15.608575     5A    -11.277994     6A    -11.275795
       7A    -11.265814     8A    -11.265154     9A    -11.263861
      10A    -11.258297    11A    -11.258094    12A     -9.169898
      13A     -6.855072    14A     -6.854612    15A     -6.854243
      16A     -1.454750    17A     -1.343064    18A     -1.237552
      19A     -1.177361    20A     -1.052830    21A     -1.039530
      22A     -0.964730    23A     -0.890518    24A     -0.851567
      25A     -0.813695    26A     -0.749826    27A     -0.712923
      28A     -0.677777    29A     -0.673106    30A     -0.653195
      31A     -0.638525    32A     -0.623525    33A     -0.612435
      34A     -0.609472    35A     -0.568533    36A     -0.544192
      37A     -0.529809    38A     -0.519313    39A     -0.506576
      40A     -0.502562    41A     -0.479040    42A     -0.466946
      43A     -0.434255    44A     -0.363882    45A     -0.359061

  @DF-RHF Final Energy:  -872.15109505459122

   => Energetics <=

    Nuclear Repulsion Energy =            744.0075022234889275
    One-Electron Energy =               -2673.1856639494026240
    Two-Electron Energy =                1057.0270666713224728
    Total Energy =                       -872.1510950545912237
  Basis Set: (AUG-CC-PVTZ AUX)
    Blend: AUG-CC-PVTZ-RI
    Molecular point group: c1

    Geometry (in Angstrom), charge = 0, multiplicity = 1:

       Center              X                  Y                   Z               Mass
    ------------   -----------------  -----------------  -----------------  -----------------
         S           -1.265246415248    -0.396365416597    -0.312751822634    31.972071174400
         O           -1.561085515248     0.452479183403    -1.465926222634    15.994914619570
         O           -1.529036415248    -1.829641416597    -0.193986822634    15.994914619570
         N           -1.944460415248     0.293492583403     1.045571177366    14.003074004430
         C            0.495427584752    -0.162624416597    -0.161077822634    12.000000000000
         C            1.247942584752    -1.107843416597     0.542293177366    12.000000000000
         C            1.083255584752     0.989391583403    -0.690219822634    12.000000000000
         C            2.616630584752    -0.894924416597     0.706508177366    12.000000000000
         C            2.454101584752     1.189156583403    -0.516297822634    12.000000000000
         C            3.217795584752     0.255779583403     0.188357177366    12.000000000000
         C           -1.753440415248     1.730890583403     1.249502177366    12.000000000000
         H            0.770915584752    -2.011656416597     0.912064177366     1.007825032230
         H            0.480131584752     1.687335583403    -1.264159822634     1.007825032230
         H           -1.757419415248    -0.286827416597     1.862324177366     1.007825032230
         H            3.215655584752    -1.629265416597     1.239179177366     1.007825032230
         H            2.925636584752     2.075820583403    -0.932611822634     1.007825032230
         H            4.285208584752     0.415493583403     0.318579177366     1.007825032230
         H           -2.386047415248     2.035991583403     2.084729177366     1.007825032230
         H           -2.091500415248     2.246845583403     0.350857177366     1.007825032230
         H           -0.712939415248     2.007580583403     1.461333177366     1.007825032230

  Basis Set: AUG-CC-PVTZ
    Blend: AUG-CC-PVTZ
  Basis Set: (AUG-CC-PVTZ AUX)
    Blend: AUG-CC-PVTZ-JKFIT
	 Reference Energy          =    -872.1510950545912237 [Eh]
	 Singles Energy            =      -0.0000000000000000 [Eh]
	 Same-Spin Energy          =      -0.5650692866475366 [Eh]
	 Opposite-Spin Energy      =      -1.6954585112917846 [Eh]
	 Correlation Energy        =      -2.2605277979393215 [Eh]
	 Total Energy              =    -874.4116228525305132 [Eh]

	 ================> DF-SCS-MP2 Energies <==================
	-----------------------------------------------------------
	 SCS Same-Spin Scale       =       0.3333333333333333 [-]
	 SCS Opposite-Spin Scale   =       1.2000000000000000 [-]
	 SCS Same-Spin Energy      =      -0.1883564288825122 [Eh]
	 SCS Opposite-Spin Energy  =      -2.0345502135501414 [Eh]
	 SCS Correlation Energy    =      -2.2229066424326538 [Eh]
	 SCS Total Energy          =    -874.3740016970239139 [Eh]
	-----------------------------------------------------------

  Dipole Moment: [D]
     X:     3.1875      Y:     2.4265      Z:     3.5973     Total:     5.3841

*** Psi4 exiting successfully. Buy a developer a beer!
