                               Psi4 1.4a3.dev225

  ==> Input File <==

--------------------------------------------------------------------------
#psi4
#
memory 32 gb

molecule  {
0 1
  S       -1.2780750    -0.4285550    -0.3473560
  O       -1.7261108     0.3890071    -1.4995760
  O       -1.5418650    -1.8618310    -0.2285910
  N       -1.9572890     0.2613030     1.0109670
  C        0.4825990    -0.1948140    -0.1956820
  C        1.2351140    -1.1400330     0.5076890
  C        1.0704270     0.9572020    -0.7248240
  C        2.6038020    -0.9271140     0.6719040
  C        2.4412730     1.1569670    -0.5509020
  C        3.2049670     0.2235900     0.1537530
  C       -1.7662690     1.6987010     1.2148980
  H        0.7580870    -2.0438460     0.8774600
  H        0.4673030     1.6551460    -1.2987640
  H       -1.7702480    -0.3190170     1.8277200
  H        3.2028270    -1.6614550     1.2045750
  H        2.9128080     2.0436310    -0.9672160
  H        4.2723800     0.3833040     0.2839750
  H       -2.3988760     2.0038020     2.0501250
  H       -2.1043290     2.2146560     0.3162530
  H       -0.7257680     1.9753910     1.4267290
units angstrom
no_reorient  #important for SAPT in psi4, default
symmetry c1  #important for SAPT in psi4, default
}

set PROPERTIES_ORIGIN ["COM"]
properties('MP2/aug-cc-pvtz', properties = ['dipole'])
--------------------------------------------------------------------------

    Molecular point group: c1
  Charge       = 0
  Multiplicity = 1
  Basis Set: AUG-CC-PVTZ
    Blend: AUG-CC-PVTZ
  Basis Set: (AUG-CC-PVTZ AUX)
    Blend: AUG-CC-PVTZ-JKFIT

    Orbital Energies [Eh]
    ---------------------

    Doubly Occupied:

       1A    -92.204646     2A    -20.548804     3A    -20.546868
       4A    -15.605645     5A    -11.283658     6A    -11.276681
       7A    -11.271341     8A    -11.270922     9A    -11.268355
      10A    -11.262602    11A    -11.262364    12A     -9.169278
      13A     -6.854446    14A     -6.853905    15A     -6.853539
      16A     -1.446678    17A     -1.331554    18A     -1.234782
      19A     -1.182490    20A     -1.058580    21A     -1.044241
      22A     -0.963814    23A     -0.894650    24A     -0.856316
      25A     -0.814624    26A     -0.749733    27A     -0.711801
      28A     -0.677292    29A     -0.671745    30A     -0.656155
      31A     -0.641853    32A     -0.619856    33A     -0.616310
      34A     -0.606860    35A     -0.566835    36A     -0.548017
      37A     -0.533722    38A     -0.523742    39A     -0.501068
      40A     -0.496169    41A     -0.471938    42A     -0.466190
      43A     -0.435972    44A     -0.368741    45A     -0.363375

  @DF-RHF Final Energy:  -872.15290252702539

   => Energetics <=

    Nuclear Repulsion Energy =            741.8247735399154408
    One-Electron Energy =               -2668.7790395136880761
    Two-Electron Energy =                1054.8013634467472457
    Total Energy =                       -872.1529025270253896
  Basis Set: (AUG-CC-PVTZ AUX)
    Blend: AUG-CC-PVTZ-RI
    Molecular point group: c1

    Geometry (in Angstrom), charge = 0, multiplicity = 1:

       Center              X                  Y                   Z               Mass
    ------------   -----------------  -----------------  -----------------  -----------------
         S           -1.251013261024    -0.393439934987    -0.312841076359    31.972071174400
         O           -1.699049061024     0.424122165013    -1.465061076359    15.994914619570
         O           -1.514803261024    -1.826715934987    -0.194076076359    15.994914619570
         N           -1.930227261024     0.296418065013     1.045481923641    14.003074004430
         C            0.509660738976    -0.159698934987    -0.161167076359    12.000000000000
         C            1.262175738976    -1.104917934987     0.542203923641    12.000000000000
         C            1.097488738976     0.992317065013    -0.690309076359    12.000000000000
         C            2.630863738976    -0.891998934987     0.706418923641    12.000000000000
         C            2.468334738976     1.192082065013    -0.516387076359    12.000000000000
         C            3.232028738976     0.258705065013     0.188267923641    12.000000000000
         C           -1.739207261024     1.733816065013     1.249412923641    12.000000000000
         H            0.785148738976    -2.008730934987     0.911974923641     1.007825032230
         H            0.494364738976     1.690261065013    -1.264249076359     1.007825032230
         H           -1.743186261024    -0.283901934987     1.862234923641     1.007825032230
         H            3.229888738976    -1.626339934987     1.239089923641     1.007825032230
         H            2.939869738976     2.078746065013    -0.932701076359     1.007825032230
         H            4.299441738976     0.418419065013     0.318489923641     1.007825032230
         H           -2.371814261024     2.038917065013     2.084639923641     1.007825032230
         H           -2.077267261024     2.249771065013     0.350767923641     1.007825032230
         H           -0.698706261024     2.010506065013     1.461243923641     1.007825032230

  Basis Set: AUG-CC-PVTZ
    Blend: AUG-CC-PVTZ
  Basis Set: (AUG-CC-PVTZ AUX)
    Blend: AUG-CC-PVTZ-JKFIT
	 Reference Energy          =    -872.1529025270253896 [Eh]
	 Singles Energy            =      -0.0000000000000000 [Eh]
	 Same-Spin Energy          =      -0.5649629316363838 [Eh]
	 Opposite-Spin Energy      =      -1.6956073780459588 [Eh]
	 Correlation Energy        =      -2.2605703096823424 [Eh]
	 Total Energy              =    -874.4134728367076832 [Eh]

	 ================> DF-SCS-MP2 Energies <==================
	-----------------------------------------------------------
	 SCS Same-Spin Scale       =       0.3333333333333333 [-]
	 SCS Opposite-Spin Scale   =       1.2000000000000000 [-]
	 SCS Same-Spin Energy      =      -0.1883209772121279 [Eh]
	 SCS Opposite-Spin Energy  =      -2.0347288536551504 [Eh]
	 SCS Correlation Energy    =      -2.2230498308672781 [Eh]
	 SCS Total Energy          =    -874.3759523578926292 [Eh]
	-----------------------------------------------------------

  Dipole Moment: [D]
     X:     3.7595      Y:     2.4714      Z:     3.6660     Total:     5.8036

*** Psi4 exiting successfully. Buy a developer a beer!
