                               Psi4 1.3.2 release

  ==> Input File <==

--------------------------------------------------------------------------
#psi4
#
memory 32 gb

molecule  {
0 1
  S       -1.2780750    -0.4285550    -0.3473560
  O       -1.7200650     0.3779750    -1.4840280
  O       -1.5418650    -1.8618310    -0.2285910
  N       -1.9980089     0.3026610     1.0924005
  C        0.4825990    -0.1948140    -0.1956820
  C        1.2351140    -1.1400330     0.5076890
  C        1.0704270     0.9572020    -0.7248240
  C        2.6038020    -0.9271140     0.6719040
  C        2.4412730     1.1569670    -0.5509020
  C        3.2049670     0.2235900     0.1537530
  C       -1.7662690     1.6987010     1.2148980
  H        0.7580870    -2.0438460     0.8774600
  H        0.4673030     1.6551460    -1.2987640
  H       -1.7702480    -0.3190170     1.8277200
  H        3.2028270    -1.6614550     1.2045750
  H        2.9128080     2.0436310    -0.9672160
  H        4.2723800     0.3833040     0.2839750
  H       -2.3988760     2.0038020     2.0501250
  H       -2.1043290     2.2146560     0.3162530
  H       -0.7257680     1.9753910     1.4267290
units angstrom
no_reorient  #important for SAPT in psi4, default
symmetry c1  #important for SAPT in psi4, default
}

set PROPERTIES_ORIGIN ["COM"]
properties('MP2/aug-cc-pvtz', properties = ['dipole'])
--------------------------------------------------------------------------

    Molecular point group: c1
  Charge       = 0
  Multiplicity = 1
  Basis Set: AUG-CC-PVTZ
    Blend: AUG-CC-PVTZ
  Basis Set: (AUG-CC-PVTZ AUX)
    Blend: AUG-CC-PVTZ-JKFIT

    Orbital Energies [Eh]
    ---------------------

    Doubly Occupied:

       1A    -92.204241     2A    -20.551989     3A    -20.551595
       4A    -15.602320     5A    -11.286071     6A    -11.273327
       7A    -11.273157     8A    -11.270234     9A    -11.268810
      10A    -11.263938    11A    -11.263771    12A     -9.169131
      13A     -6.853963    14A     -6.853657    15A     -6.853400
      16A     -1.450138    17A     -1.339562    18A     -1.232165
      19A     -1.184354    20A     -1.060541    21A     -1.045898
      22A     -0.954031    23A     -0.897289    24A     -0.857957
      25A     -0.813895    26A     -0.746021    27A     -0.710566
      28A     -0.678214    29A     -0.674814    30A     -0.660460
      31A     -0.642853    32A     -0.625219    33A     -0.617990
      34A     -0.609740    35A     -0.569498    36A     -0.549829
      37A     -0.533916    38A     -0.525438    39A     -0.501880
      40A     -0.497538    41A     -0.477746    42A     -0.462375
      43A     -0.426141    44A     -0.371021    45A     -0.364708

  @DF-RHF Final Energy:  -872.14494894597078

   => Energetics <=

    Nuclear Repulsion Energy =            740.0466820536960313
    One-Electron Energy =               -2665.1404582699287857
    Two-Electron Energy =                1052.9488272702619724
    Total Energy =                       -872.1449489459707820
  Basis Set: (AUG-CC-PVTZ AUX)
    Blend: AUG-CC-PVTZ-RI
    Molecular point group: c1

    Geometry (in Angstrom), charge = 0, multiplicity = 1:

       Center              X                  Y                   Z               Mass
    ------------   -----------------  -----------------  -----------------  -----------------
         S           -1.248244818239    -0.395794310968    -0.320962250466    31.972071174400
         O           -1.690234818239     0.410735689032    -1.457634250466    15.994914619570
         O           -1.512034818239    -1.829070310968    -0.202197250466    15.994914619570
         N           -1.968178718239     0.335421689032     1.118794249534    14.003074004430
         C            0.512429181761    -0.162053310968    -0.169288250466    12.000000000000
         C            1.264944181761    -1.107272310968     0.534082749534    12.000000000000
         C            1.100257181761     0.989962689032    -0.698430250466    12.000000000000
         C            2.633632181761    -0.894353310968     0.698297749534    12.000000000000
         C            2.471103181761     1.189727689032    -0.524508250466    12.000000000000
         C            3.234797181761     0.256350689032     0.180146749534    12.000000000000
         C           -1.736438818239     1.731461689032     1.241291749534    12.000000000000
         H            0.787917181761    -2.011085310968     0.903853749534     1.007825032230
         H            0.497133181761     1.687906689032    -1.272370250466     1.007825032230
         H           -1.740417818239    -0.286256310968     1.854113749534     1.007825032230
         H            3.232657181761    -1.628694310968     1.230968749534     1.007825032230
         H            2.942638181761     2.076391689032    -0.940822250466     1.007825032230
         H            4.302210181761     0.416064689032     0.310368749534     1.007825032230
         H           -2.369045818239     2.036562689032     2.076518749534     1.007825032230
         H           -2.074498818239     2.247416689032     0.342646749534     1.007825032230
         H           -0.695937818239     2.008151689032     1.453122749534     1.007825032230

  Basis Set: AUG-CC-PVTZ
    Blend: AUG-CC-PVTZ
  Basis Set: (AUG-CC-PVTZ AUX)
    Blend: AUG-CC-PVTZ-JKFIT
	 Reference Energy          =    -872.1449489459707820 [Eh]
	 Singles Energy            =      -0.0000000000000000 [Eh]
	 Same-Spin Energy          =      -0.5652315179434462 [Eh]
	 Opposite-Spin Energy      =      -1.6965911840561572 [Eh]
	 Correlation Energy        =      -2.2618227019996033 [Eh]
	 Total Energy              =    -874.4067716479703449 [Eh]

	 ================> DF-SCS-MP2 Energies <==================
	-----------------------------------------------------------
	 SCS Same-Spin Scale       =       0.3333333333333333 [-]
	 SCS Opposite-Spin Scale   =       1.2000000000000000 [-]
	 SCS Same-Spin Energy      =      -0.1884105059811487 [Eh]
	 SCS Opposite-Spin Energy  =      -2.0359094208673887 [Eh]
	 SCS Correlation Energy    =      -2.2243199268485374 [Eh]
	 SCS Total Energy          =    -874.3692688728193616 [Eh]
	-----------------------------------------------------------

  Dipole Moment: [D]
     X:     4.0294      Y:     2.2938      Z:     3.2339     Total:     5.6530

*** Psi4 exiting successfully. Buy a developer a beer!
