                               Psi4 1.4a3.dev225

  ==> Input File <==

--------------------------------------------------------------------------
#psi4
#
memory 32 gb

molecule  {
0 1
  S       -1.2780750    -0.4285550    -0.3473560
  O       -1.7200650     0.3779750    -1.4840280
  O       -1.5418650    -1.8618310    -0.2285910
  N       -1.9572890     0.2613030     1.0109670
  C        0.4628448    -0.1974365    -0.1973837
  C        1.2351140    -1.1400330     0.5076890
  C        1.0704270     0.9572020    -0.7248240
  C        2.6038020    -0.9271140     0.6719040
  C        2.4412730     1.1569670    -0.5509020
  C        3.2049670     0.2235900     0.1537530
  C       -1.7662690     1.6987010     1.2148980
  H        0.7580870    -2.0438460     0.8774600
  H        0.4673030     1.6551460    -1.2987640
  H       -1.7702480    -0.3190170     1.8277200
  H        3.2028270    -1.6614550     1.2045750
  H        2.9128080     2.0436310    -0.9672160
  H        4.2723800     0.3833040     0.2839750
  H       -2.3988760     2.0038020     2.0501250
  H       -2.1043290     2.2146560     0.3162530
  H       -0.7257680     1.9753910     1.4267290
units angstrom
no_reorient  #important for SAPT in psi4, default
symmetry c1  #important for SAPT in psi4, default
}

set PROPERTIES_ORIGIN ["COM"]
properties('MP2/aug-cc-pvtz', properties = ['dipole'])
--------------------------------------------------------------------------

    Molecular point group: c1
  Charge       = 0
  Multiplicity = 1
  Basis Set: AUG-CC-PVTZ
    Blend: AUG-CC-PVTZ
  Basis Set: (AUG-CC-PVTZ AUX)
    Blend: AUG-CC-PVTZ-JKFIT

    Orbital Energies [Eh]
    ---------------------

    Doubly Occupied:

       1A    -92.203201     2A    -20.547136     3A    -20.547084
       4A    -15.604203     5A    -11.282834     6A    -11.276289
       7A    -11.272458     8A    -11.272357     9A    -11.268951
      10A    -11.262273    11A    -11.262137    12A     -9.168203
      13A     -6.853379    14A     -6.852880    15A     -6.852612
      16A     -1.452677    17A     -1.336951    18A     -1.234361
      19A     -1.180246    20A     -1.058996    21A     -1.042937
      22A     -0.963293    23A     -0.896550    24A     -0.854736
      25A     -0.813446    26A     -0.750193    27A     -0.712765
      28A     -0.678716    29A     -0.672636    30A     -0.655279
      31A     -0.641478    32A     -0.621142    33A     -0.614880
      34A     -0.607505    35A     -0.566858    36A     -0.548524
      37A     -0.531960    38A     -0.521476    39A     -0.503659
      40A     -0.497825    41A     -0.473821    42A     -0.467865
      43A     -0.436876    44A     -0.367444    45A     -0.362835

  @DF-RHF Final Energy:  -872.15476982086682

   => Energetics <=

    Nuclear Repulsion Energy =            742.9622271880822382
    One-Electron Energy =               -2671.0461361284014856
    Two-Electron Energy =                1055.9291391194524294
    Total Energy =                       -872.1547698208669317
  Basis Set: (AUG-CC-PVTZ AUX)
    Blend: AUG-CC-PVTZ-RI
    Molecular point group: c1

    Geometry (in Angstrom), charge = 0, multiplicity = 1:

       Center              X                  Y                   Z               Mass
    ------------   -----------------  -----------------  -----------------  -----------------
         S           -1.250192680340    -0.392224236377    -0.314175703769    31.972071174400
         O           -1.692182680340     0.414305763623    -1.450847703769    15.994914619570
         O           -1.513982680340    -1.825500236377    -0.195410703769    15.994914619570
         N           -1.929406680340     0.297633763623     1.044147296231    14.003074004430
         C            0.490727119660    -0.161105736377    -0.164203403769    12.000000000000
         C            1.262996319660    -1.103702236377     0.540869296231    12.000000000000
         C            1.098309319660     0.993532763623    -0.691643703769    12.000000000000
         C            2.631684319660    -0.890783236377     0.705084296231    12.000000000000
         C            2.469155319660     1.193297763623    -0.517721703769    12.000000000000
         C            3.232849319660     0.259920763623     0.186933296231    12.000000000000
         C           -1.738386680340     1.735031763623     1.248078296231    12.000000000000
         H            0.785969319660    -2.007515236377     0.910640296231     1.007825032230
         H            0.495185319660     1.691476763623    -1.265583703769     1.007825032230
         H           -1.742365680340    -0.282686236377     1.860900296231     1.007825032230
         H            3.230709319660    -1.625124236377     1.237755296231     1.007825032230
         H            2.940690319660     2.079961763623    -0.934035703769     1.007825032230
         H            4.300262319660     0.419634763623     0.317155296231     1.007825032230
         H           -2.370993680340     2.040132763623     2.083305296231     1.007825032230
         H           -2.076446680340     2.250986763623     0.349433296231     1.007825032230
         H           -0.697885680340     2.011721763623     1.459909296231     1.007825032230

  Basis Set: AUG-CC-PVTZ
    Blend: AUG-CC-PVTZ
  Basis Set: (AUG-CC-PVTZ AUX)
    Blend: AUG-CC-PVTZ-JKFIT
	 Reference Energy          =    -872.1547698208668180 [Eh]
	 Singles Energy            =      -0.0000000000000000 [Eh]
	 Same-Spin Energy          =      -0.5646140570163729 [Eh]
	 Opposite-Spin Energy      =      -1.6947009482015796 [Eh]
	 Correlation Energy        =      -2.2593150052179523 [Eh]
	 Total Energy              =    -874.4140848260847179 [Eh]

	 ================> DF-SCS-MP2 Energies <==================
	-----------------------------------------------------------
	 SCS Same-Spin Scale       =       0.3333333333333333 [-]
	 SCS Opposite-Spin Scale   =       1.2000000000000000 [-]
	 SCS Same-Spin Energy      =      -0.1882046856721243 [Eh]
	 SCS Opposite-Spin Energy  =      -2.0336411378418955 [Eh]
	 SCS Correlation Energy    =      -2.2218458235140197 [Eh]
	 SCS Total Energy          =    -874.3766156443808768 [Eh]
	-----------------------------------------------------------

  Dipole Moment: [D]
     X:     3.7430      Y:     2.5167      Z:     3.5897     Total:     5.7645

*** Psi4 exiting successfully. Buy a developer a beer!
