                               Psi4 1.4a3.dev225

  ==> Input File <==

--------------------------------------------------------------------------
#psi4
#
memory 32 gb

molecule  {
0 1
  S       -1.2780750    -0.4285550    -0.3473560
  O       -1.7351794     0.4055554    -1.5228980
  O       -1.5418650    -1.8618310    -0.2285910
  N       -1.9572890     0.2613030     1.0109670
  C        0.4825990    -0.1948140    -0.1956820
  C        1.2351140    -1.1400330     0.5076890
  C        1.0704270     0.9572020    -0.7248240
  C        2.6038020    -0.9271140     0.6719040
  C        2.4412730     1.1569670    -0.5509020
  C        3.2049670     0.2235900     0.1537530
  C       -1.7662690     1.6987010     1.2148980
  H        0.7580870    -2.0438460     0.8774600
  H        0.4673030     1.6551460    -1.2987640
  H       -1.7702480    -0.3190170     1.8277200
  H        3.2028270    -1.6614550     1.2045750
  H        2.9128080     2.0436310    -0.9672160
  H        4.2723800     0.3833040     0.2839750
  H       -2.3988760     2.0038020     2.0501250
  H       -2.1043290     2.2146560     0.3162530
  H       -0.7257680     1.9753910     1.4267290
units angstrom
no_reorient  #important for SAPT in psi4, default
symmetry c1  #important for SAPT in psi4, default
}

set PROPERTIES_ORIGIN ["COM"]
properties('MP2/aug-cc-pvtz', properties = ['dipole'])
--------------------------------------------------------------------------

    Molecular point group: c1
  Charge       = 0
  Multiplicity = 1
  Basis Set: AUG-CC-PVTZ
    Blend: AUG-CC-PVTZ
  Basis Set: (AUG-CC-PVTZ AUX)
    Blend: AUG-CC-PVTZ-JKFIT

    Orbital Energies [Eh]
    ---------------------

    Doubly Occupied:

       1A    -92.206644     2A    -20.550910     3A    -20.546316
       4A    -15.607378     5A    -11.285103     6A    -11.277083
       7A    -11.272333     8A    -11.271481     9A    -11.269018
      10A    -11.263234    11A    -11.262833    12A     -9.171067
      13A     -6.856212    14A     -6.855686    15A     -6.855121
      16A     -1.440219    17A     -1.322625    18A     -1.235229
      19A     -1.183199    20A     -1.059467    21A     -1.044870
      22A     -0.964898    23A     -0.895972    24A     -0.856981
      25A     -0.815862    26A     -0.749383    27A     -0.711135
      28A     -0.677123    29A     -0.670897    30A     -0.656800
      31A     -0.642052    32A     -0.618319    33A     -0.616411
      34A     -0.605673    35A     -0.566845    36A     -0.547918
      37A     -0.534356    38A     -0.524306    39A     -0.498270
      40A     -0.493458    41A     -0.468891    42A     -0.465142
      43A     -0.436785    44A     -0.369506    45A     -0.363957

  @DF-RHF Final Energy:  -872.14779181495112

   => Energetics <=

    Nuclear Repulsion Energy =            740.3946218514464590
    One-Electron Energy =               -2665.9108902157695411
    Two-Electron Energy =                1053.3684765493719624
    Total Energy =                       -872.1477918149510060
  Basis Set: (AUG-CC-PVTZ AUX)
    Blend: AUG-CC-PVTZ-RI
    Molecular point group: c1

    Geometry (in Angstrom), charge = 0, multiplicity = 1:

       Center              X                  Y                   Z               Mass
    ------------   -----------------  -----------------  -----------------  -----------------
         S           -1.250165182305    -0.394987501432    -0.310660046003    31.972071174400
         O           -1.707269582305     0.439122898568    -1.486202046003    15.994914619570
         O           -1.513955182305    -1.828263501432    -0.191895046003    15.994914619570
         N           -1.929379182305     0.294870498568     1.047662953997    14.003074004430
         C            0.510508817695    -0.161246501432    -0.158986046003    12.000000000000
         C            1.263023817695    -1.106465501432     0.544384953997    12.000000000000
         C            1.098336817695     0.990769498568    -0.688128046003    12.000000000000
         C            2.631711817695    -0.893546501432     0.708599953997    12.000000000000
         C            2.469182817695     1.190534498568    -0.514206046003    12.000000000000
         C            3.232876817695     0.257157498568     0.190448953997    12.000000000000
         C           -1.738359182305     1.732268498568     1.251593953997    12.000000000000
         H            0.785996817695    -2.010278501432     0.914155953997     1.007825032230
         H            0.495212817695     1.688713498568    -1.262068046003     1.007825032230
         H           -1.742338182305    -0.285449501432     1.864415953997     1.007825032230
         H            3.230736817695    -1.627887501432     1.241270953997     1.007825032230
         H            2.940717817695     2.077198498568    -0.930520046003     1.007825032230
         H            4.300289817695     0.416871498568     0.320670953997     1.007825032230
         H           -2.370966182305     2.037369498568     2.086820953997     1.007825032230
         H           -2.076419182305     2.248223498568     0.352948953997     1.007825032230
         H           -0.697858182305     2.008958498568     1.463424953997     1.007825032230

  Basis Set: AUG-CC-PVTZ
    Blend: AUG-CC-PVTZ
  Basis Set: (AUG-CC-PVTZ AUX)
    Blend: AUG-CC-PVTZ-JKFIT
	 Reference Energy          =    -872.1477918149511197 [Eh]
	 Singles Energy            =      -0.0000000000000000 [Eh]
	 Same-Spin Energy          =      -0.5655179325691864 [Eh]
	 Opposite-Spin Energy      =      -1.6970887288844030 [Eh]
	 Correlation Energy        =      -2.2626066614535896 [Eh]
	 Total Energy              =    -874.4103984764046800 [Eh]

	 ================> DF-SCS-MP2 Energies <==================
	-----------------------------------------------------------
	 SCS Same-Spin Scale       =       0.3333333333333333 [-]
	 SCS Opposite-Spin Scale   =       1.2000000000000000 [-]
	 SCS Same-Spin Energy      =      -0.1885059775230621 [Eh]
	 SCS Opposite-Spin Energy  =      -2.0365064746612833 [Eh]
	 SCS Correlation Energy    =      -2.2250124521843455 [Eh]
	 SCS Total Energy          =    -874.3728042671355070 [Eh]
	-----------------------------------------------------------

  Dipole Moment: [D]
     X:     3.8352      Y:     2.4100      Z:     3.7871     Total:     5.9042

*** Psi4 exiting successfully. Buy a developer a beer!
