                               Psi4 1.3.2 release

  ==> Input File <==

--------------------------------------------------------------------------
#psi4
#
memory 32 gb

molecule  {
0 1
  S       -1.2780750    -0.4285550    -0.3473560
  O       -1.7200650     0.3779750    -1.4840280
  O       -1.5418650    -1.8618310    -0.2285910
  N       -1.9165691     0.2199450     0.9295335
  C        0.4825990    -0.1948140    -0.1956820
  C        1.2351140    -1.1400330     0.5076890
  C        1.0704270     0.9572020    -0.7248240
  C        2.6038020    -0.9271140     0.6719040
  C        2.4412730     1.1569670    -0.5509020
  C        3.2049670     0.2235900     0.1537530
  C       -1.7662690     1.6987010     1.2148980
  H        0.7580870    -2.0438460     0.8774600
  H        0.4673030     1.6551460    -1.2987640
  H       -1.7702480    -0.3190170     1.8277200
  H        3.2028270    -1.6614550     1.2045750
  H        2.9128080     2.0436310    -0.9672160
  H        4.2723800     0.3833040     0.2839750
  H       -2.3988760     2.0038020     2.0501250
  H       -2.1043290     2.2146560     0.3162530
  H       -0.7257680     1.9753910     1.4267290
units angstrom
no_reorient  #important for SAPT in psi4, default
symmetry c1  #important for SAPT in psi4, default
}

set PROPERTIES_ORIGIN ["COM"]
properties('MP2/aug-cc-pvtz', properties = ['dipole'])
--------------------------------------------------------------------------

    Molecular point group: c1
  Charge       = 0
  Multiplicity = 1
  Basis Set: AUG-CC-PVTZ
    Blend: AUG-CC-PVTZ
  Basis Set: (AUG-CC-PVTZ AUX)
    Blend: AUG-CC-PVTZ-JKFIT

    Orbital Energies [Eh]
    ---------------------

    Doubly Occupied:

       1A    -92.197642     2A    -20.541269     3A    -20.540607
       4A    -15.607601     5A    -11.287034     6A    -11.278084
       7A    -11.267251     8A    -11.267157     9A    -11.264961
      10A    -11.259931    11A    -11.259780    12A     -9.163473
      13A     -6.849111    14A     -6.848031    15A     -6.847888
      16A     -1.455620    17A     -1.332782    18A     -1.242019
      19A     -1.179064    20A     -1.054587    21A     -1.041127
      22A     -0.974767    23A     -0.889813    24A     -0.853161
      25A     -0.813076    26A     -0.753815    27A     -0.711910
      28A     -0.678651    29A     -0.671467    30A     -0.651430
      31A     -0.640370    32A     -0.618437    33A     -0.613448
      34A     -0.605038    35A     -0.565388    36A     -0.546308
      37A     -0.532291    38A     -0.520670    39A     -0.506012
      40A     -0.492484    41A     -0.467999    42A     -0.467389
      43A     -0.443657    44A     -0.364719    45A     -0.360714

  @DF-RHF Final Energy:  -872.14825639120932

   => Energetics <=

    Nuclear Repulsion Energy =            745.8133519489285845
    One-Electron Energy =               -2676.8671481102965117
    Two-Electron Energy =                1058.9055397701586116
    Total Energy =                       -872.1482563912093156
  Basis Set: (AUG-CC-PVTZ AUX)
    Blend: AUG-CC-PVTZ-RI
    Molecular point group: c1

    Geometry (in Angstrom), charge = 0, multiplicity = 1:

       Center              X                  Y                   Z               Mass
    ------------   -----------------  -----------------  -----------------  -----------------
         S           -1.254912487904    -0.389022155781    -0.307627942728    31.972071174400
         O           -1.696902487904     0.417507844219    -1.444299942728    15.994914619570
         O           -1.518702487904    -1.822298155781    -0.188862942728    15.994914619570
         N           -1.893406587904     0.259477844219     0.969261557272    14.003074004430
         C            0.505761512096    -0.155281155781    -0.155953942728    12.000000000000
         C            1.258276512096    -1.100500155781     0.547417057272    12.000000000000
         C            1.093589512096     0.996734844219    -0.685095942728    12.000000000000
         C            2.626964512096    -0.887581155781     0.711632057272    12.000000000000
         C            2.464435512096     1.196499844219    -0.511173942728    12.000000000000
         C            3.228129512096     0.263122844219     0.193481057272    12.000000000000
         C           -1.743106487904     1.738233844219     1.254626057272    12.000000000000
         H            0.781249512096    -2.004313155781     0.917188057272     1.007825032230
         H            0.490465512096     1.694678844219    -1.259035942728     1.007825032230
         H           -1.747085487904    -0.279484155781     1.867448057272     1.007825032230
         H            3.225989512096    -1.621922155781     1.244303057272     1.007825032230
         H            2.935970512096     2.083163844219    -0.927487942728     1.007825032230
         H            4.295542512096     0.422836844219     0.323703057272     1.007825032230
         H           -2.375713487904     2.043334844219     2.089853057272     1.007825032230
         H           -2.081166487904     2.254188844219     0.355981057272     1.007825032230
         H           -0.702605487904     2.014923844219     1.466457057272     1.007825032230

  Basis Set: AUG-CC-PVTZ
    Blend: AUG-CC-PVTZ
  Basis Set: (AUG-CC-PVTZ AUX)
    Blend: AUG-CC-PVTZ-JKFIT
	 Reference Energy          =    -872.1482563912093156 [Eh]
	 Singles Energy            =      -0.0000000000000000 [Eh]
	 Same-Spin Energy          =      -0.5644715109545470 [Eh]
	 Opposite-Spin Energy      =      -1.6936561161430943 [Eh]
	 Correlation Energy        =      -2.2581276270976414 [Eh]
	 Total Energy              =    -874.4063840183069942 [Eh]

	 ================> DF-SCS-MP2 Energies <==================
	-----------------------------------------------------------
	 SCS Same-Spin Scale       =       0.3333333333333333 [-]
	 SCS Opposite-Spin Scale   =       1.2000000000000000 [-]
	 SCS Same-Spin Energy      =      -0.1881571703181823 [Eh]
	 SCS Opposite-Spin Energy  =      -2.0323873393717129 [Eh]
	 SCS Correlation Energy    =      -2.2205445096898950 [Eh]
	 SCS Total Energy          =    -874.3688009008992594 [Eh]
	-----------------------------------------------------------

  Dipole Moment: [D]
     X:     3.3461      Y:     2.7794      Z:     3.9970     Total:     5.9074

*** Psi4 exiting successfully. Buy a developer a beer!
