                               Psi4 1.3.2 release

  ==> Input File <==

--------------------------------------------------------------------------
#psi4
#
memory 32 gb

molecule  {
0 1
  S       -1.3417191    -0.2928442    -0.4368837
  O       -1.7200650     0.3779750    -1.4840280
  O       -1.5418650    -1.8618310    -0.2285910
  N       -1.9572890     0.2613030     1.0109670
  C        0.4825990    -0.1948140    -0.1956820
  C        1.2351140    -1.1400330     0.5076890
  C        1.0704270     0.9572020    -0.7248240
  C        2.6038020    -0.9271140     0.6719040
  C        2.4412730     1.1569670    -0.5509020
  C        3.2049670     0.2235900     0.1537530
  C       -1.7662690     1.6987010     1.2148980
  H        0.7580870    -2.0438460     0.8774600
  H        0.4673030     1.6551460    -1.2987640
  H       -1.7702480    -0.3190170     1.8277200
  H        3.2028270    -1.6614550     1.2045750
  H        2.9128080     2.0436310    -0.9672160
  H        4.2723800     0.3833040     0.2839750
  H       -2.3988760     2.0038020     2.0501250
  H       -2.1043290     2.2146560     0.3162530
  H       -0.7257680     1.9753910     1.4267290
units angstrom
no_reorient  #important for SAPT in psi4, default
symmetry c1  #important for SAPT in psi4, default
}

set PROPERTIES_ORIGIN ["COM"]
properties('MP2/aug-cc-pvtz', properties = ['dipole'])
--------------------------------------------------------------------------

    Molecular point group: c1
  Charge       = 0
  Multiplicity = 1
  Basis Set: AUG-CC-PVTZ
    Blend: AUG-CC-PVTZ
  Basis Set: (AUG-CC-PVTZ AUX)
    Blend: AUG-CC-PVTZ-JKFIT

    Orbital Energies [Eh]
    ---------------------

    Doubly Occupied:

       1A    -92.195307     2A    -20.587155     3A    -20.517199
       4A    -15.604176     5A    -11.279873     6A    -11.278658
       7A    -11.264794     8A    -11.263983     9A    -11.262094
      10A    -11.258209    11A    -11.257967    12A     -9.165778
      13A     -6.851977    14A     -6.849638    15A     -6.848999
      16A     -1.545203    17A     -1.299172    18A     -1.226659
      19A     -1.175507    20A     -1.048189    21A     -1.038215
      22A     -0.959657    23A     -0.886433    24A     -0.849734
      25A     -0.819545    26A     -0.759134    27A     -0.732033
      28A     -0.689973    29A     -0.681014    30A     -0.650988
      31A     -0.642266    32A     -0.636187    33A     -0.618851
      34A     -0.610813    35A     -0.580120    36A     -0.557992
      37A     -0.529084    38A     -0.528680    39A     -0.519084
      40A     -0.492459    41A     -0.449742    42A     -0.440605
      43A     -0.421445    44A     -0.362904    45A     -0.357737

  @DF-RHF Final Energy:  -872.09559643789328

   => Energetics <=

    Nuclear Repulsion Energy =            743.0820700009218172
    One-Electron Energy =               -2671.1648622696748134
    Two-Electron Energy =                1055.9871958308597186
    Total Energy =                       -872.0955964378933913
  Basis Set: (AUG-CC-PVTZ AUX)
    Blend: AUG-CC-PVTZ-RI
    Molecular point group: c1

    Geometry (in Angstrom), charge = 0, multiplicity = 1:

       Center              X                  Y                   Z               Mass
    ------------   -----------------  -----------------  -----------------  -----------------
         S           -1.303325603718    -0.282066189575    -0.387087161744    31.972071174400
         O           -1.681671503718     0.388753010425    -1.434231461744    15.994914619570
         O           -1.503471503718    -1.851052989575    -0.178794461744    15.994914619570
         N           -1.918895503718     0.272081010425     1.060763538256    14.003074004430
         C            0.520992496282    -0.184035989575    -0.145885461744    12.000000000000
         C            1.273507496282    -1.129254989575     0.557485538256    12.000000000000
         C            1.108820496282     0.967980010425    -0.675027461744    12.000000000000
         C            2.642195496282    -0.916335989575     0.721700538256    12.000000000000
         C            2.479666496282     1.167745010425    -0.501105461744    12.000000000000
         C            3.243360496282     0.234368010425     0.203549538256    12.000000000000
         C           -1.727875503718     1.709479010425     1.264694538256    12.000000000000
         H            0.796480496282    -2.033067989575     0.927256538256     1.007825032230
         H            0.505696496282     1.665924010425    -1.248967461744     1.007825032230
         H           -1.731854503718    -0.308238989575     1.877516538256     1.007825032230
         H            3.241220496282    -1.650676989575     1.254371538256     1.007825032230
         H            2.951201496282     2.054409010425    -0.917419461744     1.007825032230
         H            4.310773496282     0.394082010425     0.333771538256     1.007825032230
         H           -2.360482503718     2.014580010425     2.099921538256     1.007825032230
         H           -2.065935503718     2.225434010425     0.366049538256     1.007825032230
         H           -0.687374503718     1.986169010425     1.476525538256     1.007825032230

  Basis Set: AUG-CC-PVTZ
    Blend: AUG-CC-PVTZ
  Basis Set: (AUG-CC-PVTZ AUX)
    Blend: AUG-CC-PVTZ-JKFIT
	 Reference Energy          =    -872.0955964378932777 [Eh]
	 Singles Energy            =      -0.0000000000000000 [Eh]
	 Same-Spin Energy          =      -0.5629351160889263 [Eh]
	 Opposite-Spin Energy      =      -1.6927824648301986 [Eh]
	 Correlation Energy        =      -2.2557175809191250 [Eh]
	 Total Energy              =    -874.3513140188124453 [Eh]

	 ================> DF-SCS-MP2 Energies <==================
	-----------------------------------------------------------
	 SCS Same-Spin Scale       =       0.3333333333333333 [-]
	 SCS Opposite-Spin Scale   =       1.2000000000000000 [-]
	 SCS Same-Spin Energy      =      -0.1876450386963088 [Eh]
	 SCS Opposite-Spin Energy  =      -2.0313389577962382 [Eh]
	 SCS Correlation Energy    =      -2.2189839964925469 [Eh]
	 SCS Total Energy          =    -874.3145804343857890 [Eh]
	-----------------------------------------------------------

  Dipole Moment: [D]
     X:     3.0689      Y:     3.6249      Z:     2.8721     Total:     5.5504

*** Psi4 exiting successfully. Buy a developer a beer!
