                               Psi4 1.4a3.dev225

  ==> Input File <==

--------------------------------------------------------------------------
#psi4
#
memory 32 gb

molecule  {
0 1
  S       -1.2780750    -0.4285550    -0.3473560
  O       -1.7200650     0.3779750    -1.4840280
  O       -1.5418650    -1.8618310    -0.2285910
  N       -1.9572890     0.2613030     1.0109670
  C        0.4332136    -0.2013702    -0.1999363
  C        1.2351140    -1.1400330     0.5076890
  C        1.0704270     0.9572020    -0.7248240
  C        2.6038020    -0.9271140     0.6719040
  C        2.4412730     1.1569670    -0.5509020
  C        3.2049670     0.2235900     0.1537530
  C       -1.7662690     1.6987010     1.2148980
  H        0.7580870    -2.0438460     0.8774600
  H        0.4673030     1.6551460    -1.2987640
  H       -1.7702480    -0.3190170     1.8277200
  H        3.2028270    -1.6614550     1.2045750
  H        2.9128080     2.0436310    -0.9672160
  H        4.2723800     0.3833040     0.2839750
  H       -2.3988760     2.0038020     2.0501250
  H       -2.1043290     2.2146560     0.3162530
  H       -0.7257680     1.9753910     1.4267290
units angstrom
no_reorient  #important for SAPT in psi4, default
symmetry c1  #important for SAPT in psi4, default
}

set PROPERTIES_ORIGIN ["COM"]
properties('MP2/aug-cc-pvtz', properties = ['dipole'])
--------------------------------------------------------------------------

    Molecular point group: c1
  Charge       = 0
  Multiplicity = 1
  Basis Set: AUG-CC-PVTZ
    Blend: AUG-CC-PVTZ
  Basis Set: (AUG-CC-PVTZ AUX)
    Blend: AUG-CC-PVTZ-JKFIT

    Orbital Energies [Eh]
    ---------------------

    Doubly Occupied:

       1A    -92.203105     2A    -20.546675     3A    -20.546608
       4A    -15.603698     5A    -11.283138     6A    -11.276038
       7A    -11.275370     8A    -11.275282     9A    -11.270689
      10A    -11.262528    11A    -11.262407    12A     -9.168353
      13A     -6.853531    14A     -6.853121    15A     -6.852761
      16A     -1.453374    17A     -1.336874    18A     -1.234236
      19A     -1.177863    20A     -1.060753    21A     -1.041878
      22A     -0.963563    23A     -0.900752    24A     -0.853133
      25A     -0.812873    26A     -0.750423    27A     -0.713354
      28A     -0.680335    29A     -0.672988    30A     -0.654808
      31A     -0.641060    32A     -0.621010    33A     -0.613259
      34A     -0.607236    35A     -0.566740    36A     -0.549213
      37A     -0.530151    38A     -0.518618    39A     -0.504121
      40A     -0.497326    41A     -0.473619    42A     -0.469688
      43A     -0.438712    44A     -0.366312    45A     -0.362750

  @DF-RHF Final Energy:  -872.15204411990476

   => Energetics <=

    Nuclear Repulsion Energy =            743.2222155639318544
    One-Electron Energy =               -2671.5478646147857944
    Two-Electron Energy =                1056.1736049309490681
    Total Energy =                       -872.1520441199047582
  Basis Set: (AUG-CC-PVTZ AUX)
    Blend: AUG-CC-PVTZ-RI
    Molecular point group: c1

    Geometry (in Angstrom), charge = 0, multiplicity = 1:

       Center              X                  Y                   Z               Mass
    ------------   -----------------  -----------------  -----------------  -----------------
         S           -1.248113728260    -0.391948244389    -0.313996611020    31.972071174400
         O           -1.690103728260     0.414581755611    -1.450668611020    15.994914619570
         O           -1.511903728260    -1.825224244389    -0.195231611020    15.994914619570
         N           -1.927327728260     0.297909755611     1.044326388980    14.003074004430
         C            0.463174871740    -0.164763444389    -0.166576911020    12.000000000000
         C            1.265075271740    -1.103426244389     0.541048388980    12.000000000000
         C            1.100388271740     0.993808755611    -0.691464611020    12.000000000000
         C            2.633763271740    -0.890507244389     0.705263388980    12.000000000000
         C            2.471234271740     1.193573755611    -0.517542611020    12.000000000000
         C            3.234928271740     0.260196755611     0.187112388980    12.000000000000
         C           -1.736307728260     1.735307755611     1.248257388980    12.000000000000
         H            0.788048271740    -2.007239244389     0.910819388980     1.007825032230
         H            0.497264271740     1.691752755611    -1.265404611020     1.007825032230
         H           -1.740286728260    -0.282410244389     1.861079388980     1.007825032230
         H            3.232788271740    -1.624848244389     1.237934388980     1.007825032230
         H            2.942769271740     2.080237755611    -0.933856611020     1.007825032230
         H            4.302341271740     0.419910755611     0.317334388980     1.007825032230
         H           -2.368914728260     2.040408755611     2.083484388980     1.007825032230
         H           -2.074367728260     2.251262755611     0.349612388980     1.007825032230
         H           -0.695806728260     2.011997755611     1.460088388980     1.007825032230

  Basis Set: AUG-CC-PVTZ
    Blend: AUG-CC-PVTZ
  Basis Set: (AUG-CC-PVTZ AUX)
    Blend: AUG-CC-PVTZ-JKFIT
	 Reference Energy          =    -872.1520441199047582 [Eh]
	 Singles Energy            =      -0.0000000000000000 [Eh]
	 Same-Spin Energy          =      -0.5647741243286316 [Eh]
	 Opposite-Spin Energy      =      -1.6950290682848694 [Eh]
	 Correlation Energy        =      -2.2598031926135009 [Eh]
	 Total Energy              =    -874.4118473125182618 [Eh]

	 ================> DF-SCS-MP2 Energies <==================
	-----------------------------------------------------------
	 SCS Same-Spin Scale       =       0.3333333333333333 [-]
	 SCS Opposite-Spin Scale   =       1.2000000000000000 [-]
	 SCS Same-Spin Energy      =      -0.1882580414428772 [Eh]
	 SCS Opposite-Spin Energy  =      -2.0340348819418432 [Eh]
	 SCS Correlation Energy    =      -2.2222929233847206 [Eh]
	 SCS Total Energy          =    -874.3743370432895290 [Eh]
	-----------------------------------------------------------

  Dipole Moment: [D]
     X:     3.8014      Y:     2.5244      Z:     3.5966     Total:     5.8102

*** Psi4 exiting successfully. Buy a developer a beer!
