                               Psi4 1.3.2 release

  ==> Input File <==

--------------------------------------------------------------------------
#psi4
#
memory 32 gb

molecule  {
0 1
  S       -1.2780750    -0.4285550    -0.3473560
  O       -1.7200650     0.3779750    -1.4840280
  O       -1.5418650    -1.8618310    -0.2285910
  N       -1.8497175     0.2894724     1.0454608
  C        0.4825990    -0.1948140    -0.1956820
  C        1.2351140    -1.1400330     0.5076890
  C        1.0704270     0.9572020    -0.7248240
  C        2.6038020    -0.9271140     0.6719040
  C        2.4412730     1.1569670    -0.5509020
  C        3.2049670     0.2235900     0.1537530
  C       -1.7662690     1.6987010     1.2148980
  H        0.7580870    -2.0438460     0.8774600
  H        0.4673030     1.6551460    -1.2987640
  H       -1.7702480    -0.3190170     1.8277200
  H        3.2028270    -1.6614550     1.2045750
  H        2.9128080     2.0436310    -0.9672160
  H        4.2723800     0.3833040     0.2839750
  H       -2.3988760     2.0038020     2.0501250
  H       -2.1043290     2.2146560     0.3162530
  H       -0.7257680     1.9753910     1.4267290
units angstrom
no_reorient  #important for SAPT in psi4, default
symmetry c1  #important for SAPT in psi4, default
}

set PROPERTIES_ORIGIN ["COM"]
properties('MP2/aug-cc-pvtz', properties = ['dipole'])
--------------------------------------------------------------------------

    Molecular point group: c1
  Charge       = 0
  Multiplicity = 1
  Basis Set: AUG-CC-PVTZ
    Blend: AUG-CC-PVTZ
  Basis Set: (AUG-CC-PVTZ AUX)
    Blend: AUG-CC-PVTZ-JKFIT

    Orbital Energies [Eh]
    ---------------------

    Doubly Occupied:

       1A    -92.206177     2A    -20.551706     3A    -20.550928
       4A    -15.597267     5A    -11.279699     6A    -11.273576
       7A    -11.267725     8A    -11.267635     9A    -11.264941
      10A    -11.260199    11A    -11.260001    12A     -9.170538
      13A     -6.855769    14A     -6.855140    15A     -6.855052
      16A     -1.454404    17A     -1.339874    18A     -1.244883
      19A     -1.179562    20A     -1.056279    21A     -1.041448
      22A     -0.967548    23A     -0.893236    24A     -0.853601
      25A     -0.815838    26A     -0.749760    27A     -0.715384
      28A     -0.682065    29A     -0.675382    30A     -0.654802
      31A     -0.640911    32A     -0.622506    33A     -0.618769
      34A     -0.613665    35A     -0.569361    36A     -0.546391
      37A     -0.530626    38A     -0.521218    39A     -0.508243
      40A     -0.501114    41A     -0.477504    42A     -0.464564
      43A     -0.426599    44A     -0.364085    45A     -0.360490

  @DF-RHF Final Energy:  -872.15277834602045

   => Energetics <=

    Nuclear Repulsion Energy =            744.0463777994318662
    One-Electron Energy =               -2673.1853812611625472
    Two-Electron Energy =                1056.9862251157103401
    Total Energy =                       -872.1527783460203409
  Basis Set: (AUG-CC-PVTZ AUX)
    Blend: AUG-CC-PVTZ-RI
    Molecular point group: c1

    Geometry (in Angstrom), charge = 0, multiplicity = 1:

       Center              X                  Y                   Z               Mass
    ------------   -----------------  -----------------  -----------------  -----------------
         S           -1.260385787020    -0.394714528993    -0.317119185849    31.972071174400
         O           -1.702375787020     0.411815471007    -1.453791185849    15.994914619570
         O           -1.524175787020    -1.827990528993    -0.198354185849    15.994914619570
         N           -1.832028287020     0.323312871007     1.075697614151    14.003074004430
         C            0.500288212980    -0.160973528993    -0.165445185849    12.000000000000
         C            1.252803212980    -1.106192528993     0.537925814151    12.000000000000
         C            1.088116212980     0.991042471007    -0.694587185849    12.000000000000
         C            2.621491212980    -0.893273528993     0.702140814151    12.000000000000
         C            2.458962212980     1.190807471007    -0.520665185849    12.000000000000
         C            3.222656212980     0.257430471007     0.183989814151    12.000000000000
         C           -1.748579787020     1.732541471007     1.245134814151    12.000000000000
         H            0.775776212980    -2.010005528993     0.907696814151     1.007825032230
         H            0.484992212980     1.688986471007    -1.268527185849     1.007825032230
         H           -1.752558787020    -0.285176528993     1.857956814151     1.007825032230
         H            3.220516212980    -1.627614528993     1.234811814151     1.007825032230
         H            2.930497212980     2.077471471007    -0.936979185849     1.007825032230
         H            4.290069212980     0.417144471007     0.314211814151     1.007825032230
         H           -2.381186787020     2.037642471007     2.080361814151     1.007825032230
         H           -2.086639787020     2.248496471007     0.346489814151     1.007825032230
         H           -0.708078787020     2.009231471007     1.456965814151     1.007825032230

  Basis Set: AUG-CC-PVTZ
    Blend: AUG-CC-PVTZ
  Basis Set: (AUG-CC-PVTZ AUX)
    Blend: AUG-CC-PVTZ-JKFIT
	 Reference Energy          =    -872.1527783460204546 [Eh]
	 Singles Energy            =      -0.0000000000000000 [Eh]
	 Same-Spin Energy          =      -0.5648362218114977 [Eh]
	 Opposite-Spin Energy      =      -1.6942746452828354 [Eh]
	 Correlation Energy        =      -2.2591108670943330 [Eh]
	 Total Energy              =    -874.4118892131148186 [Eh]

	 ================> DF-SCS-MP2 Energies <==================
	-----------------------------------------------------------
	 SCS Same-Spin Scale       =       0.3333333333333333 [-]
	 SCS Opposite-Spin Scale   =       1.2000000000000000 [-]
	 SCS Same-Spin Energy      =      -0.1882787406038326 [Eh]
	 SCS Opposite-Spin Energy  =      -2.0331295743394024 [Eh]
	 SCS Correlation Energy    =      -2.2214083149432349 [Eh]
	 SCS Total Energy          =    -874.3741866609636872 [Eh]
	-----------------------------------------------------------

  Dipole Moment: [D]
     X:     3.2904      Y:     2.3885      Z:     3.5275     Total:     5.3828

*** Psi4 exiting successfully. Buy a developer a beer!
