                               Psi4 1.4a3.dev225

  ==> Input File <==

--------------------------------------------------------------------------
#psi4
#
memory 32 gb

molecule  {
0 1
  S       -1.2780750    -0.4285550    -0.3473560
  O       -1.7200650     0.3779750    -1.4840280
  O       -1.5418650    -1.8618310    -0.2285910
  N       -1.9572890     0.2613030     1.0109670
  C        0.4825990    -0.1948140    -0.1956820
  C        1.2351140    -1.1400330     0.5076890
  C        1.0704270     0.9572020    -0.7248240
  C        2.6038020    -0.9271140     0.6719040
  C        2.4412730     1.1569670    -0.5509020
  C        3.2049670     0.2235900     0.1537530
  C       -1.7636600     1.7183335     1.2176834
  H        0.7580870    -2.0438460     0.8774600
  H        0.4673030     1.6551460    -1.2987640
  H       -1.7702480    -0.3190170     1.8277200
  H        3.2028270    -1.6614550     1.2045750
  H        2.9128080     2.0436310    -0.9672160
  H        4.2723800     0.3833040     0.2839750
  H       -2.3988760     2.0038020     2.0501250
  H       -2.1043290     2.2146560     0.3162530
  H       -0.7257680     1.9753910     1.4267290
units angstrom
no_reorient  #important for SAPT in psi4, default
symmetry c1  #important for SAPT in psi4, default
}

set PROPERTIES_ORIGIN ["COM"]
properties('MP2/aug-cc-pvtz', properties = ['dipole'])
--------------------------------------------------------------------------

    Molecular point group: c1
  Charge       = 0
  Multiplicity = 1
  Basis Set: AUG-CC-PVTZ
    Blend: AUG-CC-PVTZ
  Basis Set: (AUG-CC-PVTZ AUX)
    Blend: AUG-CC-PVTZ-JKFIT

    Orbital Energies [Eh]
    ---------------------

    Doubly Occupied:

       1A    -92.202465     2A    -20.546841     3A    -20.546814
       4A    -15.603860     5A    -11.282424     6A    -11.276753
       7A    -11.270432     8A    -11.270342     9A    -11.267728
      10A    -11.262080    11A    -11.261940    12A     -9.167324
      13A     -6.852485    14A     -6.851951    15A     -6.851736
      16A     -1.451486    17A     -1.336431    18A     -1.229593
      19A     -1.181762    20A     -1.057664    21A     -1.043670
      22A     -0.964087    23A     -0.893922    24A     -0.855714
      25A     -0.813148    26A     -0.749259    27A     -0.711665
      28A     -0.676503    29A     -0.670273    30A     -0.654583
      31A     -0.641400    32A     -0.621984    33A     -0.615865
      34A     -0.606720    35A     -0.570503    36A     -0.548089
      37A     -0.533490    38A     -0.523226    39A     -0.502790
      40A     -0.497289    41A     -0.473372    42A     -0.466371
      43A     -0.436258    44A     -0.367911    45A     -0.362891

  @DF-RHF Final Energy:  -872.15520671566730

   => Energetics <=

    Nuclear Repulsion Energy =            742.4053186208553825
    One-Electron Energy =               -2669.9748638566502450
    Two-Electron Energy =                1055.4143385201277852
    Total Energy =                       -872.1552067156671910
  Basis Set: (AUG-CC-PVTZ AUX)
    Blend: AUG-CC-PVTZ-RI
    Molecular point group: c1

    Geometry (in Angstrom), charge = 0, multiplicity = 1:

       Center              X                  Y                   Z               Mass
    ------------   -----------------  -----------------  -----------------  -----------------
         S           -1.251761702896    -0.393785667522    -0.314490522807    31.972071174400
         O           -1.693751702896     0.412744332478    -1.451162522807    15.994914619570
         O           -1.515551702896    -1.827061667522    -0.195725522807    15.994914619570
         N           -1.930975702896     0.296072332478     1.043832477193    14.003074004430
         C            0.508912297104    -0.160044667522    -0.162816522807    12.000000000000
         C            1.261427297104    -1.105263667522     0.540554477193    12.000000000000
         C            1.096740297104     0.991971332478    -0.691958522807    12.000000000000
         C            2.630115297104    -0.892344667522     0.704769477193    12.000000000000
         C            2.467586297104     1.191736332478    -0.518036522807    12.000000000000
         C            3.231280297104     0.258359332478     0.186618477193    12.000000000000
         C           -1.737346702896     1.753102832478     1.250548877193    12.000000000000
         H            0.784400297104    -2.009076667522     0.910325477193     1.007825032230
         H            0.493616297104     1.689915332478    -1.265898522807     1.007825032230
         H           -1.743934702896    -0.284247667522     1.860585477193     1.007825032230
         H            3.229140297104    -1.626685667522     1.237440477193     1.007825032230
         H            2.939121297104     2.078400332478    -0.934350522807     1.007825032230
         H            4.298693297104     0.418073332478     0.316840477193     1.007825032230
         H           -2.372562702896     2.038571332478     2.082990477193     1.007825032230
         H           -2.078015702896     2.249425332478     0.349118477193     1.007825032230
         H           -0.699454702896     2.010160332478     1.459594477193     1.007825032230

  Basis Set: AUG-CC-PVTZ
    Blend: AUG-CC-PVTZ
  Basis Set: (AUG-CC-PVTZ AUX)
    Blend: AUG-CC-PVTZ-JKFIT
	 Reference Energy          =    -872.1552067156673047 [Eh]
	 Singles Energy            =      -0.0000000000000000 [Eh]
	 Same-Spin Energy          =      -0.5644408757046031 [Eh]
	 Opposite-Spin Energy      =      -1.6945797447325259 [Eh]
	 Correlation Energy        =      -2.2590206204371288 [Eh]
	 Total Energy              =    -874.4142273361044317 [Eh]

	 ================> DF-SCS-MP2 Energies <==================
	-----------------------------------------------------------
	 SCS Same-Spin Scale       =       0.3333333333333333 [-]
	 SCS Opposite-Spin Scale   =       1.2000000000000000 [-]
	 SCS Same-Spin Energy      =      -0.1881469585682010 [Eh]
	 SCS Opposite-Spin Energy  =      -2.0334956936790309 [Eh]
	 SCS Correlation Energy    =      -2.2216426522472319 [Eh]
	 SCS Total Energy          =    -874.3768493679145877 [Eh]
	-----------------------------------------------------------

  Dipole Moment: [D]
     X:     3.7056      Y:     2.5554      Z:     3.6047     Total:     5.7667

*** Psi4 exiting successfully. Buy a developer a beer!
