                               Psi4 1.3.2 release

  ==> Input File <==

--------------------------------------------------------------------------
#psi4
#
memory 32 gb

molecule  {
0 1
  S       -1.2780750    -0.4285550    -0.3473560
  O       -1.6718079     0.3930866    -1.4909243
  O       -1.5418650    -1.8618310    -0.2285910
  N       -1.9572890     0.2613030     1.0109670
  C        0.4825990    -0.1948140    -0.1956820
  C        1.2351140    -1.1400330     0.5076890
  C        1.0704270     0.9572020    -0.7248240
  C        2.6038020    -0.9271140     0.6719040
  C        2.4412730     1.1569670    -0.5509020
  C        3.2049670     0.2235900     0.1537530
  C       -1.7662690     1.6987010     1.2148980
  H        0.7580870    -2.0438460     0.8774600
  H        0.4673030     1.6551460    -1.2987640
  H       -1.7702480    -0.3190170     1.8277200
  H        3.2028270    -1.6614550     1.2045750
  H        2.9128080     2.0436310    -0.9672160
  H        4.2723800     0.3833040     0.2839750
  H       -2.3988760     2.0038020     2.0501250
  H       -2.1043290     2.2146560     0.3162530
  H       -0.7257680     1.9753910     1.4267290
units angstrom
no_reorient  #important for SAPT in psi4, default
symmetry c1  #important for SAPT in psi4, default
}

set PROPERTIES_ORIGIN ["COM"]
properties('MP2/aug-cc-pvtz', properties = ['dipole'])
--------------------------------------------------------------------------

    Molecular point group: c1
  Charge       = 0
  Multiplicity = 1
  Basis Set: AUG-CC-PVTZ
    Blend: AUG-CC-PVTZ
  Basis Set: (AUG-CC-PVTZ AUX)
    Blend: AUG-CC-PVTZ-JKFIT

    Orbital Energies [Eh]
    ---------------------

    Doubly Occupied:

       1A    -92.203761     2A    -20.549276     3A    -20.548084
       4A    -15.605827     5A    -11.280399     6A    -11.276924
       7A    -11.269098     8A    -11.268803     9A    -11.266598
      10A    -11.260925    11A    -11.260761    12A     -9.168571
      13A     -6.853743    14A     -6.853216    15A     -6.852965
      16A     -1.452976    17A     -1.338988    18A     -1.235428
      19A     -1.180506    20A     -1.056318    21A     -1.042425
      22A     -0.963615    23A     -0.892696    24A     -0.854463
      25A     -0.813719    26A     -0.750023    27A     -0.712506
      28A     -0.677525    29A     -0.672739    30A     -0.654939
      31A     -0.640717    32A     -0.622004    33A     -0.614815
      34A     -0.608267    35A     -0.567408    36A     -0.546874
      37A     -0.532109    38A     -0.522042    39A     -0.504394
      40A     -0.499600    41A     -0.475710    42A     -0.466744
      43A     -0.435151    44A     -0.366841    45A     -0.361717

  @DF-RHF Final Energy:  -872.15475553766623

   => Energetics <=

    Nuclear Repulsion Energy =            743.1746591718379022
    One-Electron Energy =               -2671.4944100532029552
    Two-Electron Energy =                1056.1649953436988199
    Total Energy =                       -872.1547555376662331
  Basis Set: (AUG-CC-PVTZ AUX)
    Blend: AUG-CC-PVTZ-RI
    Molecular point group: c1

    Geometry (in Angstrom), charge = 0, multiplicity = 1:

       Center              X                  Y                   Z               Mass
    ------------   -----------------  -----------------  -----------------  -----------------
         S           -1.256091567916    -0.393821442290    -0.313650167361    31.972071174400
         O           -1.649824467916     0.427820157710    -1.457218467361    15.994914619570
         O           -1.519881567916    -1.827097442290    -0.194885167361    15.994914619570
         N           -1.935305567916     0.296036557710     1.044672832639    14.003074004430
         C            0.504582432084    -0.160080442290    -0.161976167361    12.000000000000
         C            1.257097432084    -1.105299442290     0.541394832639    12.000000000000
         C            1.092410432084     0.991935557710    -0.691118167361    12.000000000000
         C            2.625785432084    -0.892380442290     0.705609832639    12.000000000000
         C            2.463256432084     1.191700557710    -0.517196167361    12.000000000000
         C            3.226950432084     0.258323557710     0.187458832639    12.000000000000
         C           -1.744285567916     1.733434557710     1.248603832639    12.000000000000
         H            0.780070432084    -2.009112442290     0.911165832639     1.007825032230
         H            0.489286432084     1.689879557710    -1.265058167361     1.007825032230
         H           -1.748264567916    -0.284283442290     1.861425832639     1.007825032230
         H            3.224810432084    -1.626721442290     1.238280832639     1.007825032230
         H            2.934791432084     2.078364557710    -0.933510167361     1.007825032230
         H            4.294363432084     0.418037557710     0.317680832639     1.007825032230
         H           -2.376892567916     2.038535557710     2.083830832639     1.007825032230
         H           -2.082345567916     2.249389557710     0.349958832639     1.007825032230
         H           -0.703784567916     2.010124557710     1.460434832639     1.007825032230

  Basis Set: AUG-CC-PVTZ
    Blend: AUG-CC-PVTZ
  Basis Set: (AUG-CC-PVTZ AUX)
    Blend: AUG-CC-PVTZ-JKFIT
	 Reference Energy          =    -872.1547555376662331 [Eh]
	 Singles Energy            =      -0.0000000000000000 [Eh]
	 Same-Spin Energy          =      -0.5646894406043639 [Eh]
	 Opposite-Spin Energy      =      -1.6947933087469593 [Eh]
	 Correlation Energy        =      -2.2594827493513234 [Eh]
	 Total Energy              =    -874.4142382870176107 [Eh]

	 ================> DF-SCS-MP2 Energies <==================
	-----------------------------------------------------------
	 SCS Same-Spin Scale       =       0.3333333333333333 [-]
	 SCS Opposite-Spin Scale   =       1.2000000000000000 [-]
	 SCS Same-Spin Energy      =      -0.1882298135347880 [Eh]
	 SCS Opposite-Spin Energy  =      -2.0337519704963509 [Eh]
	 SCS Correlation Energy    =      -2.2219817840311391 [Eh]
	 SCS Total Energy          =    -874.3767373216974192 [Eh]
	-----------------------------------------------------------

  Dipole Moment: [D]
     X:     3.5391      Y:     2.4817      Z:     3.5931     Total:     5.6209

*** Psi4 exiting successfully. Buy a developer a beer!
