                               Psi4 1.3.2 release

  ==> Input File <==

--------------------------------------------------------------------------
#psi4
#
memory 32 gb

molecule  {
0 1
  S       -1.2780750    -0.4285550    -0.3473560
  O       -1.8613734     0.3268239    -1.4550720
  O       -1.5418650    -1.8618310    -0.2285910
  N       -1.9572890     0.2613030     1.0109670
  C        0.4825990    -0.1948140    -0.1956820
  C        1.2351140    -1.1400330     0.5076890
  C        1.0704270     0.9572020    -0.7248240
  C        2.6038020    -0.9271140     0.6719040
  C        2.4412730     1.1569670    -0.5509020
  C        3.2049670     0.2235900     0.1537530
  C       -1.7662690     1.6987010     1.2148980
  H        0.7580870    -2.0438460     0.8774600
  H        0.4673030     1.6551460    -1.2987640
  H       -1.7702480    -0.3190170     1.8277200
  H        3.2028270    -1.6614550     1.2045750
  H        2.9128080     2.0436310    -0.9672160
  H        4.2723800     0.3833040     0.2839750
  H       -2.3988760     2.0038020     2.0501250
  H       -2.1043290     2.2146560     0.3162530
  H       -0.7257680     1.9753910     1.4267290
units angstrom
no_reorient  #important for SAPT in psi4, default
symmetry c1  #important for SAPT in psi4, default
}

set PROPERTIES_ORIGIN ["COM"]
properties('MP2/aug-cc-pvtz', properties = ['dipole'])
--------------------------------------------------------------------------

    Molecular point group: c1
  Charge       = 0
  Multiplicity = 1
  Basis Set: AUG-CC-PVTZ
    Blend: AUG-CC-PVTZ
  Basis Set: (AUG-CC-PVTZ AUX)
    Blend: AUG-CC-PVTZ-JKFIT

    Orbital Energies [Eh]
    ---------------------

    Doubly Occupied:

       1A    -92.200697     2A    -20.544543     3A    -20.541386
       4A    -15.600174     5A    -11.289088     6A    -11.275381
       7A    -11.274951     8A    -11.274935     9A    -11.271513
      10A    -11.265691    11A    -11.265559    12A     -9.165874
      13A     -6.851032    14A     -6.850480    15A     -6.850204
      16A     -1.449896    17A     -1.330372    18A     -1.231148
      19A     -1.186129    20A     -1.062590    21A     -1.047676
      22A     -0.961561    23A     -0.896840    24A     -0.859816
      25A     -0.814167    26A     -0.749941    27A     -0.712293
      28A     -0.678010    29A     -0.671044    30A     -0.657452
      31A     -0.644549    32A     -0.620157    33A     -0.618317
      34A     -0.605094    35A     -0.565489    36A     -0.551804
      37A     -0.536724    38A     -0.527122    39A     -0.500087
      40A     -0.492564    41A     -0.467929    42A     -0.465118
      43A     -0.435191    44A     -0.371911    45A     -0.366432

  @DF-RHF Final Energy:  -872.15359556072406

   => Energetics <=

    Nuclear Repulsion Energy =            741.8433370053002136
    One-Electron Energy =               -2668.7960007292604132
    Two-Electron Energy =                1054.7990681632361429
    Total Energy =                       -872.1535955607239430
  Basis Set: (AUG-CC-PVTZ AUX)
    Blend: AUG-CC-PVTZ-RI
    Molecular point group: c1

    Geometry (in Angstrom), charge = 0, multiplicity = 1:

       Center              X                  Y                   Z               Mass
    ------------   -----------------  -----------------  -----------------  -----------------
         S           -1.238363752548    -0.387624676996    -0.317003008225    31.972071174400
         O           -1.821662152548     0.367754223004    -1.424719008225    15.994914619570
         O           -1.502153752548    -1.820900676996    -0.198238008225    15.994914619570
         N           -1.917577752548     0.302233323004     1.041319991775    14.003074004430
         C            0.522310247452    -0.153883676996    -0.165329008225    12.000000000000
         C            1.274825247452    -1.099102676996     0.538041991775    12.000000000000
         C            1.110138247452     0.998132323004    -0.694471008225    12.000000000000
         C            2.643513247452    -0.886183676996     0.702256991775    12.000000000000
         C            2.480984247452     1.197897323004    -0.520549008225    12.000000000000
         C            3.244678247452     0.264520323004     0.184105991775    12.000000000000
         C           -1.726557752548     1.739631323004     1.245250991775    12.000000000000
         H            0.797798247452    -2.002915676996     0.907812991775     1.007825032230
         H            0.507014247452     1.696076323004    -1.268411008225     1.007825032230
         H           -1.730536752548    -0.278086676996     1.858072991775     1.007825032230
         H            3.242538247452    -1.620524676996     1.234927991775     1.007825032230
         H            2.952519247452     2.084561323004    -0.936863008225     1.007825032230
         H            4.312091247452     0.424234323004     0.314327991775     1.007825032230
         H           -2.359164752548     2.044732323004     2.080477991775     1.007825032230
         H           -2.064617752548     2.255586323004     0.346605991775     1.007825032230
         H           -0.686056752548     2.016321323004     1.457081991775     1.007825032230

  Basis Set: AUG-CC-PVTZ
    Blend: AUG-CC-PVTZ
  Basis Set: (AUG-CC-PVTZ AUX)
    Blend: AUG-CC-PVTZ-JKFIT
	 Reference Energy          =    -872.1535955607240567 [Eh]
	 Singles Energy            =      -0.0000000000000000 [Eh]
	 Same-Spin Energy          =      -0.5643687243225453 [Eh]
	 Opposite-Spin Energy      =      -1.6943209312798315 [Eh]
	 Correlation Energy        =      -2.2586896556023768 [Eh]
	 Total Energy              =    -874.4122852163263815 [Eh]

	 ================> DF-SCS-MP2 Energies <==================
	-----------------------------------------------------------
	 SCS Same-Spin Scale       =       0.3333333333333333 [-]
	 SCS Opposite-Spin Scale   =       1.2000000000000000 [-]
	 SCS Same-Spin Energy      =      -0.1881229081075151 [Eh]
	 SCS Opposite-Spin Energy  =      -2.0331851175357976 [Eh]
	 SCS Correlation Energy    =      -2.2213080256433129 [Eh]
	 SCS Total Energy          =    -874.3749035863673953 [Eh]
	-----------------------------------------------------------

  Dipole Moment: [D]
     X:     4.1933      Y:     2.6127      Z:     3.5410     Total:     6.0785

*** Psi4 exiting successfully. Buy a developer a beer!
