                               Psi4 1.3.2 release

  ==> Input File <==

--------------------------------------------------------------------------
#psi4
#
memory 32 gb

molecule  {
0 1
  S       -1.2780750    -0.4285550    -0.3473560
  O       -1.7200650     0.3779750    -1.4840280
  O       -1.5418650    -1.8618310    -0.2285910
  N       -1.8566571     0.2724274     0.8958946
  C        0.4825990    -0.1948140    -0.1956820
  C        1.2351140    -1.1400330     0.5076890
  C        1.0704270     0.9572020    -0.7248240
  C        2.6038020    -0.9271140     0.6719040
  C        2.4412730     1.1569670    -0.5509020
  C        3.2049670     0.2235900     0.1537530
  C       -1.7662690     1.6987010     1.2148980
  H        0.7580870    -2.0438460     0.8774600
  H        0.4673030     1.6551460    -1.2987640
  H       -1.7702480    -0.3190170     1.8277200
  H        3.2028270    -1.6614550     1.2045750
  H        2.9128080     2.0436310    -0.9672160
  H        4.2723800     0.3833040     0.2839750
  H       -2.3988760     2.0038020     2.0501250
  H       -2.1043290     2.2146560     0.3162530
  H       -0.7257680     1.9753910     1.4267290
units angstrom
no_reorient  #important for SAPT in psi4, default
symmetry c1  #important for SAPT in psi4, default
}

set PROPERTIES_ORIGIN ["COM"]
properties('MP2/aug-cc-pvtz', properties = ['dipole'])
--------------------------------------------------------------------------

    Molecular point group: c1
  Charge       = 0
  Multiplicity = 1
  Basis Set: AUG-CC-PVTZ
    Blend: AUG-CC-PVTZ
  Basis Set: (AUG-CC-PVTZ AUX)
    Blend: AUG-CC-PVTZ-JKFIT

    Orbital Energies [Eh]
    ---------------------

    Doubly Occupied:

       1A    -92.197769     2A    -20.544922     3A    -20.538231
       4A    -15.608800     5A    -11.285648     6A    -11.275190
       7A    -11.264876     8A    -11.264751     9A    -11.262668
      10A    -11.258349    11A    -11.258174    12A     -9.163741
      13A     -6.849603    14A     -6.848241    15A     -6.848161
      16A     -1.458889    17A     -1.333609    18A     -1.253426
      19A     -1.177077    20A     -1.053302    21A     -1.039223
      22A     -0.985376    23A     -0.884952    24A     -0.851337
      25A     -0.807933    26A     -0.751611    27A     -0.712787
      28A     -0.685174    29A     -0.676152    30A     -0.651269
      31A     -0.640163    32A     -0.621011    33A     -0.612692
      34A     -0.610490    35A     -0.558741    36A     -0.544715
      37A     -0.530509    38A     -0.518883    39A     -0.510147
      40A     -0.493430    41A     -0.468854    42A     -0.465763
      43A     -0.439875    44A     -0.361807    45A     -0.358984

  @DF-RHF Final Energy:  -872.13857568413857

   => Energetics <=

    Nuclear Repulsion Energy =            747.6743503051438893
    One-Electron Energy =               -2680.5712512068657816
    Two-Electron Energy =                1060.7583252175832058
    Total Energy =                       -872.1385756841386865
  Basis Set: (AUG-CC-PVTZ AUX)
    Blend: AUG-CC-PVTZ-RI
    Molecular point group: c1

    Geometry (in Angstrom), charge = 0, multiplicity = 1:

       Center              X                  Y                   Z               Mass
    ------------   -----------------  -----------------  -----------------  -----------------
         S           -1.259817625502    -0.393319014399    -0.304873846167    31.972071174400
         O           -1.701807625502     0.413210985601    -1.441545846167    15.994914619570
         O           -1.523607625502    -1.826595014399    -0.186108846167    15.994914619570
         N           -1.838399725502     0.307663385601     0.938376753833    14.003074004430
         C            0.500856374498    -0.159578014399    -0.153199846167    12.000000000000
         C            1.253371374498    -1.104797014399     0.550171153833    12.000000000000
         C            1.088684374498     0.992437985601    -0.682341846167    12.000000000000
         C            2.622059374498    -0.891878014399     0.714386153833    12.000000000000
         C            2.459530374498     1.192202985601    -0.508419846167    12.000000000000
         C            3.223224374498     0.258825985601     0.196235153833    12.000000000000
         C           -1.748011625502     1.733936985601     1.257380153833    12.000000000000
         H            0.776344374498    -2.008610014399     0.919942153833     1.007825032230
         H            0.485560374498     1.690381985601    -1.256281846167     1.007825032230
         H           -1.751990625502    -0.283781014399     1.870202153833     1.007825032230
         H            3.221084374498    -1.626219014399     1.247057153833     1.007825032230
         H            2.931065374498     2.078866985601    -0.924733846167     1.007825032230
         H            4.290637374498     0.418539985601     0.326457153833     1.007825032230
         H           -2.380618625502     2.039037985601     2.092607153833     1.007825032230
         H           -2.086071625502     2.249891985601     0.358735153833     1.007825032230
         H           -0.707510625502     2.010626985601     1.469211153833     1.007825032230

  Basis Set: AUG-CC-PVTZ
    Blend: AUG-CC-PVTZ
  Basis Set: (AUG-CC-PVTZ AUX)
    Blend: AUG-CC-PVTZ-JKFIT
	 Reference Energy          =    -872.1385756841385728 [Eh]
	 Singles Energy            =      -0.0000000000000000 [Eh]
	 Same-Spin Energy          =      -0.5651287969154899 [Eh]
	 Opposite-Spin Energy      =      -1.6940410102902788 [Eh]
	 Correlation Energy        =      -2.2591698072057689 [Eh]
	 Total Energy              =    -874.3977454913443808 [Eh]

	 ================> DF-SCS-MP2 Energies <==================
	-----------------------------------------------------------
	 SCS Same-Spin Scale       =       0.3333333333333333 [-]
	 SCS Opposite-Spin Scale   =       1.2000000000000000 [-]
	 SCS Same-Spin Energy      =      -0.1883762656384966 [Eh]
	 SCS Opposite-Spin Energy  =      -2.0328492123483346 [Eh]
	 SCS Correlation Energy    =      -2.2212254779868310 [Eh]
	 SCS Total Energy          =    -874.3598011621254500 [Eh]
	-----------------------------------------------------------

  Dipole Moment: [D]
     X:     3.0353      Y:     2.6829      Z:     4.1253     Total:     5.7818

*** Psi4 exiting successfully. Buy a developer a beer!
