                               Psi4 1.4a3.dev225

  ==> Input File <==

--------------------------------------------------------------------------
#psi4
#
memory 32 gb

molecule  {
0 1
  S       -1.2780750    -0.4285550    -0.3473560
  O       -1.7140192     0.3669429    -1.4684800
  O       -1.5418650    -1.8618310    -0.2285910
  N       -1.9572890     0.2613030     1.0109670
  C        0.4825990    -0.1948140    -0.1956820
  C        1.2351140    -1.1400330     0.5076890
  C        1.0704270     0.9572020    -0.7248240
  C        2.6038020    -0.9271140     0.6719040
  C        2.4412730     1.1569670    -0.5509020
  C        3.2049670     0.2235900     0.1537530
  C       -1.7662690     1.6987010     1.2148980
  H        0.7580870    -2.0438460     0.8774600
  H        0.4673030     1.6551460    -1.2987640
  H       -1.7702480    -0.3190170     1.8277200
  H        3.2028270    -1.6614550     1.2045750
  H        2.9128080     2.0436310    -0.9672160
  H        4.2723800     0.3833040     0.2839750
  H       -2.3988760     2.0038020     2.0501250
  H       -2.1043290     2.2146560     0.3162530
  H       -0.7257680     1.9753910     1.4267290
units angstrom
no_reorient  #important for SAPT in psi4, default
symmetry c1  #important for SAPT in psi4, default
}

set PROPERTIES_ORIGIN ["COM"]
properties('MP2/aug-cc-pvtz', properties = ['dipole'])
--------------------------------------------------------------------------

    Molecular point group: c1
  Charge       = 0
  Multiplicity = 1
  Basis Set: AUG-CC-PVTZ
    Blend: AUG-CC-PVTZ
  Basis Set: (AUG-CC-PVTZ AUX)
    Blend: AUG-CC-PVTZ-JKFIT

    Orbital Energies [Eh]
    ---------------------

    Doubly Occupied:

       1A    -92.201159     2A    -20.547733     3A    -20.545797
       4A    -15.603180     5A    -11.281588     6A    -11.276131
       7A    -11.270161     8A    -11.269928     9A    -11.267428
      10A    -11.261790    11A    -11.261641    12A     -9.166390
      13A     -6.851554    14A     -6.851023    15A     -6.850899
      16A     -1.458654    17A     -1.341636    18A     -1.233862
      19A     -1.181492    20A     -1.057362    21A     -1.043363
      22A     -0.962339    23A     -0.892887    24A     -0.855398
      25A     -0.812938    26A     -0.750475    27A     -0.713112
      28A     -0.678165    29A     -0.672883    30A     -0.655269
      31A     -0.641655    32A     -0.622825    33A     -0.615635
      34A     -0.608170    35A     -0.567004    36A     -0.548416
      37A     -0.532836    38A     -0.523006    39A     -0.505783
      40A     -0.499696    41A     -0.475658    42A     -0.466567
      43A     -0.434726    44A     -0.367675    45A     -0.362555

  @DF-RHF Final Energy:  -872.15726625612638

   => Energetics <=

    Nuclear Repulsion Energy =            743.7963129208798136
    One-Electron Energy =               -2672.7302731834870428
    Two-Electron Energy =                1056.7766940064809660
    Total Energy =                       -872.1572662561263769
  Basis Set: (AUG-CC-PVTZ AUX)
    Blend: AUG-CC-PVTZ-RI
    Molecular point group: c1

    Geometry (in Angstrom), charge = 0, multiplicity = 1:

       Center              X                  Y                   Z               Mass
    ------------   -----------------  -----------------  -----------------  -----------------
         S           -1.252144045118    -0.391376531763    -0.315749116834    31.972071174400
         O           -1.688088245118     0.404121368237    -1.436873116834    15.994914619570
         O           -1.515934045118    -1.824652531763    -0.196984116834    15.994914619570
         N           -1.931358045118     0.298481468237     1.042573883166    14.003074004430
         C            0.508529954882    -0.157635531763    -0.164075116834    12.000000000000
         C            1.261044954882    -1.102854531763     0.539295883166    12.000000000000
         C            1.096357954882     0.994380468237    -0.693217116834    12.000000000000
         C            2.629732954882    -0.889935531763     0.703510883166    12.000000000000
         C            2.467203954882     1.194145468237    -0.519295116834    12.000000000000
         C            3.230897954882     0.260768468237     0.185359883166    12.000000000000
         C           -1.740338045118     1.735879468237     1.246504883166    12.000000000000
         H            0.784017954882    -2.006667531763     0.909066883166     1.007825032230
         H            0.493233954882     1.692324468237    -1.267157116834     1.007825032230
         H           -1.744317045118    -0.281838531763     1.859326883166     1.007825032230
         H            3.228757954882    -1.624276531763     1.236181883166     1.007825032230
         H            2.938738954882     2.080809468237    -0.935609116834     1.007825032230
         H            4.298310954882     0.420482468237     0.315581883166     1.007825032230
         H           -2.372945045118     2.040980468237     2.081731883166     1.007825032230
         H           -2.078398045118     2.251834468237     0.347859883166     1.007825032230
         H           -0.699837045118     2.012569468237     1.458335883166     1.007825032230

  Basis Set: AUG-CC-PVTZ
    Blend: AUG-CC-PVTZ
  Basis Set: (AUG-CC-PVTZ AUX)
    Blend: AUG-CC-PVTZ-JKFIT
	 Reference Energy          =    -872.1572662561263769 [Eh]
	 Singles Energy            =      -0.0000000000000000 [Eh]
	 Same-Spin Energy          =      -0.5641257613376236 [Eh]
	 Opposite-Spin Energy      =      -1.6935047770818488 [Eh]
	 Correlation Energy        =      -2.2576305384194724 [Eh]
	 Total Energy              =    -874.4148967945458253 [Eh]

	 ================> DF-SCS-MP2 Energies <==================
	-----------------------------------------------------------
	 SCS Same-Spin Scale       =       0.3333333333333333 [-]
	 SCS Opposite-Spin Scale   =       1.2000000000000000 [-]
	 SCS Same-Spin Energy      =      -0.1880419204458745 [Eh]
	 SCS Opposite-Spin Energy  =      -2.0322057324982183 [Eh]
	 SCS Correlation Energy    =      -2.2202476529440927 [Eh]
	 SCS Total Energy          =    -874.3775139090704442 [Eh]
	-----------------------------------------------------------

  Dipole Moment: [D]
     X:     3.6589      Y:     2.5525      Z:     3.5048     Total:     5.6733

*** Psi4 exiting successfully. Buy a developer a beer!
