                               Psi4 1.3.2 release

  ==> Input File <==

--------------------------------------------------------------------------
#psi4
#
memory 32 gb

molecule  {
0 1
  S       -1.2654730    -0.5332340    -0.2812917
  O       -1.7200650     0.3779750    -1.4840280
  O       -1.5418650    -1.8618310    -0.2285910
  N       -1.9572890     0.2613030     1.0109670
  C        0.4825990    -0.1948140    -0.1956820
  C        1.2351140    -1.1400330     0.5076890
  C        1.0704270     0.9572020    -0.7248240
  C        2.6038020    -0.9271140     0.6719040
  C        2.4412730     1.1569670    -0.5509020
  C        3.2049670     0.2235900     0.1537530
  C       -1.7662690     1.6987010     1.2148980
  H        0.7580870    -2.0438460     0.8774600
  H        0.4673030     1.6551460    -1.2987640
  H       -1.7702480    -0.3190170     1.8277200
  H        3.2028270    -1.6614550     1.2045750
  H        2.9128080     2.0436310    -0.9672160
  H        4.2723800     0.3833040     0.2839750
  H       -2.3988760     2.0038020     2.0501250
  H       -2.1043290     2.2146560     0.3162530
  H       -0.7257680     1.9753910     1.4267290
units angstrom
no_reorient  #important for SAPT in psi4, default
symmetry c1  #important for SAPT in psi4, default
}

set PROPERTIES_ORIGIN ["COM"]
properties('MP2/aug-cc-pvtz', properties = ['dipole'])
--------------------------------------------------------------------------

    Molecular point group: c1
  Charge       = 0
  Multiplicity = 1
  Basis Set: AUG-CC-PVTZ
    Blend: AUG-CC-PVTZ
  Basis Set: (AUG-CC-PVTZ AUX)
    Blend: AUG-CC-PVTZ-JKFIT

    Orbital Energies [Eh]
    ---------------------

    Doubly Occupied:

       1A    -92.197901     2A    -20.572508     3A    -20.519389
       4A    -15.605440     5A    -11.283073     6A    -11.275940
       7A    -11.271151     8A    -11.270341     9A    -11.268002
      10A    -11.262377    11A    -11.262142    12A     -9.165557
      13A     -6.850978    14A     -6.850038    15A     -6.849320
      16A     -1.497190    17A     -1.302943    18A     -1.227442
      19A     -1.182097    20A     -1.058763    21A     -1.043636
      22A     -0.966195    23A     -0.893533    24A     -0.856189
      25A     -0.811618    26A     -0.749100    27A     -0.714427
      28A     -0.687552    29A     -0.679960    30A     -0.657456
      31A     -0.643515    32A     -0.623458    33A     -0.616138
      34A     -0.611291    35A     -0.568229    36A     -0.553971
      37A     -0.533993    38A     -0.524842    39A     -0.514279
      40A     -0.494304    41A     -0.451334    42A     -0.445607
      43A     -0.432090    44A     -0.367972    45A     -0.363105

  @DF-RHF Final Energy:  -872.12680409606639

   => Energetics <=

    Nuclear Repulsion Energy =            742.7076772776530333
    One-Electron Energy =               -2670.5161953044721486
    Two-Electron Energy =                1055.6817139307527214
    Total Energy =                       -872.1268040960662802
  Basis Set: (AUG-CC-PVTZ AUX)
    Blend: AUG-CC-PVTZ-RI
    Molecular point group: c1

    Geometry (in Angstrom), charge = 0, multiplicity = 1:

       Center              X                  Y                   Z               Mass
    ------------   -----------------  -----------------  -----------------  -----------------
         S           -1.241332376165    -0.477519328460    -0.260580359935    31.972071174400
         O           -1.695924376165     0.433689671540    -1.463316659935    15.994914619570
         O           -1.517724376165    -1.806116328460    -0.207879659935    15.994914619570
         N           -1.933148376165     0.317017671540     1.031678340065    14.003074004430
         C            0.506739623835    -0.139099328460    -0.174970659935    12.000000000000
         C            1.259254623835    -1.084318328460     0.528400340065    12.000000000000
         C            1.094567623835     1.012916671540    -0.704112659935    12.000000000000
         C            2.627942623835    -0.871399328460     0.692615340065    12.000000000000
         C            2.465413623835     1.212681671540    -0.530190659935    12.000000000000
         C            3.229107623835     0.279304671540     0.174464340065    12.000000000000
         C           -1.742128376165     1.754415671540     1.235609340065    12.000000000000
         H            0.782227623835    -1.988131328460     0.898171340065     1.007825032230
         H            0.491443623835     1.710860671540    -1.278052659935     1.007825032230
         H           -1.746107376165    -0.263302328460     1.848431340065     1.007825032230
         H            3.226967623835    -1.605740328460     1.225286340065     1.007825032230
         H            2.936948623835     2.099345671540    -0.946504659935     1.007825032230
         H            4.296520623835     0.439018671540     0.304686340065     1.007825032230
         H           -2.374735376165     2.059516671540     2.070836340065     1.007825032230
         H           -2.080188376165     2.270370671540     0.336964340065     1.007825032230
         H           -0.701627376165     2.031105671540     1.447440340065     1.007825032230

  Basis Set: AUG-CC-PVTZ
    Blend: AUG-CC-PVTZ
  Basis Set: (AUG-CC-PVTZ AUX)
    Blend: AUG-CC-PVTZ-JKFIT
	 Reference Energy          =    -872.1268040960663939 [Eh]
	 Singles Energy            =      -0.0000000000000000 [Eh]
	 Same-Spin Energy          =      -0.5641637954008395 [Eh]
	 Opposite-Spin Energy      =      -1.6944494546571955 [Eh]
	 Correlation Energy        =      -2.2586132500580351 [Eh]
	 Total Energy              =    -874.3854173461244272 [Eh]

	 ================> DF-SCS-MP2 Energies <==================
	-----------------------------------------------------------
	 SCS Same-Spin Scale       =       0.3333333333333333 [-]
	 SCS Opposite-Spin Scale   =       1.2000000000000000 [-]
	 SCS Same-Spin Energy      =      -0.1880545984669465 [Eh]
	 SCS Opposite-Spin Energy  =      -2.0333393455886344 [Eh]
	 SCS Correlation Energy    =      -2.2213939440555808 [Eh]
	 SCS Total Energy          =    -874.3481980401219289 [Eh]
	-----------------------------------------------------------

  Dipole Moment: [D]
     X:     3.8390      Y:     1.6769      Z:     4.1478     Total:     5.8953

*** Psi4 exiting successfully. Buy a developer a beer!
