                               Psi4 1.3.2 release

  ==> Input File <==

--------------------------------------------------------------------------
#psi4
#
memory 32 gb

molecule  {
0 1
  S       -1.2780750    -0.4285550    -0.3473560
  O       -1.6666450     0.3155190    -1.5445345
  O       -1.5418650    -1.8618310    -0.2285910
  N       -1.9572890     0.2613030     1.0109670
  C        0.4825990    -0.1948140    -0.1956820
  C        1.2351140    -1.1400330     0.5076890
  C        1.0704270     0.9572020    -0.7248240
  C        2.6038020    -0.9271140     0.6719040
  C        2.4412730     1.1569670    -0.5509020
  C        3.2049670     0.2235900     0.1537530
  C       -1.7662690     1.6987010     1.2148980
  H        0.7580870    -2.0438460     0.8774600
  H        0.4673030     1.6551460    -1.2987640
  H       -1.7702480    -0.3190170     1.8277200
  H        3.2028270    -1.6614550     1.2045750
  H        2.9128080     2.0436310    -0.9672160
  H        4.2723800     0.3833040     0.2839750
  H       -2.3988760     2.0038020     2.0501250
  H       -2.1043290     2.2146560     0.3162530
  H       -0.7257680     1.9753910     1.4267290
units angstrom
no_reorient  #important for SAPT in psi4, default
symmetry c1  #important for SAPT in psi4, default
}

set PROPERTIES_ORIGIN ["COM"]
properties('MP2/aug-cc-pvtz', properties = ['dipole'])
--------------------------------------------------------------------------

    Molecular point group: c1
  Charge       = 0
  Multiplicity = 1
  Basis Set: AUG-CC-PVTZ
    Blend: AUG-CC-PVTZ
  Basis Set: (AUG-CC-PVTZ AUX)
    Blend: AUG-CC-PVTZ-JKFIT

    Orbital Energies [Eh]
    ---------------------

    Doubly Occupied:

       1A    -92.203142     2A    -20.548164     3A    -20.544188
       4A    -15.609346     5A    -11.280639     6A    -11.279781
       7A    -11.269179     8A    -11.269054     9A    -11.266587
      10A    -11.261114    11A    -11.260968    12A     -9.168074
      13A     -6.853212    14A     -6.852662    15A     -6.852505
      16A     -1.451832    17A     -1.334418    18A     -1.239346
      19A     -1.180667    20A     -1.056577    21A     -1.042590
      22A     -0.965955    23A     -0.893552    24A     -0.854656
      25A     -0.814872    26A     -0.750203    27A     -0.711989
      28A     -0.677585    29A     -0.673560    30A     -0.655366
      31A     -0.640823    32A     -0.621355    33A     -0.614844
      34A     -0.609209    35A     -0.570769    36A     -0.547060
      37A     -0.532617    38A     -0.522218    39A     -0.504594
      40A     -0.496094    41A     -0.471749    42A     -0.468005
      43A     -0.436584    44A     -0.366947    45A     -0.361902

  @DF-RHF Final Energy:  -872.15461327309231

   => Energetics <=

    Nuclear Repulsion Energy =            742.6450218937064847
    One-Electron Energy =               -2670.4261584870705519
    Two-Electron Energy =                1055.6265233202716445
    Total Energy =                       -872.1546132730923091
  Basis Set: (AUG-CC-PVTZ AUX)
    Blend: AUG-CC-PVTZ-RI
    Molecular point group: c1

    Geometry (in Angstrom), charge = 0, multiplicity = 1:

       Center              X                  Y                   Z               Mass
    ------------   -----------------  -----------------  -----------------  -----------------
         S           -1.256574392786    -0.386567463632    -0.308636640493    31.972071174400
         O           -1.645144392786     0.357506536368    -1.505815140493    15.994914619570
         O           -1.520364392786    -1.819843463632    -0.189871640493    15.994914619570
         N           -1.935788392786     0.303290536368     1.049686359507    14.003074004430
         C            0.504099607214    -0.152826463632    -0.156962640493    12.000000000000
         C            1.256614607214    -1.098045463632     0.546408359507    12.000000000000
         C            1.091927607214     0.999189536368    -0.686104640493    12.000000000000
         C            2.625302607214    -0.885126463632     0.710623359507    12.000000000000
         C            2.462773607214     1.198954536368    -0.512182640493    12.000000000000
         C            3.226467607214     0.265577536368     0.192472359507    12.000000000000
         C           -1.744768392786     1.740688536368     1.253617359507    12.000000000000
         H            0.779587607214    -2.001858463632     0.916179359507     1.007825032230
         H            0.488803607214     1.697133536368    -1.260044640493     1.007825032230
         H           -1.748747392786    -0.277029463632     1.866439359507     1.007825032230
         H            3.224327607214    -1.619467463632     1.243294359507     1.007825032230
         H            2.934308607214     2.085618536368    -0.928496640493     1.007825032230
         H            4.293880607214     0.425291536368     0.322694359507     1.007825032230
         H           -2.377375392786     2.045789536368     2.088844359507     1.007825032230
         H           -2.082828392786     2.256643536368     0.354972359507     1.007825032230
         H           -0.704267392786     2.017378536368     1.465448359507     1.007825032230

  Basis Set: AUG-CC-PVTZ
    Blend: AUG-CC-PVTZ
  Basis Set: (AUG-CC-PVTZ AUX)
    Blend: AUG-CC-PVTZ-JKFIT
	 Reference Energy          =    -872.1546132730923091 [Eh]
	 Singles Energy            =      -0.0000000000000000 [Eh]
	 Same-Spin Energy          =      -0.5644138281455457 [Eh]
	 Opposite-Spin Energy      =      -1.6943915232333013 [Eh]
	 Correlation Energy        =      -2.2588053513788471 [Eh]
	 Total Energy              =    -874.4134186244712055 [Eh]

	 ================> DF-SCS-MP2 Energies <==================
	-----------------------------------------------------------
	 SCS Same-Spin Scale       =       0.3333333333333333 [-]
	 SCS Opposite-Spin Scale   =       1.2000000000000000 [-]
	 SCS Same-Spin Energy      =      -0.1881379427151819 [Eh]
	 SCS Opposite-Spin Energy  =      -2.0332698278799617 [Eh]
	 SCS Correlation Energy    =      -2.2214077705951434 [Eh]
	 SCS Total Energy          =    -874.3760210436875013 [Eh]
	-----------------------------------------------------------

  Dipole Moment: [D]
     X:     3.5232      Y:     2.6801      Z:     3.7274     Total:     5.7870

*** Psi4 exiting successfully. Buy a developer a beer!
