                               Psi4 1.3.2 release

  ==> Input File <==

--------------------------------------------------------------------------
#psi4
#
memory 32 gb

molecule  {
0 1
  S       -1.2728434    -0.4810689    -0.3143961
  O       -1.7200650     0.3779750    -1.4840280
  O       -1.5418650    -1.8618310    -0.2285910
  N       -1.9572890     0.2613030     1.0109670
  C        0.4825990    -0.1948140    -0.1956820
  C        1.2351140    -1.1400330     0.5076890
  C        1.0704270     0.9572020    -0.7248240
  C        2.6038020    -0.9271140     0.6719040
  C        2.4412730     1.1569670    -0.5509020
  C        3.2049670     0.2235900     0.1537530
  C       -1.7662690     1.6987010     1.2148980
  H        0.7580870    -2.0438460     0.8774600
  H        0.4673030     1.6551460    -1.2987640
  H       -1.7702480    -0.3190170     1.8277200
  H        3.2028270    -1.6614550     1.2045750
  H        2.9128080     2.0436310    -0.9672160
  H        4.2723800     0.3833040     0.2839750
  H       -2.3988760     2.0038020     2.0501250
  H       -2.1043290     2.2146560     0.3162530
  H       -0.7257680     1.9753910     1.4267290
units angstrom
no_reorient  #important for SAPT in psi4, default
symmetry c1  #important for SAPT in psi4, default
}

set PROPERTIES_ORIGIN ["COM"]
properties('MP2/aug-cc-pvtz', properties = ['dipole'])
--------------------------------------------------------------------------

    Molecular point group: c1
  Charge       = 0
  Multiplicity = 1
  Basis Set: AUG-CC-PVTZ
    Blend: AUG-CC-PVTZ
  Basis Set: (AUG-CC-PVTZ AUX)
    Blend: AUG-CC-PVTZ-JKFIT

    Orbital Energies [Eh]
    ---------------------

    Doubly Occupied:

       1A    -92.201688     2A    -20.560222     3A    -20.533308
       4A    -15.605088     5A    -11.282691     6A    -11.276277
       7A    -11.270835     8A    -11.270369     9A    -11.267900
      10A    -11.262216    11A    -11.262024    12A     -9.167258
      13A     -6.852431    14A     -6.851976    15A     -6.851428
      16A     -1.465623    17A     -1.325178    18A     -1.233179
      19A     -1.182004    20A     -1.058170    21A     -1.043727
      22A     -0.964885    23A     -0.893421    24A     -0.855986
      25A     -0.812540    26A     -0.748922    27A     -0.712163
      28A     -0.681581    29A     -0.673994    30A     -0.656548
      31A     -0.642227    32A     -0.620165    33A     -0.615976
      34A     -0.609727    35A     -0.566394    36A     -0.549660
      37A     -0.533460    38A     -0.523914    39A     -0.506756
      40A     -0.498375    41A     -0.466626    42A     -0.459211
      43A     -0.435197    44A     -0.368065    45A     -0.363059

  @DF-RHF Final Energy:  -872.14835223841942

   => Energetics <=

    Nuclear Repulsion Energy =            742.6838333000148396
    One-Electron Energy =               -2670.4994845871437974
    Two-Electron Energy =                1055.6672990487095376
    Total Energy =                       -872.1483522384194202
  Basis Set: (AUG-CC-PVTZ AUX)
    Blend: AUG-CC-PVTZ-RI
    Molecular point group: c1

    Geometry (in Angstrom), charge = 0, multiplicity = 1:

       Center              X                  Y                   Z               Mass
    ------------   -----------------  -----------------  -----------------  -----------------
         S           -1.247325009026    -0.435105579893    -0.287496472394    31.972071174400
         O           -1.694546609026     0.423938320107    -1.457128372394    15.994914619570
         O           -1.516346609026    -1.815867679893    -0.201691372394    15.994914619570
         N           -1.931770609026     0.307266320107     1.037866627606    14.003074004430
         C            0.508117390974    -0.148850679893    -0.168782372394    12.000000000000
         C            1.260632390974    -1.094069679893     0.534588627606    12.000000000000
         C            1.095945390974     1.003165320107    -0.697924372394    12.000000000000
         C            2.629320390974    -0.881150679893     0.698803627606    12.000000000000
         C            2.466791390974     1.202930320107    -0.524002372394    12.000000000000
         C            3.230485390974     0.269553320107     0.180652627606    12.000000000000
         C           -1.740750609026     1.744664320107     1.241797627606    12.000000000000
         H            0.783605390974    -1.997882679893     0.904359627606     1.007825032230
         H            0.492821390974     1.701109320107    -1.271864372394     1.007825032230
         H           -1.744729609026    -0.273053679893     1.854619627606     1.007825032230
         H            3.228345390974    -1.615491679893     1.231474627606     1.007825032230
         H            2.938326390974     2.089594320107    -0.940316372394     1.007825032230
         H            4.297898390974     0.429267320107     0.310874627606     1.007825032230
         H           -2.373357609026     2.049765320107     2.077024627606     1.007825032230
         H           -2.078810609026     2.260619320107     0.343152627606     1.007825032230
         H           -0.700249609026     2.021354320107     1.453628627606     1.007825032230

  Basis Set: AUG-CC-PVTZ
    Blend: AUG-CC-PVTZ
  Basis Set: (AUG-CC-PVTZ AUX)
    Blend: AUG-CC-PVTZ-JKFIT
	 Reference Energy          =    -872.1483522384194202 [Eh]
	 Singles Energy            =      -0.0000000000000000 [Eh]
	 Same-Spin Energy          =      -0.5644738696730911 [Eh]
	 Opposite-Spin Energy      =      -1.6945620126821690 [Eh]
	 Correlation Energy        =      -2.2590358823552599 [Eh]
	 Total Energy              =    -874.4073881207747263 [Eh]

	 ================> DF-SCS-MP2 Energies <==================
	-----------------------------------------------------------
	 SCS Same-Spin Scale       =       0.3333333333333333 [-]
	 SCS Opposite-Spin Scale   =       1.2000000000000000 [-]
	 SCS Same-Spin Energy      =      -0.1881579565576970 [Eh]
	 SCS Opposite-Spin Energy  =      -2.0334744152186026 [Eh]
	 SCS Correlation Energy    =      -2.2216323717762996 [Eh]
	 SCS Total Energy          =    -874.3699846101957291 [Eh]
	-----------------------------------------------------------

  Dipole Moment: [D]
     X:     3.7556      Y:     2.0907      Z:     3.8612     Total:     5.7779

*** Psi4 exiting successfully. Buy a developer a beer!
