                               Psi4 1.3.2 release

  ==> Input File <==

--------------------------------------------------------------------------
#psi4
#
memory 32 gb

molecule  {
0 1
  S       -1.2780750    -0.4285550    -0.3473560
  O       -1.7200650     0.3779750    -1.4840280
  O       -1.5418650    -1.8618310    -0.2285910
  N       -1.9038845     0.2758168     1.0290524
  C        0.4825990    -0.1948140    -0.1956820
  C        1.2351140    -1.1400330     0.5076890
  C        1.0704270     0.9572020    -0.7248240
  C        2.6038020    -0.9271140     0.6719040
  C        2.4412730     1.1569670    -0.5509020
  C        3.2049670     0.2235900     0.1537530
  C       -1.7662690     1.6987010     1.2148980
  H        0.7580870    -2.0438460     0.8774600
  H        0.4673030     1.6551460    -1.2987640
  H       -1.7702480    -0.3190170     1.8277200
  H        3.2028270    -1.6614550     1.2045750
  H        2.9128080     2.0436310    -0.9672160
  H        4.2723800     0.3833040     0.2839750
  H       -2.3988760     2.0038020     2.0501250
  H       -2.1043290     2.2146560     0.3162530
  H       -0.7257680     1.9753910     1.4267290
units angstrom
no_reorient  #important for SAPT in psi4, default
symmetry c1  #important for SAPT in psi4, default
}

set PROPERTIES_ORIGIN ["COM"]
properties('MP2/aug-cc-pvtz', properties = ['dipole'])
--------------------------------------------------------------------------

    Molecular point group: c1
  Charge       = 0
  Multiplicity = 1
  Basis Set: AUG-CC-PVTZ
    Blend: AUG-CC-PVTZ
  Basis Set: (AUG-CC-PVTZ AUX)
    Blend: AUG-CC-PVTZ-JKFIT

    Orbital Energies [Eh]
    ---------------------

    Doubly Occupied:

       1A    -92.204640     2A    -20.549545     3A    -20.549141
       4A    -15.600474     5A    -11.281149     6A    -11.274883
       7A    -11.269225     8A    -11.269115     9A    -11.266452
      10A    -11.261207    11A    -11.261032    12A     -9.169247
      13A     -6.854449    14A     -6.853857    15A     -6.853710
      16A     -1.453276    17A     -1.338400    18A     -1.239918
      19A     -1.180803    20A     -1.057123    21A     -1.042650
      22A     -0.965340    23A     -0.893505    24A     -0.854751
      25A     -0.815018    26A     -0.750137    27A     -0.713905
      28A     -0.679684    29A     -0.674027    30A     -0.655343
      31A     -0.641295    32A     -0.621912    33A     -0.615206
      34A     -0.613334    35A     -0.568358    36A     -0.547279
      37A     -0.531981    38A     -0.522313    39A     -0.505730
      40A     -0.499625    41A     -0.475753    42A     -0.465482
      43A     -0.430864    44A     -0.366199    45A     -0.361802

  @DF-RHF Final Energy:  -872.15518728436768

   => Energetics <=

    Nuclear Repulsion Energy =            743.4337166047826031
    One-Electron Energy =               -2671.9795295628409804
    Two-Electron Energy =                1056.3906256736906926
    Total Energy =                       -872.1551872843676847
  Basis Set: (AUG-CC-PVTZ AUX)
    Blend: AUG-CC-PVTZ-RI
    Molecular point group: c1

    Geometry (in Angstrom), charge = 0, multiplicity = 1:

       Center              X                  Y                   Z               Mass
    ------------   -----------------  -----------------  -----------------  -----------------
         S           -1.255951006204    -0.393596512619    -0.315775791208    31.972071174400
         O           -1.697941006204     0.412933487381    -1.452447791208    15.994914619570
         O           -1.519741006204    -1.826872512619    -0.197010791208    15.994914619570
         N           -1.881760506204     0.310775287381     1.060632608792    14.003074004430
         C            0.504722993796    -0.159855512619    -0.164101791208    12.000000000000
         C            1.257237993796    -1.105074512619     0.539269208792    12.000000000000
         C            1.092550993796     0.992160487381    -0.693243791208    12.000000000000
         C            2.625925993796    -0.892155512619     0.703484208792    12.000000000000
         C            2.463396993796     1.191925487381    -0.519321791208    12.000000000000
         C            3.227090993796     0.258548487381     0.185333208792    12.000000000000
         C           -1.744145006204     1.733659487381     1.246478208792    12.000000000000
         H            0.780210993796    -2.008887512619     0.909040208792     1.007825032230
         H            0.489426993796     1.690104487381    -1.267183791208     1.007825032230
         H           -1.748124006204    -0.284058512619     1.859300208792     1.007825032230
         H            3.224950993796    -1.626496512619     1.236155208792     1.007825032230
         H            2.934931993796     2.078589487381    -0.935635791208     1.007825032230
         H            4.294503993796     0.418262487381     0.315555208792     1.007825032230
         H           -2.376752006204     2.038760487381     2.081705208792     1.007825032230
         H           -2.082205006204     2.249614487381     0.347833208792     1.007825032230
         H           -0.703644006204     2.010349487381     1.458309208792     1.007825032230

  Basis Set: AUG-CC-PVTZ
    Blend: AUG-CC-PVTZ
  Basis Set: (AUG-CC-PVTZ AUX)
    Blend: AUG-CC-PVTZ-JKFIT
	 Reference Energy          =    -872.1551872843676847 [Eh]
	 Singles Energy            =      -0.0000000000000000 [Eh]
	 Same-Spin Energy          =      -0.5646338806396015 [Eh]
	 Opposite-Spin Energy      =      -1.6942636737405308 [Eh]
	 Correlation Energy        =      -2.2588975543801322 [Eh]
	 Total Energy              =    -874.4140848387478400 [Eh]

	 ================> DF-SCS-MP2 Energies <==================
	-----------------------------------------------------------
	 SCS Same-Spin Scale       =       0.3333333333333333 [-]
	 SCS Opposite-Spin Scale   =       1.2000000000000000 [-]
	 SCS Same-Spin Energy      =      -0.1882112935465338 [Eh]
	 SCS Opposite-Spin Energy  =      -2.0331164084886368 [Eh]
	 SCS Correlation Energy    =      -2.2213277020351705 [Eh]
	 SCS Total Energy          =    -874.3765149864028672 [Eh]
	-----------------------------------------------------------

  Dipole Moment: [D]
     X:     3.5055      Y:     2.4501      Z:     3.5557     Total:     5.5619

*** Psi4 exiting successfully. Buy a developer a beer!
