                               Psi4 1.3.2 release

  ==> Input File <==

--------------------------------------------------------------------------
#psi4
#
memory 32 gb

molecule  {
0 1
  S       -1.2780750    -0.4285550    -0.3473560
  O       -1.7200650     0.3779750    -1.4840280
  O       -1.5418650    -1.8618310    -0.2285910
  N       -1.9572890     0.2613030     1.0109670
  C        0.4825990    -0.1948140    -0.1956820
  C        1.2351140    -1.1400330     0.5076890
  C        1.0704270     0.9572020    -0.7248240
  C        2.6038020    -0.9271140     0.6719040
  C        2.4412730     1.1569670    -0.5509020
  C        3.2049670     0.2235900     0.1537530
  C       -1.7398170     1.6778610     1.3113981
  H        0.7580870    -2.0438460     0.8774600
  H        0.4673030     1.6551460    -1.2987640
  H       -1.7702480    -0.3190170     1.8277200
  H        3.2028270    -1.6614550     1.2045750
  H        2.9128080     2.0436310    -0.9672160
  H        4.2723800     0.3833040     0.2839750
  H       -2.3988760     2.0038020     2.0501250
  H       -2.1043290     2.2146560     0.3162530
  H       -0.7257680     1.9753910     1.4267290
units angstrom
no_reorient  #important for SAPT in psi4, default
symmetry c1  #important for SAPT in psi4, default
}

set PROPERTIES_ORIGIN ["COM"]
properties('MP2/aug-cc-pvtz', properties = ['dipole'])
--------------------------------------------------------------------------

    Molecular point group: c1
  Charge       = 0
  Multiplicity = 1
  Basis Set: AUG-CC-PVTZ
    Blend: AUG-CC-PVTZ
  Basis Set: (AUG-CC-PVTZ AUX)
    Blend: AUG-CC-PVTZ-JKFIT

    Orbital Energies [Eh]
    ---------------------

    Doubly Occupied:

       1A    -92.204669     2A    -20.548779     3A    -20.547491
       4A    -15.604553     5A    -11.283215     6A    -11.277004
       7A    -11.271093     8A    -11.270937     9A    -11.268319
      10A    -11.262638    11A    -11.262490    12A     -9.169368
      13A     -6.854584    14A     -6.853997    15A     -6.853755
      16A     -1.452630    17A     -1.337416    18A     -1.234724
      19A     -1.182475    20A     -1.058525    21A     -1.044247
      22A     -0.964569    23A     -0.893658    24A     -0.856311
      25A     -0.813487    26A     -0.749492    27A     -0.712509
      28A     -0.679594    29A     -0.675166    30A     -0.656796
      31A     -0.642975    32A     -0.628112    33A     -0.616804
      34A     -0.615421    35A     -0.549906    36A     -0.542362
      37A     -0.527652    38A     -0.523754    39A     -0.505245
      40A     -0.498451    41A     -0.474384    42A     -0.466785
      43A     -0.437898    44A     -0.368706    45A     -0.363522

  @DF-RHF Final Energy:  -872.14427236430811

   => Energetics <=

    Nuclear Repulsion Energy =            742.2807033757384261
    One-Electron Energy =               -2669.6370218955075870
    Two-Electron Energy =                1055.2120461554609392
    Total Energy =                       -872.1442723643081081
  Basis Set: (AUG-CC-PVTZ AUX)
    Blend: AUG-CC-PVTZ-RI
    Molecular point group: c1

    Geometry (in Angstrom), charge = 0, multiplicity = 1:

       Center              X                  Y                   Z               Mass
    ------------   -----------------  -----------------  -----------------  -----------------
         S           -1.253434549573    -0.390946079923    -0.321065631831    31.972071174400
         O           -1.695424549573     0.415583920077    -1.457737631831    15.994914619570
         O           -1.517224549573    -1.824222079923    -0.202300631831    15.994914619570
         N           -1.932648549573     0.298911920077     1.037257368169    14.003074004430
         C            0.507239450427    -0.157205079923    -0.169391631831    12.000000000000
         C            1.259754450427    -1.102424079923     0.533979368169    12.000000000000
         C            1.095067450427     0.994810920077    -0.698533631831    12.000000000000
         C            2.628442450427    -0.889505079923     0.698194368169    12.000000000000
         C            2.465913450427     1.194575920077    -0.524611631831    12.000000000000
         C            3.229607450427     0.261198920077     0.180043368169    12.000000000000
         C           -1.715176549573     1.715469920077     1.337688468169    12.000000000000
         H            0.782727450427    -2.006237079923     0.903750368169     1.007825032230
         H            0.491943450427     1.692754920077    -1.272473631831     1.007825032230
         H           -1.745607549573    -0.281408079923     1.854010368169     1.007825032230
         H            3.227467450427    -1.623846079923     1.230865368169     1.007825032230
         H            2.937448450427     2.081239920077    -0.940925631831     1.007825032230
         H            4.297020450427     0.420912920077     0.310265368169     1.007825032230
         H           -2.374235549573     2.041410920077     2.076415368169     1.007825032230
         H           -2.079688549573     2.252264920077     0.342543368169     1.007825032230
         H           -0.701127549573     2.012999920077     1.453019368169     1.007825032230

  Basis Set: AUG-CC-PVTZ
    Blend: AUG-CC-PVTZ
  Basis Set: (AUG-CC-PVTZ AUX)
    Blend: AUG-CC-PVTZ-JKFIT
	 Reference Energy          =    -872.1442723643081081 [Eh]
	 Singles Energy            =      -0.0000000000000000 [Eh]
	 Same-Spin Energy          =      -0.5648365943962137 [Eh]
	 Opposite-Spin Energy      =      -1.6953871049030140 [Eh]
	 Correlation Energy        =      -2.2602236992992277 [Eh]
	 Total Energy              =    -874.4044960636073256 [Eh]

	 ================> DF-SCS-MP2 Energies <==================
	-----------------------------------------------------------
	 SCS Same-Spin Scale       =       0.3333333333333333 [-]
	 SCS Opposite-Spin Scale   =       1.2000000000000000 [-]
	 SCS Same-Spin Energy      =      -0.1882788647987379 [Eh]
	 SCS Opposite-Spin Energy  =      -2.0344645258836169 [Eh]
	 SCS Correlation Energy    =      -2.2227433906823548 [Eh]
	 SCS Total Energy          =    -874.3670157549904616 [Eh]
	-----------------------------------------------------------

  Dipole Moment: [D]
     X:     3.7759      Y:     2.4510      Z:     3.5924     Total:     5.7593

*** Psi4 exiting successfully. Buy a developer a beer!
