                               Psi4 1.3.2 release

  ==> Input File <==

--------------------------------------------------------------------------
#psi4
#
memory 32 gb

molecule  {
0 1
  S       -1.2995668    -0.4800399    -0.3307071
  O       -1.7200650     0.3779750    -1.4840280
  O       -1.5418650    -1.8618310    -0.2285910
  N       -1.9572890     0.2613030     1.0109670
  C        0.4825990    -0.1948140    -0.1956820
  C        1.2351140    -1.1400330     0.5076890
  C        1.0704270     0.9572020    -0.7248240
  C        2.6038020    -0.9271140     0.6719040
  C        2.4412730     1.1569670    -0.5509020
  C        3.2049670     0.2235900     0.1537530
  C       -1.7662690     1.6987010     1.2148980
  H        0.7580870    -2.0438460     0.8774600
  H        0.4673030     1.6551460    -1.2987640
  H       -1.7702480    -0.3190170     1.8277200
  H        3.2028270    -1.6614550     1.2045750
  H        2.9128080     2.0436310    -0.9672160
  H        4.2723800     0.3833040     0.2839750
  H       -2.3988760     2.0038020     2.0501250
  H       -2.1043290     2.2146560     0.3162530
  H       -0.7257680     1.9753910     1.4267290
units angstrom
no_reorient  #important for SAPT in psi4, default
symmetry c1  #important for SAPT in psi4, default
}

set PROPERTIES_ORIGIN ["COM"]
properties('MP2/aug-cc-pvtz', properties = ['dipole'])
--------------------------------------------------------------------------

    Molecular point group: c1
  Charge       = 0
  Multiplicity = 1
  Basis Set: AUG-CC-PVTZ
    Blend: AUG-CC-PVTZ
  Basis Set: (AUG-CC-PVTZ AUX)
    Blend: AUG-CC-PVTZ-JKFIT

    Orbital Energies [Eh]
    ---------------------

    Doubly Occupied:

       1A    -92.203030     2A    -20.561527     3A    -20.539192
       4A    -15.604354     5A    -11.281027     6A    -11.276288
       7A    -11.267806     8A    -11.267359     9A    -11.265077
      10A    -11.260232    11A    -11.260030    12A     -9.168229
      13A     -6.853446    14A     -6.852981    15A     -6.852508
      16A     -1.470362    17A     -1.337589    18A     -1.233465
      19A     -1.178838    20A     -1.052917    21A     -1.041285
      22A     -0.963993    23A     -0.888115    24A     -0.853208
      25A     -0.812129    26A     -0.747641    27A     -0.713038
      28A     -0.680992    29A     -0.674874    30A     -0.654025
      31A     -0.640854    32A     -0.623615    33A     -0.614458
      34A     -0.610230    35A     -0.566803    36A     -0.548769
      37A     -0.530871    38A     -0.521679    39A     -0.510563
      40A     -0.502485    41A     -0.474811    42A     -0.462204
      43A     -0.431889    44A     -0.365241    45A     -0.360938

  @DF-RHF Final Energy:  -872.15091082208335

   => Energetics <=

    Nuclear Repulsion Energy =            742.2536500636534811
    One-Electron Energy =               -2669.6471837489038990
    Two-Electron Energy =                1055.2426228631672984
    Total Energy =                       -872.1509108220832331
  Basis Set: (AUG-CC-PVTZ AUX)
    Blend: AUG-CC-PVTZ-RI
    Molecular point group: c1

    Geometry (in Angstrom), charge = 0, multiplicity = 1:

       Center              X                  Y                   Z               Mass
    ------------   -----------------  -----------------  -----------------  -----------------
         S           -1.269052937630    -0.434268933414    -0.300758416738    31.972071174400
         O           -1.689551137630     0.423745966586    -1.454079316738    15.994914619570
         O           -1.511351137630    -1.816060033414    -0.198642316738    15.994914619570
         N           -1.926775137630     0.307073966586     1.040915683262    14.003074004430
         C            0.513112862370    -0.149043033414    -0.165733316738    12.000000000000
         C            1.265627862370    -1.094262033414     0.537637683262    12.000000000000
         C            1.100940862370     1.002972966586    -0.694875316738    12.000000000000
         C            2.634315862370    -0.881343033414     0.701852683262    12.000000000000
         C            2.471786862370     1.202737966586    -0.520953316738    12.000000000000
         C            3.235480862370     0.269360966586     0.183701683262    12.000000000000
         C           -1.735755137630     1.744471966586     1.244846683262    12.000000000000
         H            0.788600862370    -1.998075033414     0.907408683262     1.007825032230
         H            0.497816862370     1.700916966586    -1.268815316738     1.007825032230
         H           -1.739734137630    -0.273246033414     1.857668683262     1.007825032230
         H            3.233340862370    -1.615684033414     1.234523683262     1.007825032230
         H            2.943321862370     2.089401966586    -0.937267316738     1.007825032230
         H            4.302893862370     0.429074966586     0.313923683262     1.007825032230
         H           -2.368362137630     2.049572966586     2.080073683262     1.007825032230
         H           -2.073815137630     2.260426966586     0.346201683262     1.007825032230
         H           -0.695254137630     2.021161966586     1.456677683262     1.007825032230

  Basis Set: AUG-CC-PVTZ
    Blend: AUG-CC-PVTZ
  Basis Set: (AUG-CC-PVTZ AUX)
    Blend: AUG-CC-PVTZ-JKFIT
	 Reference Energy          =    -872.1509108220833468 [Eh]
	 Singles Energy            =      -0.0000000000000000 [Eh]
	 Same-Spin Energy          =      -0.5640956565709538 [Eh]
	 Opposite-Spin Energy      =      -1.6939222827744271 [Eh]
	 Correlation Energy        =      -2.2580179393453808 [Eh]
	 Total Energy              =    -874.4089287614286832 [Eh]

	 ================> DF-SCS-MP2 Energies <==================
	-----------------------------------------------------------
	 SCS Same-Spin Scale       =       0.3333333333333333 [-]
	 SCS Opposite-Spin Scale   =       1.2000000000000000 [-]
	 SCS Same-Spin Energy      =      -0.1880318855236513 [Eh]
	 SCS Opposite-Spin Energy  =      -2.0327067393293126 [Eh]
	 SCS Correlation Energy    =      -2.2207386248529639 [Eh]
	 SCS Total Energy          =    -874.3716494469363170 [Eh]
	-----------------------------------------------------------

  Dipole Moment: [D]
     X:     3.4505      Y:     2.0798      Z:     3.7091     Total:     5.4762

*** Psi4 exiting successfully. Buy a developer a beer!
