                               Psi4 1.3.2 release

  ==> Input File <==

--------------------------------------------------------------------------
#psi4
#
memory 32 gb

molecule  {
0 1
  S       -1.2780750    -0.4285550    -0.3473560
  O       -1.7200650     0.3779750    -1.4840280
  O       -1.5418650    -1.8618310    -0.2285910
  N       -1.9572890     0.2613030     1.0109670
  C        0.4825990    -0.1948140    -0.1956820
  C        1.2351140    -1.1400330     0.5076890
  C        1.0704270     0.9572020    -0.7248240
  C        2.6038020    -0.9271140     0.6719040
  C        2.4412730     1.1569670    -0.5509020
  C        3.2049670     0.2235900     0.1537530
  C       -1.7269804     1.6648454     1.3591284
  H        0.7580870    -2.0438460     0.8774600
  H        0.4673030     1.6551460    -1.2987640
  H       -1.7702480    -0.3190170     1.8277200
  H        3.2028270    -1.6614550     1.2045750
  H        2.9128080     2.0436310    -0.9672160
  H        4.2723800     0.3833040     0.2839750
  H       -2.3988760     2.0038020     2.0501250
  H       -2.1043290     2.2146560     0.3162530
  H       -0.7257680     1.9753910     1.4267290
units angstrom
no_reorient  #important for SAPT in psi4, default
symmetry c1  #important for SAPT in psi4, default
}

set PROPERTIES_ORIGIN ["COM"]
properties('MP2/aug-cc-pvtz', properties = ['dipole'])
--------------------------------------------------------------------------

    Molecular point group: c1
  Charge       = 0
  Multiplicity = 1
  Basis Set: AUG-CC-PVTZ
    Blend: AUG-CC-PVTZ
  Basis Set: (AUG-CC-PVTZ AUX)
    Blend: AUG-CC-PVTZ-JKFIT

    Orbital Energies [Eh]
    ---------------------

    Doubly Occupied:

       1A    -92.205600     2A    -20.549601     3A    -20.547757
       4A    -15.605084     5A    -11.283553     6A    -11.278577
       7A    -11.271366     8A    -11.271182     9A    -11.268570
      10A    -11.262896    11A    -11.262746    12A     -9.170217
      13A     -6.855459    14A     -6.854847    15A     -6.854593
      16A     -1.453023    17A     -1.337802    18A     -1.235321
      19A     -1.182760    20A     -1.058862    21A     -1.044503
      22A     -0.965876    23A     -0.893919    24A     -0.856574
      25A     -0.813719    26A     -0.749538    27A     -0.712753
      28A     -0.680902    29A     -0.676802    30A     -0.657152
      31A     -0.644672    32A     -0.634228    33A     -0.617390
      34A     -0.616192    35A     -0.549950    36A     -0.539524
      37A     -0.524041    38A     -0.516541    39A     -0.506308
      40A     -0.498751    41A     -0.474697    42A     -0.465620
      43A     -0.437968    44A     -0.369004    45A     -0.363816

  @DF-RHF Final Energy:  -872.13194584559267

   => Energetics <=

    Nuclear Repulsion Energy =            742.0358272403029787
    One-Electron Energy =               -2669.0950282416029040
    Two-Electron Energy =                1054.9272551557073712
    Total Energy =                       -872.1319458455925542
  Basis Set: (AUG-CC-PVTZ AUX)
    Blend: AUG-CC-PVTZ-RI
    Molecular point group: c1

    Geometry (in Angstrom), charge = 0, multiplicity = 1:

       Center              X                  Y                   Z               Mass
    ------------   -----------------  -----------------  -----------------  -----------------
         S           -1.254335177164    -0.390032893529    -0.324414433313    31.972071174400
         O           -1.696325177164     0.416497106471    -1.461086433313    15.994914619570
         O           -1.518125177164    -1.823308893529    -0.205649433313    15.994914619570
         N           -1.933549177164     0.299825106471     1.033908566687    14.003074004430
         C            0.506338822836    -0.156291893529    -0.172740433313    12.000000000000
         C            1.258853822836    -1.101510893529     0.530630566687    12.000000000000
         C            1.094166822836     0.995724106471    -0.701882433313    12.000000000000
         C            2.627541822836    -0.888591893529     0.694845566687    12.000000000000
         C            2.465012822836     1.195489106471    -0.527960433313    12.000000000000
         C            3.228706822836     0.262112106471     0.176694566687    12.000000000000
         C           -1.703240577164     1.703367506471     1.382069966687    12.000000000000
         H            0.781826822836    -2.005323893529     0.900401566687     1.007825032230
         H            0.491042822836     1.693668106471    -1.275822433313     1.007825032230
         H           -1.746508177164    -0.280494893529     1.850661566687     1.007825032230
         H            3.226566822836    -1.622932893529     1.227516566687     1.007825032230
         H            2.936547822836     2.082153106471    -0.944274433313     1.007825032230
         H            4.296119822836     0.421826106471     0.306916566687     1.007825032230
         H           -2.375136177164     2.042324106471     2.073066566687     1.007825032230
         H           -2.080589177164     2.253178106471     0.339194566687     1.007825032230
         H           -0.702028177164     2.013913106471     1.449670566687     1.007825032230

  Basis Set: AUG-CC-PVTZ
    Blend: AUG-CC-PVTZ
  Basis Set: (AUG-CC-PVTZ AUX)
    Blend: AUG-CC-PVTZ-JKFIT
	 Reference Energy          =    -872.1319458455926679 [Eh]
	 Singles Energy            =      -0.0000000000000000 [Eh]
	 Same-Spin Energy          =      -0.5651371891709307 [Eh]
	 Opposite-Spin Energy      =      -1.6962199681952832 [Eh]
	 Correlation Energy        =      -2.2613571573662137 [Eh]
	 Total Energy              =    -874.3933030029588735 [Eh]

	 ================> DF-SCS-MP2 Energies <==================
	-----------------------------------------------------------
	 SCS Same-Spin Scale       =       0.3333333333333333 [-]
	 SCS Opposite-Spin Scale   =       1.2000000000000000 [-]
	 SCS Same-Spin Energy      =      -0.1883790630569769 [Eh]
	 SCS Opposite-Spin Energy  =      -2.0354639618343398 [Eh]
	 SCS Correlation Energy    =      -2.2238430248913166 [Eh]
	 SCS Total Energy          =    -874.3557888704839343 [Eh]
	-----------------------------------------------------------

  Dipole Moment: [D]
     X:     3.8109      Y:     2.4081      Z:     3.5908     Total:     5.7633

*** Psi4 exiting successfully. Buy a developer a beer!
