                               Psi4 1.4a3.dev225

  ==> Input File <==

--------------------------------------------------------------------------
#psi4
#
memory 32 gb

molecule  {
0 1
  S       -1.2780750    -0.4285550    -0.3473560
  O       -1.7200650     0.3779750    -1.4840280
  O       -1.5418650    -1.8618310    -0.2285910
  N       -1.9572890     0.2613030     1.0109670
  C        0.5319844    -0.1882578    -0.1914277
  C        1.2351140    -1.1400330     0.5076890
  C        1.0704270     0.9572020    -0.7248240
  C        2.6038020    -0.9271140     0.6719040
  C        2.4412730     1.1569670    -0.5509020
  C        3.2049670     0.2235900     0.1537530
  C       -1.7662690     1.6987010     1.2148980
  H        0.7580870    -2.0438460     0.8774600
  H        0.4673030     1.6551460    -1.2987640
  H       -1.7702480    -0.3190170     1.8277200
  H        3.2028270    -1.6614550     1.2045750
  H        2.9128080     2.0436310    -0.9672160
  H        4.2723800     0.3833040     0.2839750
  H       -2.3988760     2.0038020     2.0501250
  H       -2.1043290     2.2146560     0.3162530
  H       -0.7257680     1.9753910     1.4267290
units angstrom
no_reorient  #important for SAPT in psi4, default
symmetry c1  #important for SAPT in psi4, default
}

set PROPERTIES_ORIGIN ["COM"]
properties('MP2/aug-cc-pvtz', properties = ['dipole'])
--------------------------------------------------------------------------

    Molecular point group: c1
  Charge       = 0
  Multiplicity = 1
  Basis Set: AUG-CC-PVTZ
    Blend: AUG-CC-PVTZ
  Basis Set: (AUG-CC-PVTZ AUX)
    Blend: AUG-CC-PVTZ-JKFIT

    Orbital Energies [Eh]
    ---------------------

    Doubly Occupied:

       1A    -92.201725     2A    -20.547407     3A    -20.547381
       4A    -15.604638     5A    -11.282307     6A    -11.276533
       7A    -11.266683     8A    -11.266481     9A    -11.265633
      10A    -11.262202    11A    -11.261977    12A     -9.166457
      13A     -6.851594    14A     -6.850930    15A     -6.850833
      16A     -1.450596    17A     -1.336417    18A     -1.234076
      19A     -1.186930    20A     -1.055889    21A     -1.046581
      22A     -0.962411    23A     -0.886973    24A     -0.858847
      25A     -0.814497    26A     -0.749830    27A     -0.711430
      28A     -0.675006    29A     -0.671165    30A     -0.657350
      31A     -0.642371    32A     -0.622215    33A     -0.618174
      34A     -0.607265    35A     -0.566794    36A     -0.547636
      37A     -0.537013    38A     -0.527922    39A     -0.502183
      40A     -0.497729    41A     -0.473721    42A     -0.462858
      43A     -0.430427    44A     -0.370179    45A     -0.363617

  @DF-RHF Final Energy:  -872.15358538701889

   => Energetics <=

    Nuclear Repulsion Energy =            742.4372589690771065
    One-Electron Energy =               -2670.0399150100156476
    Two-Electron Energy =                1055.4490706539197618
    Total Energy =                       -872.1535853870188930
  Basis Set: (AUG-CC-PVTZ AUX)
    Blend: AUG-CC-PVTZ-RI
    Molecular point group: c1

    Geometry (in Angstrom), charge = 0, multiplicity = 1:

       Center              X                  Y                   Z               Mass
    ------------   -----------------  -----------------  -----------------  -----------------
         S           -1.255043577882    -0.392868222360    -0.314593582174    31.972071174400
         O           -1.697033577882     0.413661777640    -1.451265582174    15.994914619570
         O           -1.518833577882    -1.826144222360    -0.195828582174    15.994914619570
         N           -1.934257577882     0.296989777640     1.043729417826    14.003074004430
         C            0.555015822118    -0.152571022360    -0.158665282174    12.000000000000
         C            1.258145422118    -1.104346222360     0.540451417826    12.000000000000
         C            1.093458422118     0.992888777640    -0.692061582174    12.000000000000
         C            2.626833422118    -0.891427222360     0.704666417826    12.000000000000
         C            2.464304422118     1.192653777640    -0.518139582174    12.000000000000
         C            3.227998422118     0.259276777640     0.186515417826    12.000000000000
         C           -1.743237577882     1.734387777640     1.247660417826    12.000000000000
         H            0.781118422118    -2.008159222360     0.910222417826     1.007825032230
         H            0.490334422118     1.690832777640    -1.266001582174     1.007825032230
         H           -1.747216577882    -0.283330222360     1.860482417826     1.007825032230
         H            3.225858422118    -1.625768222360     1.237337417826     1.007825032230
         H            2.935839422118     2.079317777640    -0.934453582174     1.007825032230
         H            4.295411422118     0.418990777640     0.316737417826     1.007825032230
         H           -2.375844577882     2.039488777640     2.082887417826     1.007825032230
         H           -2.081297577882     2.250342777640     0.349015417826     1.007825032230
         H           -0.702736577882     2.011077777640     1.459491417826     1.007825032230

  Basis Set: AUG-CC-PVTZ
    Blend: AUG-CC-PVTZ
  Basis Set: (AUG-CC-PVTZ AUX)
    Blend: AUG-CC-PVTZ-JKFIT
	 Reference Energy          =    -872.1535853870188930 [Eh]
	 Singles Energy            =      -0.0000000000000000 [Eh]
	 Same-Spin Energy          =      -0.5645790216106815 [Eh]
	 Opposite-Spin Energy      =      -1.6945467521940765 [Eh]
	 Correlation Energy        =      -2.2591257738047581 [Eh]
	 Total Energy              =    -874.4127111608236191 [Eh]

	 ================> DF-SCS-MP2 Energies <==================
	-----------------------------------------------------------
	 SCS Same-Spin Scale       =       0.3333333333333333 [-]
	 SCS Opposite-Spin Scale   =       1.2000000000000000 [-]
	 SCS Same-Spin Energy      =      -0.1881930072035605 [Eh]
	 SCS Opposite-Spin Energy  =      -2.0334561026328917 [Eh]
	 SCS Correlation Energy    =      -2.2216491098364521 [Eh]
	 SCS Total Energy          =    -874.3752344968553416 [Eh]
	-----------------------------------------------------------

  Dipole Moment: [D]
     X:     3.6446      Y:     2.5022      Z:     3.5758     Total:     5.6860

*** Psi4 exiting successfully. Buy a developer a beer!
