                               Psi4 1.3.2 release

  ==> Input File <==

--------------------------------------------------------------------------
#psi4
#
memory 32 gb

molecule  {
0 1
  S       -1.2780750    -0.4285550    -0.3473560
  O       -1.6767001     0.4586717    -1.4390501
  O       -1.5418650    -1.8618310    -0.2285910
  N       -1.9572890     0.2613030     1.0109670
  C        0.4825990    -0.1948140    -0.1956820
  C        1.2351140    -1.1400330     0.5076890
  C        1.0704270     0.9572020    -0.7248240
  C        2.6038020    -0.9271140     0.6719040
  C        2.4412730     1.1569670    -0.5509020
  C        3.2049670     0.2235900     0.1537530
  C       -1.7662690     1.6987010     1.2148980
  H        0.7580870    -2.0438460     0.8774600
  H        0.4673030     1.6551460    -1.2987640
  H       -1.7702480    -0.3190170     1.8277200
  H        3.2028270    -1.6614550     1.2045750
  H        2.9128080     2.0436310    -0.9672160
  H        4.2723800     0.3833040     0.2839750
  H       -2.3988760     2.0038020     2.0501250
  H       -2.1043290     2.2146560     0.3162530
  H       -0.7257680     1.9753910     1.4267290
units angstrom
no_reorient  #important for SAPT in psi4, default
symmetry c1  #important for SAPT in psi4, default
}

set PROPERTIES_ORIGIN ["COM"]
properties('MP2/aug-cc-pvtz', properties = ['dipole'])
--------------------------------------------------------------------------

    Molecular point group: c1
  Charge       = 0
  Multiplicity = 1
  Basis Set: AUG-CC-PVTZ
    Blend: AUG-CC-PVTZ
  Basis Set: (AUG-CC-PVTZ AUX)
    Blend: AUG-CC-PVTZ-JKFIT

    Orbital Energies [Eh]
    ---------------------

    Doubly Occupied:

       1A    -92.204198     2A    -20.553551     3A    -20.547754
       4A    -15.602464     5A    -11.280335     6A    -11.274190
       7A    -11.269178     8A    -11.268564     9A    -11.266652
      10A    -11.260843    11A    -11.260594    12A     -9.168933
      13A     -6.854145    14A     -6.853611    15A     -6.853283
      16A     -1.454058    17A     -1.342747    18A     -1.231572
      19A     -1.180427    20A     -1.056167    21A     -1.042336
      22A     -0.961468    23A     -0.891947    24A     -0.854355
      25A     -0.812663    26A     -0.749859    27A     -0.712963
      28A     -0.677622    29A     -0.671934    30A     -0.654504
      31A     -0.640674    32A     -0.622908    33A     -0.614802
      34A     -0.606701    35A     -0.564257    36A     -0.546809
      37A     -0.531710    38A     -0.521942    39A     -0.503984
      40A     -0.502418    41A     -0.478551    42A     -0.465405
      43A     -0.433642    44A     -0.366771    45A     -0.361599

  @DF-RHF Final Energy:  -872.15307265441584

   => Energetics <=

    Nuclear Repulsion Energy =            743.6998477956478837
    One-Electron Energy =               -2672.5556633099727151
    Two-Electron Energy =                1056.7027428599089944
    Total Energy =                       -872.1530726544158370
  Basis Set: (AUG-CC-PVTZ AUX)
    Blend: AUG-CC-PVTZ-RI
    Molecular point group: c1

    Geometry (in Angstrom), charge = 0, multiplicity = 1:

       Center              X                  Y                   Z               Mass
    ------------   -----------------  -----------------  -----------------  -----------------
         S           -1.255634058409    -0.399954839684    -0.318501346715    31.972071174400
         O           -1.654259158409     0.487271860316    -1.410195446715    15.994914619570
         O           -1.519424058409    -1.833230839684    -0.199736346715    15.994914619570
         N           -1.934848058409     0.289903160316     1.039821653285    14.003074004430
         C            0.505039941591    -0.166213839684    -0.166827346715    12.000000000000
         C            1.257554941591    -1.111432839684     0.536543653285    12.000000000000
         C            1.092867941591     0.985802160316    -0.695969346715    12.000000000000
         C            2.626242941591    -0.898513839684     0.700758653285    12.000000000000
         C            2.463713941591     1.185567160316    -0.522047346715    12.000000000000
         C            3.227407941591     0.252190160316     0.182607653285    12.000000000000
         C           -1.743828058409     1.727301160316     1.243752653285    12.000000000000
         H            0.780527941591    -2.015245839684     0.906314653285     1.007825032230
         H            0.489743941591     1.683746160316    -1.269909346715     1.007825032230
         H           -1.747807058409    -0.290416839684     1.856574653285     1.007825032230
         H            3.225267941591    -1.632854839684     1.233429653285     1.007825032230
         H            2.935248941591     2.072231160316    -0.938361346715     1.007825032230
         H            4.294820941591     0.411904160316     0.312829653285     1.007825032230
         H           -2.376435058409     2.032402160316     2.078979653285     1.007825032230
         H           -2.081888058409     2.243256160316     0.345107653285     1.007825032230
         H           -0.703327058409     2.003991160316     1.455583653285     1.007825032230

  Basis Set: AUG-CC-PVTZ
    Blend: AUG-CC-PVTZ
  Basis Set: (AUG-CC-PVTZ AUX)
    Blend: AUG-CC-PVTZ-JKFIT
	 Reference Energy          =    -872.1530726544158370 [Eh]
	 Singles Energy            =      -0.0000000000000000 [Eh]
	 Same-Spin Energy          =      -0.5650292055181300 [Eh]
	 Opposite-Spin Energy      =      -1.6953416898456652 [Eh]
	 Correlation Energy        =      -2.2603708953637951 [Eh]
	 Total Energy              =    -874.4134435497796858 [Eh]

	 ================> DF-SCS-MP2 Energies <==================
	-----------------------------------------------------------
	 SCS Same-Spin Scale       =       0.3333333333333333 [-]
	 SCS Opposite-Spin Scale   =       1.2000000000000000 [-]
	 SCS Same-Spin Energy      =      -0.1883430685060433 [Eh]
	 SCS Opposite-Spin Energy  =      -2.0344100278147983 [Eh]
	 SCS Correlation Energy    =      -2.2227530963208415 [Eh]
	 SCS Total Energy          =    -874.3758257507366807 [Eh]
	-----------------------------------------------------------

  Dipole Moment: [D]
     X:     3.5585      Y:     2.3098      Z:     3.4606     Total:     5.4748

*** Psi4 exiting successfully. Buy a developer a beer!
