                               Psi4 1.4a3.dev225

  ==> Input File <==

--------------------------------------------------------------------------
#psi4
#
memory 32 gb

molecule  {
0 1
  S       -1.2780750    -0.4285550    -0.3473560
  O       -1.7200650     0.3779750    -1.4840280
  O       -1.5418650    -1.8618310    -0.2285910
  N       -1.9654330     0.2695746     1.0272537
  C        0.4825990    -0.1948140    -0.1956820
  C        1.2351140    -1.1400330     0.5076890
  C        1.0704270     0.9572020    -0.7248240
  C        2.6038020    -0.9271140     0.6719040
  C        2.4412730     1.1569670    -0.5509020
  C        3.2049670     0.2235900     0.1537530
  C       -1.7662690     1.6987010     1.2148980
  H        0.7580870    -2.0438460     0.8774600
  H        0.4673030     1.6551460    -1.2987640
  H       -1.7702480    -0.3190170     1.8277200
  H        3.2028270    -1.6614550     1.2045750
  H        2.9128080     2.0436310    -0.9672160
  H        4.2723800     0.3833040     0.2839750
  H       -2.3988760     2.0038020     2.0501250
  H       -2.1043290     2.2146560     0.3162530
  H       -0.7257680     1.9753910     1.4267290
units angstrom
no_reorient  #important for SAPT in psi4, default
symmetry c1  #important for SAPT in psi4, default
}

set PROPERTIES_ORIGIN ["COM"]
properties('MP2/aug-cc-pvtz', properties = ['dipole'])
--------------------------------------------------------------------------

    Molecular point group: c1
  Charge       = 0
  Multiplicity = 1
  Basis Set: AUG-CC-PVTZ
    Blend: AUG-CC-PVTZ
  Basis Set: (AUG-CC-PVTZ AUX)
    Blend: AUG-CC-PVTZ-JKFIT

    Orbital Energies [Eh]
    ---------------------

    Doubly Occupied:

       1A    -92.203580     2A    -20.548428     3A    -20.548285
       4A    -15.603873     5A    -11.283419     6A    -11.274643
       7A    -11.271253     8A    -11.271118     9A    -11.268414
      10A    -11.262571    11A    -11.262418    12A     -9.168399
      13A     -6.853494    14A     -6.853008    15A     -6.852783
      16A     -1.451681    17A     -1.337552    18A     -1.233496
      19A     -1.182517    20A     -1.058556    21A     -1.044274
      22A     -0.961023    23A     -0.894504    24A     -0.856330
      25A     -0.813848    26A     -0.749240    27A     -0.712220
      28A     -0.677557    29A     -0.672727    30A     -0.656667
      31A     -0.641988    32A     -0.622063    33A     -0.616445
      34A     -0.607992    35A     -0.567291    36A     -0.548533
      37A     -0.533419    38A     -0.523834    39A     -0.502459
      40A     -0.498711    41A     -0.474811    42A     -0.466034
      43A     -0.433539    44A     -0.368833    45A     -0.363361

  @DF-RHF Final Energy:  -872.15459678452896

   => Energetics <=

    Nuclear Repulsion Energy =            742.2316912646653009
    One-Electron Energy =               -2669.5781890875887257
    Two-Electron Energy =                1055.1919010383944624
    Total Energy =                       -872.1545967845290761
  Basis Set: (AUG-CC-PVTZ AUX)
    Blend: AUG-CC-PVTZ-RI
    Molecular point group: c1

    Geometry (in Angstrom), charge = 0, multiplicity = 1:

       Center              X                  Y                   Z               Mass
    ------------   -----------------  -----------------  -----------------  -----------------
         S           -1.250911884467    -0.393085448893    -0.315628527371    31.972071174400
         O           -1.692901884467     0.413444551107    -1.452300527371    15.994914619570
         O           -1.514701884467    -1.826361448893    -0.196863527371    15.994914619570
         N           -1.938269884467     0.305044151107     1.058981172629    14.003074004430
         C            0.509762115533    -0.159344448893    -0.163954527371    12.000000000000
         C            1.262277115533    -1.104563448893     0.539416472629    12.000000000000
         C            1.097590115533     0.992671551107    -0.693096527371    12.000000000000
         C            2.630965115533    -0.891644448893     0.703631472629    12.000000000000
         C            2.468436115533     1.192436551107    -0.519174527371    12.000000000000
         C            3.232130115533     0.259059551107     0.185480472629    12.000000000000
         C           -1.739105884467     1.734170551107     1.246625472629    12.000000000000
         H            0.785250115533    -2.008376448893     0.909187472629     1.007825032230
         H            0.494466115533     1.690615551107    -1.267036527371     1.007825032230
         H           -1.743084884467    -0.283547448893     1.859447472629     1.007825032230
         H            3.229990115533    -1.625985448893     1.236302472629     1.007825032230
         H            2.939971115533     2.079100551107    -0.935488527371     1.007825032230
         H            4.299543115533     0.418773551107     0.315702472629     1.007825032230
         H           -2.371712884467     2.039271551107     2.081852472629     1.007825032230
         H           -2.077165884467     2.250125551107     0.347980472629     1.007825032230
         H           -0.698604884467     2.010860551107     1.458456472629     1.007825032230

  Basis Set: AUG-CC-PVTZ
    Blend: AUG-CC-PVTZ
  Basis Set: (AUG-CC-PVTZ AUX)
    Blend: AUG-CC-PVTZ-JKFIT
	 Reference Energy          =    -872.1545967845289624 [Eh]
	 Singles Energy            =      -0.0000000000000000 [Eh]
	 Same-Spin Energy          =      -0.5646464723586899 [Eh]
	 Opposite-Spin Energy      =      -1.6948924392331839 [Eh]
	 Correlation Energy        =      -2.2595389115918740 [Eh]
	 Total Energy              =    -874.4141356961208658 [Eh]

	 ================> DF-SCS-MP2 Energies <==================
	-----------------------------------------------------------
	 SCS Same-Spin Scale       =       0.3333333333333333 [-]
	 SCS Opposite-Spin Scale   =       1.2000000000000000 [-]
	 SCS Same-Spin Energy      =      -0.1882154907862300 [Eh]
	 SCS Opposite-Spin Energy  =      -2.0338709270798208 [Eh]
	 SCS Correlation Energy    =      -2.2220864178660507 [Eh]
	 SCS Total Energy          =    -874.3766832023950428 [Eh]
	-----------------------------------------------------------

  Dipole Moment: [D]
     X:     3.7768      Y:     2.4644      Z:     3.5102     Total:     5.7148

*** Psi4 exiting successfully. Buy a developer a beer!
