                               Psi4 1.3.2 release

  ==> Input File <==

--------------------------------------------------------------------------
#psi4
#
memory 32 gb

molecule  {
0 1
  S       -1.2780750    -0.4285550    -0.3473560
  O       -1.7200650     0.3779750    -1.4840280
  O       -1.5418650    -1.8618310    -0.2285910
  N       -2.0387288     0.3440190     1.1738339
  C        0.4825990    -0.1948140    -0.1956820
  C        1.2351140    -1.1400330     0.5076890
  C        1.0704270     0.9572020    -0.7248240
  C        2.6038020    -0.9271140     0.6719040
  C        2.4412730     1.1569670    -0.5509020
  C        3.2049670     0.2235900     0.1537530
  C       -1.7662690     1.6987010     1.2148980
  H        0.7580870    -2.0438460     0.8774600
  H        0.4673030     1.6551460    -1.2987640
  H       -1.7702480    -0.3190170     1.8277200
  H        3.2028270    -1.6614550     1.2045750
  H        2.9128080     2.0436310    -0.9672160
  H        4.2723800     0.3833040     0.2839750
  H       -2.3988760     2.0038020     2.0501250
  H       -2.1043290     2.2146560     0.3162530
  H       -0.7257680     1.9753910     1.4267290
units angstrom
no_reorient  #important for SAPT in psi4, default
symmetry c1  #important for SAPT in psi4, default
}

set PROPERTIES_ORIGIN ["COM"]
properties('MP2/aug-cc-pvtz', properties = ['dipole'])
--------------------------------------------------------------------------

    Molecular point group: c1
  Charge       = 0
  Multiplicity = 1
  Basis Set: AUG-CC-PVTZ
    Blend: AUG-CC-PVTZ
  Basis Set: (AUG-CC-PVTZ AUX)
    Blend: AUG-CC-PVTZ-JKFIT

    Orbital Energies [Eh]
    ---------------------

    Doubly Occupied:

       1A    -92.201817     2A    -20.554486     3A    -20.554215
       4A    -15.602718     5A    -11.288368     6A    -11.275195
       7A    -11.274985     8A    -11.271915     9A    -11.265173
      10A    -11.264986    11A    -11.264292    12A     -9.167362
      13A     -6.851922    14A     -6.851719    15A     -6.851447
      16A     -1.448314    17A     -1.340708    18A     -1.234711
      19A     -1.186047    20A     -1.062232    21A     -1.047357
      22A     -0.948157    23A     -0.900323    24A     -0.859412
      25A     -0.813545    26A     -0.742608    27A     -0.706427
      28A     -0.684356    29A     -0.675478    30A     -0.663864
      31A     -0.643592    32A     -0.627978    33A     -0.619374
      34A     -0.612486    35A     -0.573281    36A     -0.550977
      37A     -0.534513    38A     -0.526860    39A     -0.503253
      40A     -0.492914    41A     -0.479785    42A     -0.453606
      43A     -0.416535    44A     -0.372976    45A     -0.365894

  @DF-RHF Final Energy:  -872.12232001400196

   => Energetics <=

    Nuclear Repulsion Energy =            737.4860460964765707
    One-Electron Energy =               -2659.9604074462563403
    Two-Electron Energy =                1050.3520413357778125
    Total Energy =                       -872.1223200140020708
  Basis Set: (AUG-CC-PVTZ AUX)
    Blend: AUG-CC-PVTZ-RI
    Molecular point group: c1

    Geometry (in Angstrom), charge = 0, multiplicity = 1:

       Center              X                  Y                   Z               Mass
    ------------   -----------------  -----------------  -----------------  -----------------
         S           -1.244910983406    -0.399180388562    -0.327629396148    31.972071174400
         O           -1.686900983406     0.407349611438    -1.464301396148    15.994914619570
         O           -1.508700983406    -1.832456388562    -0.208864396148    15.994914619570
         N           -2.005564783406     0.373393611438     1.193560503852    14.003074004430
         C            0.515763016594    -0.165439388562    -0.175955396148    12.000000000000
         C            1.268278016594    -1.110658388562     0.527415603852    12.000000000000
         C            1.103591016594     0.986576611438    -0.705097396148    12.000000000000
         C            2.636966016594    -0.897739388562     0.691630603852    12.000000000000
         C            2.474437016594     1.186341611438    -0.531175396148    12.000000000000
         C            3.238131016594     0.252964611438     0.173479603852    12.000000000000
         C           -1.733104983406     1.728075611438     1.234624603852    12.000000000000
         H            0.791251016594    -2.014471388562     0.897186603852     1.007825032230
         H            0.500467016594     1.684520611438    -1.279037396148     1.007825032230
         H           -1.737083983406    -0.289642388562     1.847446603852     1.007825032230
         H            3.235991016594    -1.632080388562     1.224301603852     1.007825032230
         H            2.945972016594     2.073005611438    -0.947489396148     1.007825032230
         H            4.305544016594     0.412678611438     0.303701603852     1.007825032230
         H           -2.365711983406     2.033176611438     2.069851603852     1.007825032230
         H           -2.071164983406     2.244030611438     0.335979603852     1.007825032230
         H           -0.692603983406     2.004765611438     1.446455603852     1.007825032230

  Basis Set: AUG-CC-PVTZ
    Blend: AUG-CC-PVTZ
  Basis Set: (AUG-CC-PVTZ AUX)
    Blend: AUG-CC-PVTZ-JKFIT
	 Reference Energy          =    -872.1223200140019571 [Eh]
	 Singles Energy            =      -0.0000000000000000 [Eh]
	 Same-Spin Energy          =      -0.5664195241382801 [Eh]
	 Opposite-Spin Energy      =      -1.6995477147098337 [Eh]
	 Correlation Energy        =      -2.2659672388481136 [Eh]
	 Total Energy              =    -874.3882872528500911 [Eh]

	 ================> DF-SCS-MP2 Energies <==================
	-----------------------------------------------------------
	 SCS Same-Spin Scale       =       0.3333333333333333 [-]
	 SCS Opposite-Spin Scale   =       1.2000000000000000 [-]
	 SCS Same-Spin Energy      =      -0.1888065080460934 [Eh]
	 SCS Opposite-Spin Energy  =      -2.0394572576518004 [Eh]
	 SCS Correlation Energy    =      -2.2282637656978936 [Eh]
	 SCS Total Energy          =    -874.3505837796998321 [Eh]
	-----------------------------------------------------------

  Dipole Moment: [D]
     X:     4.3063      Y:     2.1256      Z:     2.9426     Total:     5.6322

*** Psi4 exiting successfully. Buy a developer a beer!
