                               Psi4 1.3.2 release

  ==> Input File <==

--------------------------------------------------------------------------
#psi4
#
memory 32 gb

molecule  {
0 1
  S       -1.2676378    -0.4024934    -0.3550610
  O       -1.7200650     0.3779750    -1.4840280
  O       -1.5418650    -1.8618310    -0.2285910
  N       -1.9572890     0.2613030     1.0109670
  C        0.4825990    -0.1948140    -0.1956820
  C        1.2351140    -1.1400330     0.5076890
  C        1.0704270     0.9572020    -0.7248240
  C        2.6038020    -0.9271140     0.6719040
  C        2.4412730     1.1569670    -0.5509020
  C        3.2049670     0.2235900     0.1537530
  C       -1.7662690     1.6987010     1.2148980
  H        0.7580870    -2.0438460     0.8774600
  H        0.4673030     1.6551460    -1.2987640
  H       -1.7702480    -0.3190170     1.8277200
  H        3.2028270    -1.6614550     1.2045750
  H        2.9128080     2.0436310    -0.9672160
  H        4.2723800     0.3833040     0.2839750
  H       -2.3988760     2.0038020     2.0501250
  H       -2.1043290     2.2146560     0.3162530
  H       -0.7257680     1.9753910     1.4267290
units angstrom
no_reorient  #important for SAPT in psi4, default
symmetry c1  #important for SAPT in psi4, default
}

set PROPERTIES_ORIGIN ["COM"]
properties('MP2/aug-cc-pvtz', properties = ['dipole'])
--------------------------------------------------------------------------

    Molecular point group: c1
  Charge       = 0
  Multiplicity = 1
  Basis Set: AUG-CC-PVTZ
    Blend: AUG-CC-PVTZ
  Basis Set: (AUG-CC-PVTZ AUX)
    Blend: AUG-CC-PVTZ-JKFIT

    Orbital Energies [Eh]
    ---------------------

    Doubly Occupied:

       1A    -92.202324     2A    -20.551250     3A    -20.540164
       4A    -15.604553     5A    -11.283374     6A    -11.276530
       7A    -11.272095     8A    -11.271998     9A    -11.269262
      10A    -11.263120    11A    -11.262985    12A     -9.167460
      13A     -6.852601    14A     -6.852086    15A     -6.851775
      16A     -1.450996    17A     -1.330224    18A     -1.234192
      19A     -1.183534    20A     -1.060532    21A     -1.044981
      22A     -0.962709    23A     -0.896553    24A     -0.857132
      25A     -0.814734    26A     -0.751632    27A     -0.712929
      28A     -0.676923    29A     -0.672246    30A     -0.656402
      31A     -0.642296    32A     -0.621221    33A     -0.616957
      34A     -0.605678    35A     -0.567598    36A     -0.548796
      37A     -0.534480    38A     -0.524556    39A     -0.503132
      40A     -0.495236    41A     -0.469512    42A     -0.464712
      43A     -0.436490    44A     -0.369624    45A     -0.363915

  @DF-RHF Final Energy:  -872.15334358308269

   => Energetics <=

    Nuclear Repulsion Energy =            743.1060164589231363
    One-Electron Energy =               -2671.3357213658091496
    Two-Electron Energy =                1056.0763613238034395
    Total Energy =                       -872.1533435830826875
  Basis Set: (AUG-CC-PVTZ AUX)
    Blend: AUG-CC-PVTZ-RI
    Molecular point group: c1

    Geometry (in Angstrom), charge = 0, multiplicity = 1:

       Center              X                  Y                   Z               Mass
    ------------   -----------------  -----------------  -----------------  -----------------
         S           -1.243092504736    -0.371218392856    -0.320559781850    31.972071174400
         O           -1.695519704736     0.409250007144    -1.449526781850    15.994914619570
         O           -1.517319704736    -1.830555992856    -0.194089781850    15.994914619570
         N           -1.932743704736     0.292578007144     1.045468218150    14.003074004430
         C            0.507144295264    -0.163538992856    -0.161180781850    12.000000000000
         C            1.259659295264    -1.108757992856     0.542190218150    12.000000000000
         C            1.094972295264     0.988477007144    -0.690322781850    12.000000000000
         C            2.628347295264    -0.895838992856     0.706405218150    12.000000000000
         C            2.465818295264     1.188242007144    -0.516400781850    12.000000000000
         C            3.229512295264     0.254865007144     0.188254218150    12.000000000000
         C           -1.741723704736     1.729976007144     1.249399218150    12.000000000000
         H            0.782632295264    -2.012570992856     0.911961218150     1.007825032230
         H            0.491848295264     1.686421007144    -1.264262781850     1.007825032230
         H           -1.745702704736    -0.287741992856     1.862221218150     1.007825032230
         H            3.227372295264    -1.630179992856     1.239076218150     1.007825032230
         H            2.937353295264     2.074906007144    -0.932714781850     1.007825032230
         H            4.296925295264     0.414579007144     0.318476218150     1.007825032230
         H           -2.374330704736     2.035077007144     2.084626218150     1.007825032230
         H           -2.079783704736     2.245931007144     0.350754218150     1.007825032230
         H           -0.701222704736     2.006666007144     1.461230218150     1.007825032230

  Basis Set: AUG-CC-PVTZ
    Blend: AUG-CC-PVTZ
  Basis Set: (AUG-CC-PVTZ AUX)
    Blend: AUG-CC-PVTZ-JKFIT
	 Reference Energy          =    -872.1533435830826875 [Eh]
	 Singles Energy            =      -0.0000000000000000 [Eh]
	 Same-Spin Energy          =      -0.5647403491750204 [Eh]
	 Opposite-Spin Energy      =      -1.6948964703453164 [Eh]
	 Correlation Energy        =      -2.2596368195203369 [Eh]
	 Total Energy              =    -874.4129804026030115 [Eh]

	 ================> DF-SCS-MP2 Energies <==================
	-----------------------------------------------------------
	 SCS Same-Spin Scale       =       0.3333333333333333 [-]
	 SCS Opposite-Spin Scale   =       1.2000000000000000 [-]
	 SCS Same-Spin Energy      =      -0.1882467830583401 [Eh]
	 SCS Opposite-Spin Energy  =      -2.0338757644143795 [Eh]
	 SCS Correlation Energy    =      -2.2221225474727198 [Eh]
	 SCS Total Energy          =    -874.3754661305554237 [Eh]
	-----------------------------------------------------------

  Dipole Moment: [D]
     X:     3.8375      Y:     2.7339      Z:     3.5309     Total:     5.8880

*** Psi4 exiting successfully. Buy a developer a beer!
