                               Psi4 1.3.2 release

  ==> Input File <==

--------------------------------------------------------------------------
#psi4
#
memory 32 gb

molecule  {
0 1
  S       -1.2218725    -0.5567076    -0.2429462
  O       -1.7200650     0.3779750    -1.4840280
  O       -1.5418650    -1.8618310    -0.2285910
  N       -1.9572890     0.2613030     1.0109670
  C        0.4825990    -0.1948140    -0.1956820
  C        1.2351140    -1.1400330     0.5076890
  C        1.0704270     0.9572020    -0.7248240
  C        2.6038020    -0.9271140     0.6719040
  C        2.4412730     1.1569670    -0.5509020
  C        3.2049670     0.2235900     0.1537530
  C       -1.7662690     1.6987010     1.2148980
  H        0.7580870    -2.0438460     0.8774600
  H        0.4673030     1.6551460    -1.2987640
  H       -1.7702480    -0.3190170     1.8277200
  H        3.2028270    -1.6614550     1.2045750
  H        2.9128080     2.0436310    -0.9672160
  H        4.2723800     0.3833040     0.2839750
  H       -2.3988760     2.0038020     2.0501250
  H       -2.1043290     2.2146560     0.3162530
  H       -0.7257680     1.9753910     1.4267290
units angstrom
no_reorient  #important for SAPT in psi4, default
symmetry c1  #important for SAPT in psi4, default
}

set PROPERTIES_ORIGIN ["COM"]
properties('MP2/aug-cc-pvtz', properties = ['dipole'])
--------------------------------------------------------------------------

    Molecular point group: c1
  Charge       = 0
  Multiplicity = 1
  Basis Set: AUG-CC-PVTZ
    Blend: AUG-CC-PVTZ
  Basis Set: (AUG-CC-PVTZ AUX)
    Blend: AUG-CC-PVTZ-JKFIT

    Orbital Energies [Eh]
    ---------------------

    Doubly Occupied:

       1A    -92.193185     2A    -20.575393     3A    -20.505560
       4A    -15.606584     5A    -11.285397     6A    -11.275750
       7A    -11.275592     8A    -11.274807     9A    -11.272250
      10A    -11.265374    11A    -11.265157    12A     -9.162910
      13A     -6.848339    14A     -6.847130    15A     -6.846391
      16A     -1.505993    17A     -1.282199    18A     -1.216818
      19A     -1.186637    20A     -1.067185    21A     -1.047159
      22A     -0.967662    23A     -0.901517    24A     -0.860368
      25A     -0.812091    26A     -0.750971    27A     -0.714413
      28A     -0.691384    29A     -0.682638    30A     -0.661399
      31A     -0.646354    32A     -0.623618    33A     -0.617699
      34A     -0.611748    35A     -0.568981    36A     -0.557043
      37A     -0.538160    38A     -0.528389    39A     -0.515159
      40A     -0.482404    41A     -0.440614    42A     -0.430009
      43A     -0.426480    44A     -0.371653    45A     -0.366134

  @DF-RHF Final Energy:  -872.10387925969303

   => Energetics <=

    Nuclear Repulsion Energy =            743.3516502505035533
    One-Electron Energy =               -2671.7656647600351789
    Two-Electron Energy =                1056.3101352498385950
    Total Energy =                       -872.1038792596930307
  Basis Set: (AUG-CC-PVTZ AUX)
    Blend: AUG-CC-PVTZ-RI
    Molecular point group: c1

    Geometry (in Angstrom), charge = 0, multiplicity = 1:

       Center              X                  Y                   Z               Mass
    ------------   -----------------  -----------------  -----------------  -----------------
         S           -1.205882225693    -0.496604950234    -0.229402879288    31.972071174400
         O           -1.704074725693     0.438077649766    -1.470484679288    15.994914619570
         O           -1.525874725693    -1.801728350234    -0.215047679288    15.994914619570
         N           -1.941298725693     0.321405649766     1.024510320712    14.003074004430
         C            0.498589274307    -0.134711350234    -0.182138679288    12.000000000000
         C            1.251104274307    -1.079930350234     0.521232320712    12.000000000000
         C            1.086417274307     1.017304649766    -0.711280679288    12.000000000000
         C            2.619792274307    -0.867011350234     0.685447320712    12.000000000000
         C            2.457263274307     1.217069649766    -0.537358679288    12.000000000000
         C            3.220957274307     0.283692649766     0.167296320712    12.000000000000
         C           -1.750278725693     1.758803649766     1.228441320712    12.000000000000
         H            0.774077274307    -1.983743350234     0.891003320712     1.007825032230
         H            0.483293274307     1.715248649766    -1.285220679288     1.007825032230
         H           -1.754257725693    -0.258914350234     1.841263320712     1.007825032230
         H            3.218817274307    -1.601352350234     1.218118320712     1.007825032230
         H            2.928798274307     2.103733649766    -0.953672679288     1.007825032230
         H            4.288370274307     0.443406649766     0.297518320712     1.007825032230
         H           -2.382885725693     2.063904649766     2.063668320712     1.007825032230
         H           -2.088338725693     2.274758649766     0.329796320712     1.007825032230
         H           -0.709777725693     2.035493649766     1.440272320712     1.007825032230

  Basis Set: AUG-CC-PVTZ
    Blend: AUG-CC-PVTZ
  Basis Set: (AUG-CC-PVTZ AUX)
    Blend: AUG-CC-PVTZ-JKFIT
	 Reference Energy          =    -872.1038792596930307 [Eh]
	 Singles Energy            =      -0.0000000000000000 [Eh]
	 Same-Spin Energy          =      -0.5646501379137563 [Eh]
	 Opposite-Spin Energy      =      -1.6957666550779731 [Eh]
	 Correlation Energy        =      -2.2604167929917294 [Eh]
	 Total Energy              =    -874.3642960526847219 [Eh]

	 ================> DF-SCS-MP2 Energies <==================
	-----------------------------------------------------------
	 SCS Same-Spin Scale       =       0.3333333333333333 [-]
	 SCS Opposite-Spin Scale   =       1.2000000000000000 [-]
	 SCS Same-Spin Energy      =      -0.1882167126379188 [Eh]
	 SCS Opposite-Spin Energy  =      -2.0349199860935676 [Eh]
	 SCS Correlation Energy    =      -2.2231366987314862 [Eh]
	 SCS Total Energy          =    -874.3270159584245675 [Eh]
	-----------------------------------------------------------

  Dipole Moment: [D]
     X:     4.3403      Y:     1.5189      Z:     4.4998     Total:     6.4338

*** Psi4 exiting successfully. Buy a developer a beer!
