                               Psi4 1.3.2 release

  ==> Input File <==

--------------------------------------------------------------------------
#psi4
#
memory 32 gb

molecule  {
0 1
  S       -1.2780750    -0.4285550    -0.3473560
  O       -1.6392085     0.2829118    -1.5726178
  O       -1.5418650    -1.8618310    -0.2285910
  N       -1.9572890     0.2613030     1.0109670
  C        0.4825990    -0.1948140    -0.1956820
  C        1.2351140    -1.1400330     0.5076890
  C        1.0704270     0.9572020    -0.7248240
  C        2.6038020    -0.9271140     0.6719040
  C        2.4412730     1.1569670    -0.5509020
  C        3.2049670     0.2235900     0.1537530
  C       -1.7662690     1.6987010     1.2148980
  H        0.7580870    -2.0438460     0.8774600
  H        0.4673030     1.6551460    -1.2987640
  H       -1.7702480    -0.3190170     1.8277200
  H        3.2028270    -1.6614550     1.2045750
  H        2.9128080     2.0436310    -0.9672160
  H        4.2723800     0.3833040     0.2839750
  H       -2.3988760     2.0038020     2.0501250
  H       -2.1043290     2.2146560     0.3162530
  H       -0.7257680     1.9753910     1.4267290
units angstrom
no_reorient  #important for SAPT in psi4, default
symmetry c1  #important for SAPT in psi4, default
}

set PROPERTIES_ORIGIN ["COM"]
properties('MP2/aug-cc-pvtz', properties = ['dipole'])
--------------------------------------------------------------------------

    Molecular point group: c1
  Charge       = 0
  Multiplicity = 1
  Basis Set: AUG-CC-PVTZ
    Blend: AUG-CC-PVTZ
  Basis Set: (AUG-CC-PVTZ AUX)
    Blend: AUG-CC-PVTZ-JKFIT

    Orbital Energies [Eh]
    ---------------------

    Doubly Occupied:

       1A    -92.203170     2A    -20.548512     3A    -20.542593
       4A    -15.611666     5A    -11.281377     6A    -11.279675
       7A    -11.268486     8A    -11.268256     9A    -11.265914
      10A    -11.260598    11A    -11.260421    12A     -9.168145
      13A     -6.853274    14A     -6.852714    15A     -6.852576
      16A     -1.451733    17A     -1.333129    18A     -1.241649
      19A     -1.179995    20A     -1.055878    21A     -1.041979
      22A     -0.967352    23A     -0.893435    24A     -0.854057
      25A     -0.815415    26A     -0.750220    27A     -0.711794
      28A     -0.677809    29A     -0.673998    30A     -0.655083
      31A     -0.640372    32A     -0.621559    33A     -0.614258
      34A     -0.609719    35A     -0.572639    36A     -0.546511
      37A     -0.532312    38A     -0.521645    39A     -0.505150
      40A     -0.495155    41A     -0.470505    42A     -0.468611
      43A     -0.436968    44A     -0.366253    45A     -0.361361

  @DF-RHF Final Energy:  -872.15323132223102

   => Energetics <=

    Nuclear Repulsion Energy =            742.6012000509289237
    One-Electron Energy =               -2670.3410205963732551
    Two-Electron Energy =                1055.5865892232131955
    Total Energy =                       -872.1532313222310222
  Basis Set: (AUG-CC-PVTZ AUX)
    Blend: AUG-CC-PVTZ-RI
    Molecular point group: c1

    Geometry (in Angstrom), charge = 0, multiplicity = 1:

       Center              X                  Y                   Z               Mass
    ------------   -----------------  -----------------  -----------------  -----------------
         S           -1.259140203581    -0.383518098525    -0.306010342157    31.972071174400
         O           -1.620273703581     0.327948701475    -1.531272142157    15.994914619570
         O           -1.522930203581    -1.816794098525    -0.187245342157    15.994914619570
         N           -1.938354203581     0.306339901475     1.052312657843    14.003074004430
         C            0.501533796419    -0.149777098525    -0.154336342157    12.000000000000
         C            1.254048796419    -1.094996098525     0.549034657843    12.000000000000
         C            1.089361796419     1.002238901475    -0.683478342157    12.000000000000
         C            2.622736796419    -0.882077098525     0.713249657843    12.000000000000
         C            2.460207796419     1.202003901475    -0.509556342157    12.000000000000
         C            3.223901796419     0.268626901475     0.195098657843    12.000000000000
         C           -1.747334203581     1.743737901475     1.256243657843    12.000000000000
         H            0.777021796419    -1.998809098525     0.918805657843     1.007825032230
         H            0.486237796419     1.700182901475    -1.257418342157     1.007825032230
         H           -1.751313203581    -0.273980098525     1.869065657843     1.007825032230
         H            3.221761796419    -1.616418098525     1.245920657843     1.007825032230
         H            2.931742796419     2.088667901475    -0.925870342157     1.007825032230
         H            4.291314796419     0.428340901475     0.325320657843     1.007825032230
         H           -2.379941203581     2.048838901475     2.091470657843     1.007825032230
         H           -2.085394203581     2.259692901475     0.357598657843     1.007825032230
         H           -0.706833203581     2.020427901475     1.468074657843     1.007825032230

  Basis Set: AUG-CC-PVTZ
    Blend: AUG-CC-PVTZ
  Basis Set: (AUG-CC-PVTZ AUX)
    Blend: AUG-CC-PVTZ-JKFIT
	 Reference Energy          =    -872.1532313222310222 [Eh]
	 Singles Energy            =      -0.0000000000000000 [Eh]
	 Same-Spin Energy          =      -0.5643931509228439 [Eh]
	 Opposite-Spin Energy      =      -1.6944014064526391 [Eh]
	 Correlation Energy        =      -2.2587945573754831 [Eh]
	 Total Energy              =    -874.4120258796065173 [Eh]

	 ================> DF-SCS-MP2 Energies <==================
	-----------------------------------------------------------
	 SCS Same-Spin Scale       =       0.3333333333333333 [-]
	 SCS Opposite-Spin Scale   =       1.2000000000000000 [-]
	 SCS Same-Spin Energy      =      -0.1881310503076146 [Eh]
	 SCS Opposite-Spin Energy  =      -2.0332816877431670 [Eh]
	 SCS Correlation Energy    =      -2.2214127380507818 [Eh]
	 SCS Total Energy          =    -874.3746440602817529 [Eh]
	-----------------------------------------------------------

  Dipole Moment: [D]
     X:     3.4289      Y:     2.7648      Z:     3.7907     Total:     5.8112

*** Psi4 exiting successfully. Buy a developer a beer!
