                               Psi4 1.3.2 release

  ==> Input File <==

--------------------------------------------------------------------------
#psi4
#
memory 32 gb

molecule  {
0 1
  S       -1.2780750    -0.4285550    -0.3473560
  O       -1.7200650     0.3779750    -1.4840280
  O       -1.5418650    -1.8618310    -0.2285910
  N       -1.9239235     0.2632638     0.9722984
  C        0.4825990    -0.1948140    -0.1956820
  C        1.2351140    -1.1400330     0.5076890
  C        1.0704270     0.9572020    -0.7248240
  C        2.6038020    -0.9271140     0.6719040
  C        2.4412730     1.1569670    -0.5509020
  C        3.2049670     0.2235900     0.1537530
  C       -1.7662690     1.6987010     1.2148980
  H        0.7580870    -2.0438460     0.8774600
  H        0.4673030     1.6551460    -1.2987640
  H       -1.7702480    -0.3190170     1.8277200
  H        3.2028270    -1.6614550     1.2045750
  H        2.9128080     2.0436310    -0.9672160
  H        4.2723800     0.3833040     0.2839750
  H       -2.3988760     2.0038020     2.0501250
  H       -2.1043290     2.2146560     0.3162530
  H       -0.7257680     1.9753910     1.4267290
units angstrom
no_reorient  #important for SAPT in psi4, default
symmetry c1  #important for SAPT in psi4, default
}

set PROPERTIES_ORIGIN ["COM"]
properties('MP2/aug-cc-pvtz', properties = ['dipole'])
--------------------------------------------------------------------------

    Molecular point group: c1
  Charge       = 0
  Multiplicity = 1
  Basis Set: AUG-CC-PVTZ
    Blend: AUG-CC-PVTZ
  Basis Set: (AUG-CC-PVTZ AUX)
    Blend: AUG-CC-PVTZ-JKFIT

    Orbital Energies [Eh]
    ---------------------

    Doubly Occupied:

       1A    -92.201885     2A    -20.546617     3A    -20.544552
       4A    -15.605612     5A    -11.280343     6A    -11.279024
       7A    -11.268865     8A    -11.268735     9A    -11.266266
      10A    -11.260979    11A    -11.260822    12A     -9.166954
      13A     -6.852322    14A     -6.851566    15A     -6.851400
      16A     -1.453954    17A     -1.335919    18A     -1.240094
      19A     -1.180463    20A     -1.056471    21A     -1.042377
      22A     -0.969764    23A     -0.890784    24A     -0.854449
      25A     -0.812329    26A     -0.750906    27A     -0.712731
      28A     -0.679477    29A     -0.673301    30A     -0.654239
      31A     -0.641199    32A     -0.620538    33A     -0.614715
      34A     -0.609387    35A     -0.564540    36A     -0.547067
      37A     -0.532464    38A     -0.521972    39A     -0.505816
      40A     -0.496717    41A     -0.472377    42A     -0.466751
      43A     -0.437132    44A     -0.366192    45A     -0.361724

  @DF-RHF Final Energy:  -872.15448066849535

   => Energetics <=

    Nuclear Repulsion Energy =            744.4059199450322239
    One-Electron Energy =               -2673.9772147525509354
    Two-Electron Energy =                1057.4168141390234723
    Total Energy =                       -872.1544806684953528
  Basis Set: (AUG-CC-PVTZ AUX)
    Blend: AUG-CC-PVTZ-RI
    Molecular point group: c1

    Geometry (in Angstrom), charge = 0, multiplicity = 1:

       Center              X                  Y                   Z               Mass
    ------------   -----------------  -----------------  -----------------  -----------------
         S           -1.254310365725    -0.392568768723    -0.311129206563    31.972071174400
         O           -1.696300365725     0.413961231277    -1.447801206563    15.994914619570
         O           -1.518100365725    -1.825844768723    -0.192364206563    15.994914619570
         N           -1.900158865725     0.299250031277     1.008525193437    14.003074004430
         C            0.506363634275    -0.158827768723    -0.159455206563    12.000000000000
         C            1.258878634275    -1.104046768723     0.543915793437    12.000000000000
         C            1.094191634275     0.993188231277    -0.688597206563    12.000000000000
         C            2.627566634275    -0.891127768723     0.708130793437    12.000000000000
         C            2.465037634275     1.192953231277    -0.514675206563    12.000000000000
         C            3.228731634275     0.259576231277     0.189979793437    12.000000000000
         C           -1.742504365725     1.734687231277     1.251124793437    12.000000000000
         H            0.781851634275    -2.007859768723     0.913686793437     1.007825032230
         H            0.491067634275     1.691132231277    -1.262537206563     1.007825032230
         H           -1.746483365725    -0.283030768723     1.863946793437     1.007825032230
         H            3.226591634275    -1.625468768723     1.240801793437     1.007825032230
         H            2.936572634275     2.079617231277    -0.930989206563     1.007825032230
         H            4.296144634275     0.419290231277     0.320201793437     1.007825032230
         H           -2.375111365725     2.039788231277     2.086351793437     1.007825032230
         H           -2.080564365725     2.250642231277     0.352479793437     1.007825032230
         H           -0.702003365725     2.011377231277     1.462955793437     1.007825032230

  Basis Set: AUG-CC-PVTZ
    Blend: AUG-CC-PVTZ
  Basis Set: (AUG-CC-PVTZ AUX)
    Blend: AUG-CC-PVTZ-JKFIT
	 Reference Energy          =    -872.1544806684953528 [Eh]
	 Singles Energy            =      -0.0000000000000000 [Eh]
	 Same-Spin Energy          =      -0.5646215837161457 [Eh]
	 Opposite-Spin Energy      =      -1.6940894766081032 [Eh]
	 Correlation Energy        =      -2.2587110603242486 [Eh]
	 Total Energy              =    -874.4131917288195837 [Eh]

	 ================> DF-SCS-MP2 Energies <==================
	-----------------------------------------------------------
	 SCS Same-Spin Scale       =       0.3333333333333333 [-]
	 SCS Opposite-Spin Scale   =       1.2000000000000000 [-]
	 SCS Same-Spin Energy      =      -0.1882071945720485 [Eh]
	 SCS Opposite-Spin Energy  =      -2.0329073719297237 [Eh]
	 SCS Correlation Energy    =      -2.2211145665017722 [Eh]
	 SCS Total Energy          =    -874.3755952349971494 [Eh]
	-----------------------------------------------------------

  Dipole Moment: [D]
     X:     3.4909      Y:     2.5647      Z:     3.7607     Total:     5.7365

*** Psi4 exiting successfully. Buy a developer a beer!
