                               Psi4 1.3.2 release

  ==> Input File <==

--------------------------------------------------------------------------
#psi4
#
memory 32 gb

molecule  {
0 1
  S       -1.2811615    -0.3757563    -0.3801311
  O       -1.7200650     0.3779750    -1.4840280
  O       -1.5418650    -1.8618310    -0.2285910
  N       -1.9572890     0.2613030     1.0109670
  C        0.4825990    -0.1948140    -0.1956820
  C        1.2351140    -1.1400330     0.5076890
  C        1.0704270     0.9572020    -0.7248240
  C        2.6038020    -0.9271140     0.6719040
  C        2.4412730     1.1569670    -0.5509020
  C        3.2049670     0.2235900     0.1537530
  C       -1.7662690     1.6987010     1.2148980
  H        0.7580870    -2.0438460     0.8774600
  H        0.4673030     1.6551460    -1.2987640
  H       -1.7702480    -0.3190170     1.8277200
  H        3.2028270    -1.6614550     1.2045750
  H        2.9128080     2.0436310    -0.9672160
  H        4.2723800     0.3833040     0.2839750
  H       -2.3988760     2.0038020     2.0501250
  H       -2.1043290     2.2146560     0.3162530
  H       -0.7257680     1.9753910     1.4267290
units angstrom
no_reorient  #important for SAPT in psi4, default
symmetry c1  #important for SAPT in psi4, default
}

set PROPERTIES_ORIGIN ["COM"]
properties('MP2/aug-cc-pvtz', properties = ['dipole'])
--------------------------------------------------------------------------

    Molecular point group: c1
  Charge       = 0
  Multiplicity = 1
  Basis Set: AUG-CC-PVTZ
    Blend: AUG-CC-PVTZ
  Basis Set: (AUG-CC-PVTZ AUX)
    Blend: AUG-CC-PVTZ-JKFIT

    Orbital Energies [Eh]
    ---------------------

    Doubly Occupied:

       1A    -92.201734     2A    -20.560943     3A    -20.534156
       4A    -15.603463     5A    -11.282918     6A    -11.276324
       7A    -11.270854     8A    -11.270589     9A    -11.267991
      10A    -11.262275    11A    -11.262141    12A     -9.167378
      13A     -6.852527    14A     -6.852065    15A     -6.851596
      16A     -1.467448    17A     -1.326664    18A     -1.231915
      19A     -1.182100    20A     -1.058190    21A     -1.043863
      22A     -0.960798    23A     -0.894540    24A     -0.855824
      25A     -0.815285    26A     -0.752325    27A     -0.715121
      28A     -0.678830    29A     -0.672842    30A     -0.654703
      31A     -0.642097    32A     -0.624374    33A     -0.615946
      34A     -0.607371    35A     -0.569192    36A     -0.550022
      37A     -0.533442    38A     -0.524215    39A     -0.510828
      40A     -0.497868    41A     -0.467322    42A     -0.459147
      43A     -0.433575    44A     -0.368429    45A     -0.362849

  @DF-RHF Final Energy:  -872.14827233455424

   => Energetics <=

    Nuclear Repulsion Energy =            743.0646710741164043
    One-Electron Energy =               -2671.2377317958566891
    Two-Electron Energy =                1056.0247883871861632
    Total Energy =                       -872.1482723345541217
  Basis Set: (AUG-CC-PVTZ AUX)
    Blend: AUG-CC-PVTZ-RI
    Molecular point group: c1

    Geometry (in Angstrom), charge = 0, multiplicity = 1:

       Center              X                  Y                   Z               Mass
    ------------   -----------------  -----------------  -----------------  -----------------
         S           -1.254088185976    -0.349479325226    -0.340943465922    31.972071174400
         O           -1.692991685976     0.404251974774    -1.444840365922    15.994914619570
         O           -1.514791685976    -1.835554025226    -0.189403365922    15.994914619570
         N           -1.930215685976     0.287579974774     1.050154634078    14.003074004430
         C            0.509672314024    -0.168537025226    -0.156494365922    12.000000000000
         C            1.262187314024    -1.113756025226     0.546876634078    12.000000000000
         C            1.097500314024     0.983478974774    -0.685636365922    12.000000000000
         C            2.630875314024    -0.900837025226     0.711091634078    12.000000000000
         C            2.468346314024     1.183243974774    -0.511714365922    12.000000000000
         C            3.232040314024     0.249866974774     0.192940634078    12.000000000000
         C           -1.739195685976     1.724977974774     1.254085634078    12.000000000000
         H            0.785160314024    -2.017569025226     0.916647634078     1.007825032230
         H            0.494376314024     1.681422974774    -1.259576365922     1.007825032230
         H           -1.743174685976    -0.292740025226     1.866907634078     1.007825032230
         H            3.229900314024    -1.635178025226     1.243762634078     1.007825032230
         H            2.939881314024     2.069907974774    -0.928028365922     1.007825032230
         H            4.299453314024     0.409580974774     0.323162634078     1.007825032230
         H           -2.371802685976     2.030078974774     2.089312634078     1.007825032230
         H           -2.077255685976     2.240932974774     0.355440634078     1.007825032230
         H           -0.698694685976     2.001667974774     1.465916634078     1.007825032230

  Basis Set: AUG-CC-PVTZ
    Blend: AUG-CC-PVTZ
  Basis Set: (AUG-CC-PVTZ AUX)
    Blend: AUG-CC-PVTZ-JKFIT
	 Reference Energy          =    -872.1482723345542354 [Eh]
	 Singles Energy            =      -0.0000000000000000 [Eh]
	 Same-Spin Energy          =      -0.5643803299467702 [Eh]
	 Opposite-Spin Energy      =      -1.6944287977725383 [Eh]
	 Correlation Energy        =      -2.2588091277193083 [Eh]
	 Total Energy              =    -874.4070814622735952 [Eh]

	 ================> DF-SCS-MP2 Energies <==================
	-----------------------------------------------------------
	 SCS Same-Spin Scale       =       0.3333333333333333 [-]
	 SCS Opposite-Spin Scale   =       1.2000000000000000 [-]
	 SCS Same-Spin Energy      =      -0.1881267766489234 [Eh]
	 SCS Opposite-Spin Energy  =      -2.0333145573270457 [Eh]
	 SCS Correlation Energy    =      -2.2214413339759691 [Eh]
	 SCS Total Energy          =    -874.3697136685301530 [Eh]
	-----------------------------------------------------------

  Dipole Moment: [D]
     X:     3.7005      Y:     2.9417      Z:     3.3207     Total:     5.7770

*** Psi4 exiting successfully. Buy a developer a beer!
