                               Psi4 1.3.2 release

  ==> Input File <==

--------------------------------------------------------------------------
#psi4
#
memory 32 gb

molecule  {
0 1
  S       -1.2780750    -0.4285550    -0.3473560
  O       -1.7200650     0.3779750    -1.4840280
  O       -1.5418650    -1.8618310    -0.2285910
  N       -1.9572890     0.2613030     1.0109670
  C        0.4825990    -0.1948140    -0.1956820
  C        1.2351140    -1.1400330     0.5076890
  C        1.0704270     0.9572020    -0.7248240
  C        2.6038020    -0.9271140     0.6719040
  C        2.4412730     1.1569670    -0.5509020
  C        3.2049670     0.2235900     0.1537530
  C       -1.7401788     1.8950259     1.2427516
  H        0.7580870    -2.0438460     0.8774600
  H        0.4673030     1.6551460    -1.2987640
  H       -1.7702480    -0.3190170     1.8277200
  H        3.2028270    -1.6614550     1.2045750
  H        2.9128080     2.0436310    -0.9672160
  H        4.2723800     0.3833040     0.2839750
  H       -2.3988760     2.0038020     2.0501250
  H       -2.1043290     2.2146560     0.3162530
  H       -0.7257680     1.9753910     1.4267290
units angstrom
no_reorient  #important for SAPT in psi4, default
symmetry c1  #important for SAPT in psi4, default
}

set PROPERTIES_ORIGIN ["COM"]
properties('MP2/aug-cc-pvtz', properties = ['dipole'])
--------------------------------------------------------------------------

    Molecular point group: c1
  Charge       = 0
  Multiplicity = 1
  Basis Set: AUG-CC-PVTZ
    Blend: AUG-CC-PVTZ
  Basis Set: (AUG-CC-PVTZ AUX)
    Blend: AUG-CC-PVTZ-JKFIT

    Orbital Energies [Eh]
    ---------------------

    Doubly Occupied:

       1A    -92.197130     2A    -20.542783     3A    -20.541900
       4A    -15.596078     5A    -11.286706     6A    -11.280369
       7A    -11.268656     8A    -11.268232     9A    -11.266128
      10A    -11.261162    11A    -11.260862    12A     -9.161849
      13A     -6.846939    14A     -6.846539    15A     -6.846319
      16A     -1.445820    17A     -1.332048    18A     -1.197004
      19A     -1.178671    20A     -1.054923    21A     -1.042314
      22A     -0.976231    23A     -0.893364    24A     -0.854258
      25A     -0.807927    26A     -0.743092    27A     -0.705860
      28A     -0.672455    29A     -0.661714    30A     -0.654664
      31A     -0.637913    32A     -0.629289    33A     -0.615211
      34A     -0.611636    35A     -0.572938    36A     -0.546911
      37A     -0.533528    38A     -0.521786    39A     -0.497718
      40A     -0.489607    41A     -0.468166    42A     -0.459236
      43A     -0.436905    44A     -0.364977    45A     -0.361870

  @DF-RHF Final Energy:  -872.12892166270342

   => Energetics <=

    Nuclear Repulsion Energy =            739.0140130429766714
    One-Electron Energy =               -2663.4064976699019098
    Two-Electron Energy =                1052.2635629642218191
    Total Energy =                       -872.1289216627033056
  Basis Set: (AUG-CC-PVTZ AUX)
    Blend: AUG-CC-PVTZ-RI
    Molecular point group: c1

    Geometry (in Angstrom), charge = 0, multiplicity = 1:

       Center              X                  Y                   Z               Mass
    ------------   -----------------  -----------------  -----------------  -----------------
         S           -1.253409165354    -0.406182567834    -0.316249330636    31.972071174400
         O           -1.695399165354     0.400347432166    -1.452921330636    15.994914619570
         O           -1.517199165354    -1.839458567834    -0.197484330636    15.994914619570
         N           -1.932623165354     0.283675432166     1.042073669364    14.003074004430
         C            0.507264834646    -0.172441567834    -0.164575330636    12.000000000000
         C            1.259779834646    -1.117660567834     0.538795669364    12.000000000000
         C            1.095092834646     0.979574432166    -0.693717330636    12.000000000000
         C            2.628467834646    -0.904741567834     0.703010669364    12.000000000000
         C            2.465938834646     1.179339432166    -0.519795330636    12.000000000000
         C            3.229632834646     0.245962432166     0.184859669364    12.000000000000
         C           -1.715512965354     1.917398332166     1.273858269364    12.000000000000
         H            0.782752834646    -2.021473567834     0.908566669364     1.007825032230
         H            0.491968834646     1.677518432166    -1.267657330636     1.007825032230
         H           -1.745582165354    -0.296644567834     1.858826669364     1.007825032230
         H            3.227492834646    -1.639082567834     1.235681669364     1.007825032230
         H            2.937473834646     2.066003432166    -0.936109330636     1.007825032230
         H            4.297045834646     0.405676432166     0.315081669364     1.007825032230
         H           -2.374210165354     2.026174432166     2.081231669364     1.007825032230
         H           -2.079663165354     2.237028432166     0.347359669364     1.007825032230
         H           -0.701102165354     1.997763432166     1.457835669364     1.007825032230

  Basis Set: AUG-CC-PVTZ
    Blend: AUG-CC-PVTZ
  Basis Set: (AUG-CC-PVTZ AUX)
    Blend: AUG-CC-PVTZ-JKFIT
	 Reference Energy          =    -872.1289216627034193 [Eh]
	 Singles Energy            =      -0.0000000000000000 [Eh]
	 Same-Spin Energy          =      -0.5644088048060942 [Eh]
	 Opposite-Spin Energy      =      -1.6963336444774149 [Eh]
	 Correlation Energy        =      -2.2607424492835091 [Eh]
	 Total Energy              =    -874.3896641119869173 [Eh]

	 ================> DF-SCS-MP2 Energies <==================
	-----------------------------------------------------------
	 SCS Same-Spin Scale       =       0.3333333333333333 [-]
	 SCS Opposite-Spin Scale   =       1.2000000000000000 [-]
	 SCS Same-Spin Energy      =      -0.1881362682686981 [Eh]
	 SCS Opposite-Spin Energy  =      -2.0356003733728976 [Eh]
	 SCS Correlation Energy    =      -2.2237366416415956 [Eh]
	 SCS Total Energy          =    -874.3526583043450273 [Eh]
	-----------------------------------------------------------

  Dipole Moment: [D]
     X:     3.6616      Y:     2.9080      Z:     3.7530     Total:     5.9957

*** Psi4 exiting successfully. Buy a developer a beer!
