                               Psi4 1.3.2 release

  ==> Input File <==

--------------------------------------------------------------------------
#psi4
#
memory 32 gb

molecule  {
0 1
  S       -1.2780750    -0.4285550    -0.3473560
  O       -1.7200650     0.3779750    -1.4840280
  O       -1.5418650    -1.8618310    -0.2285910
  N       -1.8903659     0.2669734     0.9339253
  C        0.4825990    -0.1948140    -0.1956820
  C        1.2351140    -1.1400330     0.5076890
  C        1.0704270     0.9572020    -0.7248240
  C        2.6038020    -0.9271140     0.6719040
  C        2.4412730     1.1569670    -0.5509020
  C        3.2049670     0.2235900     0.1537530
  C       -1.7662690     1.6987010     1.2148980
  H        0.7580870    -2.0438460     0.8774600
  H        0.4673030     1.6551460    -1.2987640
  H       -1.7702480    -0.3190170     1.8277200
  H        3.2028270    -1.6614550     1.2045750
  H        2.9128080     2.0436310    -0.9672160
  H        4.2723800     0.3833040     0.2839750
  H       -2.3988760     2.0038020     2.0501250
  H       -2.1043290     2.2146560     0.3162530
  H       -0.7257680     1.9753910     1.4267290
units angstrom
no_reorient  #important for SAPT in psi4, default
symmetry c1  #important for SAPT in psi4, default
}

set PROPERTIES_ORIGIN ["COM"]
properties('MP2/aug-cc-pvtz', properties = ['dipole'])
--------------------------------------------------------------------------

    Molecular point group: c1
  Charge       = 0
  Multiplicity = 1
  Basis Set: AUG-CC-PVTZ
    Blend: AUG-CC-PVTZ
  Basis Set: (AUG-CC-PVTZ AUX)
    Blend: AUG-CC-PVTZ-JKFIT

    Orbital Energies [Eh]
    ---------------------

    Doubly Occupied:

       1A    -92.200120     2A    -20.545805     3A    -20.541512
       4A    -15.607106     5A    -11.282117     6A    -11.277849
       7A    -11.266931     8A    -11.266801     9A    -11.264517
      10A    -11.259698    11A    -11.259533    12A     -9.165548
      13A     -6.851145    14A     -6.850120    15A     -6.850004
      16A     -1.456161    17A     -1.334799    18A     -1.246521
      19A     -1.178817    20A     -1.054897    21A     -1.040843
      22A     -0.977277    23A     -0.887827    24A     -0.852936
      25A     -0.810356    26A     -0.751412    27A     -0.712806
      28A     -0.682008    29A     -0.674582    30A     -0.652774
      31A     -0.640661    32A     -0.620478    33A     -0.613476
      34A     -0.610490    35A     -0.561820    36A     -0.545907
      37A     -0.531540    38A     -0.520470    39A     -0.508162
      40A     -0.495148    41A     -0.470633    42A     -0.466525
      43A     -0.438667    44A     -0.364049    45A     -0.360391

  @DF-RHF Final Energy:  -872.14897725008791

   => Energetics <=

    Nuclear Repulsion Energy =            746.0321169312076108
    One-Electron Energy =               -2677.2597134781817658
    Two-Electron Energy =                1059.0786192968862451
    Total Energy =                       -872.1489772500879099
  Basis Set: (AUG-CC-PVTZ AUX)
    Blend: AUG-CC-PVTZ-RI
    Molecular point group: c1

    Geometry (in Angstrom), charge = 0, multiplicity = 1:

       Center              X                  Y                   Z               Mass
    ------------   -----------------  -----------------  -----------------  -----------------
         S           -1.257057806062    -0.392872482477    -0.307987509814    31.972071174400
         O           -1.699047806062     0.413657517523    -1.444659509814    15.994914619570
         O           -1.520847806062    -1.826148482477    -0.189222509814    15.994914619570
         N           -1.869348706062     0.302655917523     0.973293790186    14.003074004430
         C            0.503616193938    -0.159131482477    -0.156313509814    12.000000000000
         C            1.256131193938    -1.104350482477     0.547057490186    12.000000000000
         C            1.091444193938     0.992884517523    -0.685455509814    12.000000000000
         C            2.624819193938    -0.891431482477     0.711272490186    12.000000000000
         C            2.462290193938     1.192649517523    -0.511533509814    12.000000000000
         C            3.225984193938     0.259272517523     0.193121490186    12.000000000000
         C           -1.745251806062     1.734383517523     1.254266490186    12.000000000000
         H            0.779104193938    -2.008163482477     0.916828490186     1.007825032230
         H            0.488320193938     1.690828517523    -1.259395509814     1.007825032230
         H           -1.749230806062    -0.283334482477     1.867088490186     1.007825032230
         H            3.223844193938    -1.625772482477     1.243943490186     1.007825032230
         H            2.933825193938     2.079313517523    -0.927847509814     1.007825032230
         H            4.293397193938     0.418986517523     0.323343490186     1.007825032230
         H           -2.377858806062     2.039484517523     2.089493490186     1.007825032230
         H           -2.083311806062     2.250338517523     0.355621490186     1.007825032230
         H           -0.704750806062     2.011073517523     1.466097490186     1.007825032230

  Basis Set: AUG-CC-PVTZ
    Blend: AUG-CC-PVTZ
  Basis Set: (AUG-CC-PVTZ AUX)
    Blend: AUG-CC-PVTZ-JKFIT
	 Reference Energy          =    -872.1489772500879099 [Eh]
	 Singles Energy            =      -0.0000000000000000 [Eh]
	 Same-Spin Energy          =      -0.5648124021955132 [Eh]
	 Opposite-Spin Energy      =      -1.6939094096037959 [Eh]
	 Correlation Energy        =      -2.2587218117993091 [Eh]
	 Total Energy              =    -874.4076990618872287 [Eh]

	 ================> DF-SCS-MP2 Energies <==================
	-----------------------------------------------------------
	 SCS Same-Spin Scale       =       0.3333333333333333 [-]
	 SCS Opposite-Spin Scale   =       1.2000000000000000 [-]
	 SCS Same-Spin Energy      =      -0.1882708007318377 [Eh]
	 SCS Opposite-Spin Energy  =      -2.0326912915245550 [Eh]
	 SCS Correlation Energy    =      -2.2209620922563929 [Eh]
	 SCS Total Energy          =    -874.3699393423443098 [Eh]
	-----------------------------------------------------------

  Dipole Moment: [D]
     X:     3.2657      Y:     2.6218      Z:     3.9415     Total:     5.7510

*** Psi4 exiting successfully. Buy a developer a beer!
