                               Psi4 1.3.2 release

  ==> Input File <==

--------------------------------------------------------------------------
#psi4
#
memory 32 gb

molecule  {
0 1
  S       -1.2780750    -0.4285550    -0.3473560
  O       -1.7200650     0.3779750    -1.4840280
  O       -1.5418650    -1.8618310    -0.2285910
  N       -1.7948540     0.3022532     1.0601723
  C        0.4825990    -0.1948140    -0.1956820
  C        1.2351140    -1.1400330     0.5076890
  C        1.0704270     0.9572020    -0.7248240
  C        2.6038020    -0.9271140     0.6719040
  C        2.4412730     1.1569670    -0.5509020
  C        3.2049670     0.2235900     0.1537530
  C       -1.7662690     1.6987010     1.2148980
  H        0.7580870    -2.0438460     0.8774600
  H        0.4673030     1.6551460    -1.2987640
  H       -1.7702480    -0.3190170     1.8277200
  H        3.2028270    -1.6614550     1.2045750
  H        2.9128080     2.0436310    -0.9672160
  H        4.2723800     0.3833040     0.2839750
  H       -2.3988760     2.0038020     2.0501250
  H       -2.1043290     2.2146560     0.3162530
  H       -0.7257680     1.9753910     1.4267290
units angstrom
no_reorient  #important for SAPT in psi4, default
symmetry c1  #important for SAPT in psi4, default
}

set PROPERTIES_ORIGIN ["COM"]
properties('MP2/aug-cc-pvtz', properties = ['dipole'])
--------------------------------------------------------------------------

    Molecular point group: c1
  Charge       = 0
  Multiplicity = 1
  Basis Set: AUG-CC-PVTZ
    Blend: AUG-CC-PVTZ
  Basis Set: (AUG-CC-PVTZ AUX)
    Blend: AUG-CC-PVTZ-JKFIT

    Orbital Energies [Eh]
    ---------------------

    Doubly Occupied:

       1A    -92.207565     2A    -20.553792     3A    -20.552637
       4A    -15.594917     5A    -11.278304     6A    -11.272485
       7A    -11.266165     8A    -11.266091     9A    -11.263368
      10A    -11.259160    11A    -11.258940    12A     -9.171730
      13A     -6.856984    14A     -6.856331    15A     -6.856272
      16A     -1.455524    17A     -1.341307    18A     -1.249252
      19A     -1.178279    20A     -1.055452    21A     -1.040206
      22A     -0.969621    23A     -0.892853    24A     -0.852418
      25A     -0.816162    26A     -0.748943    27A     -0.716851
      28A     -0.684712    29A     -0.676324    30A     -0.654192
      31A     -0.640590    32A     -0.624076    33A     -0.621339
      34A     -0.612564    35A     -0.570040    36A     -0.545501
      37A     -0.529257    38A     -0.520092    39A     -0.510797
      40A     -0.502450    41A     -0.479137    42A     -0.463651
      43A     -0.422859    44A     -0.362012    45A     -0.358926

  @DF-RHF Final Energy:  -872.14874061533624

   => Energetics <=

    Nuclear Repulsion Energy =            744.6337973526298128
    One-Electron Energy =               -2674.3448214169866333
    Two-Electron Energy =                1057.5622834490206969
    Total Energy =                       -872.1487406153362372
  Basis Set: (AUG-CC-PVTZ AUX)
    Blend: AUG-CC-PVTZ-RI
    Molecular point group: c1

    Geometry (in Angstrom), charge = 0, multiplicity = 1:

       Center              X                  Y                   Z               Mass
    ------------   -----------------  -----------------  -----------------  -----------------
         S           -1.264877591945    -0.395760923415    -0.318323651261    31.972071174400
         O           -1.706867591945     0.410769076585    -1.454995651261    15.994914619570
         O           -1.528667591945    -1.829036923415    -0.199558651261    15.994914619570
         N           -1.781656591945     0.335047276585     1.089204648739    14.003074004430
         C            0.495796408055    -0.162019923415    -0.166649651261    12.000000000000
         C            1.248311408055    -1.107238923415     0.536721348739    12.000000000000
         C            1.083624408055     0.989996076585    -0.695791651261    12.000000000000
         C            2.616999408055    -0.894319923415     0.700936348739    12.000000000000
         C            2.454470408055     1.189761076585    -0.521869651261    12.000000000000
         C            3.218164408055     0.256384076585     0.182785348739    12.000000000000
         C           -1.753071591945     1.731495076585     1.243930348739    12.000000000000
         H            0.771284408055    -2.011051923415     0.906492348739     1.007825032230
         H            0.480500408055     1.687940076585    -1.269731651261     1.007825032230
         H           -1.757050591945    -0.286222923415     1.856752348739     1.007825032230
         H            3.216024408055    -1.628660923415     1.233607348739     1.007825032230
         H            2.926005408055     2.076425076585    -0.938183651261     1.007825032230
         H            4.285577408055     0.416098076585     0.313007348739     1.007825032230
         H           -2.385678591945     2.036596076585     2.079157348739     1.007825032230
         H           -2.091131591945     2.247450076585     0.345285348739     1.007825032230
         H           -0.712570591945     2.008185076585     1.455761348739     1.007825032230

  Basis Set: AUG-CC-PVTZ
    Blend: AUG-CC-PVTZ
  Basis Set: (AUG-CC-PVTZ AUX)
    Blend: AUG-CC-PVTZ-JKFIT
	 Reference Energy          =    -872.1487406153362372 [Eh]
	 Singles Energy            =      -0.0000000000000000 [Eh]
	 Same-Spin Energy          =      -0.5651395844859299 [Eh]
	 Opposite-Spin Energy      =      -1.6945583211496684 [Eh]
	 Correlation Energy        =      -2.2596979056355986 [Eh]
	 Total Energy              =    -874.4084385209717993 [Eh]

	 ================> DF-SCS-MP2 Energies <==================
	-----------------------------------------------------------
	 SCS Same-Spin Scale       =       0.3333333333333333 [-]
	 SCS Opposite-Spin Scale   =       1.2000000000000000 [-]
	 SCS Same-Spin Energy      =      -0.1883798614953100 [Eh]
	 SCS Opposite-Spin Energy  =      -2.0334699853796021 [Eh]
	 SCS Correlation Energy    =      -2.2218498468749122 [Eh]
	 SCS Total Energy          =    -874.3705904622111120 [Eh]
	-----------------------------------------------------------

  Dipole Moment: [D]
     X:     3.0667      Y:     2.3292      Z:     3.5018     Total:     5.2051

*** Psi4 exiting successfully. Buy a developer a beer!
