                               Psi4 1.3.2 release

  ==> Input File <==

--------------------------------------------------------------------------
#psi4
#
memory 32 gb

molecule  {
0 1
  S       -1.2780750    -0.4285550    -0.3473560
  O       -1.7200650     0.3779750    -1.4840280
  O       -1.5418650    -1.8618310    -0.2285910
  N       -1.9572890     0.2613030     1.0109670
  C        0.3838282    -0.2079265    -0.2041906
  C        1.2351140    -1.1400330     0.5076890
  C        1.0704270     0.9572020    -0.7248240
  C        2.6038020    -0.9271140     0.6719040
  C        2.4412730     1.1569670    -0.5509020
  C        3.2049670     0.2235900     0.1537530
  C       -1.7662690     1.6987010     1.2148980
  H        0.7580870    -2.0438460     0.8774600
  H        0.4673030     1.6551460    -1.2987640
  H       -1.7702480    -0.3190170     1.8277200
  H        3.2028270    -1.6614550     1.2045750
  H        2.9128080     2.0436310    -0.9672160
  H        4.2723800     0.3833040     0.2839750
  H       -2.3988760     2.0038020     2.0501250
  H       -2.1043290     2.2146560     0.3162530
  H       -0.7257680     1.9753910     1.4267290
units angstrom
no_reorient  #important for SAPT in psi4, default
symmetry c1  #important for SAPT in psi4, default
}

set PROPERTIES_ORIGIN ["COM"]
properties('MP2/aug-cc-pvtz', properties = ['dipole'])
--------------------------------------------------------------------------

    Molecular point group: c1
  Charge       = 0
  Multiplicity = 1
  Basis Set: AUG-CC-PVTZ
    Blend: AUG-CC-PVTZ
  Basis Set: (AUG-CC-PVTZ AUX)
    Blend: AUG-CC-PVTZ-JKFIT

    Orbital Energies [Eh]
    ---------------------

    Doubly Occupied:

       1A    -92.201945     2A    -20.545442     3A    -20.545349
       4A    -15.602427     5A    -11.283619     6A    -11.280754
       7A    -11.280561     8A    -11.275422     9A    -11.274003
      10A    -11.263250    11A    -11.263144    12A     -9.167794
      13A     -6.852963    14A     -6.852706    15A     -6.852176
      16A     -1.454302    17A     -1.336333    18A     -1.233698
      19A     -1.174549    20A     -1.064365    21A     -1.040737
      22A     -0.963898    23A     -0.907670    24A     -0.850719
      25A     -0.811713    26A     -0.750833    27A     -0.714476
      28A     -0.682769    29A     -0.673348    30A     -0.654372
      31A     -0.640287    32A     -0.620777    33A     -0.611168
      34A     -0.606123    35A     -0.566353    36A     -0.550823
      37A     -0.527590    38A     -0.514077    39A     -0.504602
      40A     -0.495436    41A     -0.473455    42A     -0.471454
      43A     -0.440859    44A     -0.364620    45A     -0.362759

  @DF-RHF Final Energy:  -872.14284357171744

   => Energetics <=

    Nuclear Repulsion Energy =            743.7076726218353997
    One-Electron Energy =               -2672.4895851564365330
    Two-Electron Energy =                1056.6390689628838118
    Total Energy =                       -872.1428435717173215
  Basis Set: (AUG-CC-PVTZ AUX)
    Blend: AUG-CC-PVTZ-RI
    Molecular point group: c1

    Geometry (in Angstrom), charge = 0, multiplicity = 1:

       Center              X                  Y                   Z               Mass
    ------------   -----------------  -----------------  -----------------  -----------------
         S           -1.244648803449    -0.391488248388    -0.313698125443    31.972071174400
         O           -1.686638803449     0.415041751612    -1.450370125443    15.994914619570
         O           -1.508438803449    -1.824764248388    -0.194933125443    15.994914619570
         N           -1.923862803449     0.298369751612     1.044624874557    14.003074004430
         C            0.417254396551    -0.170859748388    -0.170532725443    12.000000000000
         C            1.268540196551    -1.102966248388     0.541346874557    12.000000000000
         C            1.103853196551     0.994268751612    -0.691166125443    12.000000000000
         C            2.637228196551    -0.890047248388     0.705561874557    12.000000000000
         C            2.474699196551     1.194033751612    -0.517244125443    12.000000000000
         C            3.238393196551     0.260656751612     0.187410874557    12.000000000000
         C           -1.732842803449     1.735767751612     1.248555874557    12.000000000000
         H            0.791513196551    -2.006779248388     0.911117874557     1.007825032230
         H            0.500729196551     1.692212751612    -1.265106125443     1.007825032230
         H           -1.736821803449    -0.281950248388     1.861377874557     1.007825032230
         H            3.236253196551    -1.624388248388     1.238232874557     1.007825032230
         H            2.946234196551     2.080697751612    -0.933558125443     1.007825032230
         H            4.305806196551     0.420370751612     0.317632874557     1.007825032230
         H           -2.365449803449     2.040868751612     2.083782874557     1.007825032230
         H           -2.070902803449     2.251722751612     0.349910874557     1.007825032230
         H           -0.692341803449     2.012457751612     1.460386874557     1.007825032230

  Basis Set: AUG-CC-PVTZ
    Blend: AUG-CC-PVTZ
  Basis Set: (AUG-CC-PVTZ AUX)
    Blend: AUG-CC-PVTZ-JKFIT
	 Reference Energy          =    -872.1428435717174352 [Eh]
	 Singles Energy            =      -0.0000000000000000 [Eh]
	 Same-Spin Energy          =      -0.5652420524156958 [Eh]
	 Opposite-Spin Energy      =      -1.6959451713476126 [Eh]
	 Correlation Energy        =      -2.2611872237633084 [Eh]
	 Total Energy              =    -874.4040307954807076 [Eh]

	 ================> DF-SCS-MP2 Energies <==================
	-----------------------------------------------------------
	 SCS Same-Spin Scale       =       0.3333333333333333 [-]
	 SCS Opposite-Spin Scale   =       1.2000000000000000 [-]
	 SCS Same-Spin Energy      =      -0.1884140174718986 [Eh]
	 SCS Opposite-Spin Energy  =      -2.0351342056171351 [Eh]
	 SCS Correlation Energy    =      -2.2235482230890335 [Eh]
	 SCS Total Energy          =    -874.3663917948064181 [Eh]
	-----------------------------------------------------------

  Dipole Moment: [D]
     X:     3.9170      Y:     2.5390      Z:     3.6095     Total:     5.9006

*** Psi4 exiting successfully. Buy a developer a beer!
