                               Psi4 1.3.2 release

  ==> Input File <==

--------------------------------------------------------------------------
#psi4
#
memory 32 gb

molecule  {
0 1
  S       -1.2757270    -0.4548516    -0.3308967
  O       -1.7200650     0.3779750    -1.4840280
  O       -1.5418650    -1.8618310    -0.2285910
  N       -1.9572890     0.2613030     1.0109670
  C        0.4825990    -0.1948140    -0.1956820
  C        1.2351140    -1.1400330     0.5076890
  C        1.0704270     0.9572020    -0.7248240
  C        2.6038020    -0.9271140     0.6719040
  C        2.4412730     1.1569670    -0.5509020
  C        3.2049670     0.2235900     0.1537530
  C       -1.7662690     1.6987010     1.2148980
  H        0.7580870    -2.0438460     0.8774600
  H        0.4673030     1.6551460    -1.2987640
  H       -1.7702480    -0.3190170     1.8277200
  H        3.2028270    -1.6614550     1.2045750
  H        2.9128080     2.0436310    -0.9672160
  H        4.2723800     0.3833040     0.2839750
  H       -2.3988760     2.0038020     2.0501250
  H       -2.1043290     2.2146560     0.3162530
  H       -0.7257680     1.9753910     1.4267290
units angstrom
no_reorient  #important for SAPT in psi4, default
symmetry c1  #important for SAPT in psi4, default
}

set PROPERTIES_ORIGIN ["COM"]
properties('MP2/aug-cc-pvtz', properties = ['dipole'])
--------------------------------------------------------------------------

    Molecular point group: c1
  Charge       = 0
  Multiplicity = 1
  Basis Set: AUG-CC-PVTZ
    Blend: AUG-CC-PVTZ
  Basis Set: (AUG-CC-PVTZ AUX)
    Blend: AUG-CC-PVTZ-JKFIT

    Orbital Energies [Eh]
    ---------------------

    Doubly Occupied:

       1A    -92.202677     2A    -20.553831     3A    -20.540314
       4A    -15.604800     5A    -11.282626     6A    -11.276369
       7A    -11.270728     8A    -11.270435     9A    -11.267886
      10A    -11.262181    11A    -11.262011    12A     -9.167725
      13A     -6.852891    14A     -6.852402    15A     -6.852040
      16A     -1.455597    17A     -1.333448    18A     -1.234256
      19A     -1.181987    20A     -1.058022    21A     -1.043770
      22A     -0.964044    23A     -0.893538    24A     -0.855913
      25A     -0.813127    26A     -0.749346    27A     -0.711978
      28A     -0.679248    29A     -0.672599    30A     -0.656142
      31A     -0.641887    32A     -0.620291    33A     -0.616018
      34A     -0.608587    35A     -0.566373    36A     -0.548506
      37A     -0.533329    38A     -0.523496    39A     -0.503590
      40A     -0.498430    41A     -0.471925    42A     -0.464435
      43A     -0.435546    44A     -0.368131    45A     -0.363020

  @DF-RHF Final Energy:  -872.15369543354313

   => Energetics <=

    Nuclear Repulsion Energy =            742.7243736698005705
    One-Electron Energy =               -2670.5851537836597345
    Two-Electron Energy =                1055.7070846803160293
    Total Energy =                       -872.1536954335431346
  Basis Set: (AUG-CC-PVTZ AUX)
    Blend: AUG-CC-PVTZ-RI
    Molecular point group: c1

    Geometry (in Angstrom), charge = 0, multiplicity = 1:

       Center              X                  Y                   Z               Mass
    ------------   -----------------  -----------------  -----------------  -----------------
         S           -1.249669570531    -0.413789144761    -0.300912574340    31.972071174400
         O           -1.694007570531     0.419037455239    -1.454043874340    15.994914619570
         O           -1.515807570531    -1.820768544761    -0.198606874340    15.994914619570
         N           -1.931231570531     0.302365455239     1.040951125660    14.003074004430
         C            0.508656429469    -0.153751544761    -0.165697874340    12.000000000000
         C            1.261171429469    -1.098970544761     0.537673125660    12.000000000000
         C            1.096484429469     0.998264455239    -0.694839874340    12.000000000000
         C            2.629859429469    -0.886051544761     0.701888125660    12.000000000000
         C            2.467330429469     1.198029455239    -0.520917874340    12.000000000000
         C            3.231024429469     0.264652455239     0.183737125660    12.000000000000
         C           -1.740211570531     1.739763455239     1.244882125660    12.000000000000
         H            0.784144429469    -2.002783544761     0.907444125660     1.007825032230
         H            0.493360429469     1.696208455239    -1.268779874340     1.007825032230
         H           -1.744190570531    -0.277954544761     1.857704125660     1.007825032230
         H            3.228884429469    -1.620392544761     1.234559125660     1.007825032230
         H            2.938865429469     2.084693455239    -0.937231874340     1.007825032230
         H            4.298437429469     0.424366455239     0.313959125660     1.007825032230
         H           -2.372818570531     2.044864455239     2.080109125660     1.007825032230
         H           -2.078271570531     2.255718455239     0.346237125660     1.007825032230
         H           -0.699710570531     2.016453455239     1.456713125660     1.007825032230

  Basis Set: AUG-CC-PVTZ
    Blend: AUG-CC-PVTZ
  Basis Set: (AUG-CC-PVTZ AUX)
    Blend: AUG-CC-PVTZ-JKFIT
	 Reference Energy          =    -872.1536954335431346 [Eh]
	 Singles Energy            =      -0.0000000000000000 [Eh]
	 Same-Spin Energy          =      -0.5645468697999608 [Eh]
	 Opposite-Spin Energy      =      -1.6945848112794595 [Eh]
	 Correlation Energy        =      -2.2591316810794204 [Eh]
	 Total Energy              =    -874.4128271146225870 [Eh]

	 ================> DF-SCS-MP2 Energies <==================
	-----------------------------------------------------------
	 SCS Same-Spin Scale       =       0.3333333333333333 [-]
	 SCS Opposite-Spin Scale   =       1.2000000000000000 [-]
	 SCS Same-Spin Energy      =      -0.1881822899333203 [Eh]
	 SCS Opposite-Spin Energy  =      -2.0335017735353511 [Eh]
	 SCS Correlation Energy    =      -2.2216840634686714 [Eh]
	 SCS Total Energy          =    -874.3753794970117497 [Eh]
	-----------------------------------------------------------

  Dipole Moment: [D]
     X:     3.7277      Y:     2.3004      Z:     3.7219     Total:     5.7481

*** Psi4 exiting successfully. Buy a developer a beer!
