                               Psi4 1.3.2 release

  ==> Input File <==

--------------------------------------------------------------------------
#psi4
#
memory 32 gb

molecule  {
0 1
  S       -1.2780750    -0.4285550    -0.3473560
  O       -1.7200650     0.3779750    -1.4840280
  O       -1.5418650    -1.8618310    -0.2285910
  N       -1.9572890     0.2613030     1.0109670
  C        0.6801406    -0.1685891    -0.1786647
  C        1.2351140    -1.1400330     0.5076890
  C        1.0704270     0.9572020    -0.7248240
  C        2.6038020    -0.9271140     0.6719040
  C        2.4412730     1.1569670    -0.5509020
  C        3.2049670     0.2235900     0.1537530
  C       -1.7662690     1.6987010     1.2148980
  H        0.7580870    -2.0438460     0.8774600
  H        0.4673030     1.6551460    -1.2987640
  H       -1.7702480    -0.3190170     1.8277200
  H        3.2028270    -1.6614550     1.2045750
  H        2.9128080     2.0436310    -0.9672160
  H        4.2723800     0.3833040     0.2839750
  H       -2.3988760     2.0038020     2.0501250
  H       -2.1043290     2.2146560     0.3162530
  H       -0.7257680     1.9753910     1.4267290
units angstrom
no_reorient  #important for SAPT in psi4, default
symmetry c1  #important for SAPT in psi4, default
}

set PROPERTIES_ORIGIN ["COM"]
properties('MP2/aug-cc-pvtz', properties = ['dipole'])
--------------------------------------------------------------------------

    Molecular point group: c1
  Charge       = 0
  Multiplicity = 1
  Basis Set: AUG-CC-PVTZ
    Blend: AUG-CC-PVTZ
  Basis Set: (AUG-CC-PVTZ AUX)
    Blend: AUG-CC-PVTZ-JKFIT

    Orbital Energies [Eh]
    ---------------------

    Doubly Occupied:

       1A    -92.190646     2A    -20.544095     3A    -20.544063
       4A    -15.601995     5A    -11.284496     6A    -11.275401
       7A    -11.265435     8A    -11.265250     9A    -11.261299
      10A    -11.259286    11A    -11.258822    12A     -9.156053
      13A     -6.840977    14A     -6.840269    15A     -6.840068
      16A     -1.443571    17A     -1.331829    18A     -1.230738
      19A     -1.206317    20A     -1.060605    21A     -1.052787
      22A     -0.958980    23A     -0.870001    24A     -0.868027
      25A     -0.815951    26A     -0.750717    27A     -0.707456
      28A     -0.674640    29A     -0.665170    30A     -0.663601
      31A     -0.643981    32A     -0.628725    33A     -0.616713
      34A     -0.603996    35A     -0.565203    36A     -0.551945
      37A     -0.548236    38A     -0.539590    39A     -0.497050
      40A     -0.493550    41A     -0.470337    42A     -0.452566
      43A     -0.404207    44A     -0.376675    45A     -0.368471

  @DF-RHF Final Energy:  -872.12006764333933

   => Energetics <=

    Nuclear Repulsion Energy =            741.6244942337330031
    One-Electron Energy =               -2668.5095430580895481
    Two-Electron Energy =                1054.7649811810172196
    Total Energy =                       -872.1200676433393255
  Basis Set: (AUG-CC-PVTZ AUX)
    Blend: AUG-CC-PVTZ-RI
    Molecular point group: c1

    Geometry (in Angstrom), charge = 0, multiplicity = 1:

       Center              X                  Y                   Z               Mass
    ------------   -----------------  -----------------  -----------------  -----------------
         S           -1.265438352315    -0.394248196333    -0.315489045922    31.972071174400
         O           -1.707428352315     0.412281803667    -1.452161045922    15.994914619570
         O           -1.529228352315    -1.827524196333    -0.196724045922    15.994914619570
         N           -1.944652352315     0.295609803667     1.042833954078    14.003074004430
         C            0.692777247685    -0.134282296333    -0.146797745922    12.000000000000
         C            1.247750647685    -1.105726196333     0.539555954078    12.000000000000
         C            1.083063647685     0.991508803667    -0.692957045922    12.000000000000
         C            2.616438647685    -0.892807196333     0.703770954078    12.000000000000
         C            2.453909647685     1.191273803667    -0.519035045922    12.000000000000
         C            3.217603647685     0.257896803667     0.185619954078    12.000000000000
         C           -1.753632352315     1.733007803667     1.246764954078    12.000000000000
         H            0.770723647685    -2.009539196333     0.909326954078     1.007825032230
         H            0.479939647685     1.689452803667    -1.266897045922     1.007825032230
         H           -1.757611352315    -0.284710196333     1.859586954078     1.007825032230
         H            3.215463647685    -1.627148196333     1.236441954078     1.007825032230
         H            2.925444647685     2.077937803667    -0.935349045922     1.007825032230
         H            4.285016647685     0.417610803667     0.315841954078     1.007825032230
         H           -2.386239352315     2.038108803667     2.081991954078     1.007825032230
         H           -2.091692352315     2.248962803667     0.348119954078     1.007825032230
         H           -0.713131352315     2.009697803667     1.458595954078     1.007825032230

  Basis Set: AUG-CC-PVTZ
    Blend: AUG-CC-PVTZ
  Basis Set: (AUG-CC-PVTZ AUX)
    Blend: AUG-CC-PVTZ-JKFIT
	 Reference Energy          =    -872.1200676433393255 [Eh]
	 Singles Energy            =      -0.0000000000000000 [Eh]
	 Same-Spin Energy          =      -0.5659214107561459 [Eh]
	 Opposite-Spin Energy      =      -1.6966277780873522 [Eh]
	 Correlation Energy        =      -2.2625491888434981 [Eh]
	 Total Energy              =    -874.3826168321828618 [Eh]

	 ================> DF-SCS-MP2 Energies <==================
	-----------------------------------------------------------
	 SCS Same-Spin Scale       =       0.3333333333333333 [-]
	 SCS Opposite-Spin Scale   =       1.2000000000000000 [-]
	 SCS Same-Spin Energy      =      -0.1886404702520486 [Eh]
	 SCS Opposite-Spin Energy  =      -2.0359533337048226 [Eh]
	 SCS Correlation Energy    =      -2.2245938039568713 [Eh]
	 SCS Total Energy          =    -874.3446614472961755 [Eh]
	-----------------------------------------------------------

  Dipole Moment: [D]
     X:     3.6455      Y:     2.4882      Z:     3.5559     Total:     5.6679

*** Psi4 exiting successfully. Buy a developer a beer!
