                               Psi4 1.3.2 release

  ==> Input File <==

--------------------------------------------------------------------------
#psi4
#
memory 32 gb

molecule  {
0 1
  S       -1.3449273    -0.5802383    -0.2925277
  O       -1.7200650     0.3779750    -1.4840280
  O       -1.5418650    -1.8618310    -0.2285910
  N       -1.9572890     0.2613030     1.0109670
  C        0.4825990    -0.1948140    -0.1956820
  C        1.2351140    -1.1400330     0.5076890
  C        1.0704270     0.9572020    -0.7248240
  C        2.6038020    -0.9271140     0.6719040
  C        2.4412730     1.1569670    -0.5509020
  C        3.2049670     0.2235900     0.1537530
  C       -1.7662690     1.6987010     1.2148980
  H        0.7580870    -2.0438460     0.8774600
  H        0.4673030     1.6551460    -1.2987640
  H       -1.7702480    -0.3190170     1.8277200
  H        3.2028270    -1.6614550     1.2045750
  H        2.9128080     2.0436310    -0.9672160
  H        4.2723800     0.3833040     0.2839750
  H       -2.3988760     2.0038020     2.0501250
  H       -2.1043290     2.2146560     0.3162530
  H       -0.7257680     1.9753910     1.4267290
units angstrom
no_reorient  #important for SAPT in psi4, default
symmetry c1  #important for SAPT in psi4, default
}

set PROPERTIES_ORIGIN ["COM"]
properties('MP2/aug-cc-pvtz', properties = ['dipole'])
--------------------------------------------------------------------------

    Molecular point group: c1
  Charge       = 0
  Multiplicity = 1
  Basis Set: AUG-CC-PVTZ
    Blend: AUG-CC-PVTZ
  Basis Set: (AUG-CC-PVTZ AUX)
    Blend: AUG-CC-PVTZ-JKFIT

    Orbital Energies [Eh]
    ---------------------

    Doubly Occupied:

       1A    -92.197330     2A    -20.588340     3A    -20.523054
       4A    -15.604952     5A    -11.276982     6A    -11.276645
       7A    -11.261779     8A    -11.260618     9A    -11.259169
      10A    -11.256059    11A    -11.255702    12A     -9.167124
      13A     -6.853436    14A     -6.851068    15A     -6.850368
      16A     -1.547501    17A     -1.309711    18A     -1.227493
      19A     -1.172259    20A     -1.043409    21A     -1.035425
      22A     -0.966657    23A     -0.877222    24A     -0.847524
      25A     -0.810365    26A     -0.748675    27A     -0.725564
      28A     -0.695985    29A     -0.687992    30A     -0.653652
      31A     -0.640235    32A     -0.633764    33A     -0.615016
      34A     -0.607452    35A     -0.574875    36A     -0.556322
      37A     -0.526295    38A     -0.524876    39A     -0.516701
      40A     -0.498152    41A     -0.457089    42A     -0.446322
      43A     -0.419158    44A     -0.359066    45A     -0.356150

  @DF-RHF Final Energy:  -872.09781801929739

   => Energetics <=

    Nuclear Repulsion Energy =            741.4788619235652050
    One-Electron Energy =               -2668.0262946001680575
    Two-Electron Energy =                1054.4496146573055739
    Total Energy =                       -872.0978180192973923
  Basis Set: (AUG-CC-PVTZ AUX)
    Blend: AUG-CC-PVTZ-RI
    Molecular point group: c1

    Geometry (in Angstrom), charge = 0, multiplicity = 1:

       Center              X                  Y                   Z               Mass
    ------------   -----------------  -----------------  -----------------  -----------------
         S           -1.305934086940    -0.515736998162    -0.269715986606    31.972071174400
         O           -1.681071786940     0.442476301838    -1.461216286606    15.994914619570
         O           -1.502871786940    -1.797329698162    -0.205779286606    15.994914619570
         N           -1.918295786940     0.325804301838     1.033778713394    14.003074004430
         C            0.521592213060    -0.130312698162    -0.172870286606    12.000000000000
         C            1.274107213060    -1.075531698162     0.530500713394    12.000000000000
         C            1.109420213060     1.021703301838    -0.702012286606    12.000000000000
         C            2.642795213060    -0.862612698162     0.694715713394    12.000000000000
         C            2.480266213060     1.221468301838    -0.528090286606    12.000000000000
         C            3.243960213060     0.288091301838     0.176564713394    12.000000000000
         C           -1.727275786940     1.763202301838     1.237709713394    12.000000000000
         H            0.797080213060    -1.979344698162     0.900271713394     1.007825032230
         H            0.506296213060     1.719647301838    -1.275952286606     1.007825032230
         H           -1.731254786940    -0.254515698162     1.850531713394     1.007825032230
         H            3.241820213060    -1.596953698162     1.227386713394     1.007825032230
         H            2.951801213060     2.108132301838    -0.944404286606     1.007825032230
         H            4.311373213060     0.447805301838     0.306786713394     1.007825032230
         H           -2.359882786940     2.068303301838     2.072936713394     1.007825032230
         H           -2.065335786940     2.279157301838     0.339064713394     1.007825032230
         H           -0.686774786940     2.039892301838     1.449540713394     1.007825032230

  Basis Set: AUG-CC-PVTZ
    Blend: AUG-CC-PVTZ
  Basis Set: (AUG-CC-PVTZ AUX)
    Blend: AUG-CC-PVTZ-JKFIT
	 Reference Energy          =    -872.0978180192973923 [Eh]
	 Singles Energy            =      -0.0000000000000000 [Eh]
	 Same-Spin Energy          =      -0.5628762219486341 [Eh]
	 Opposite-Spin Energy      =      -1.6926711121525599 [Eh]
	 Correlation Energy        =      -2.2555473341011938 [Eh]
	 Total Energy              =    -874.3533653533985444 [Eh]

	 ================> DF-SCS-MP2 Energies <==================
	-----------------------------------------------------------
	 SCS Same-Spin Scale       =       0.3333333333333333 [-]
	 SCS Opposite-Spin Scale   =       1.2000000000000000 [-]
	 SCS Same-Spin Energy      =      -0.1876254073162114 [Eh]
	 SCS Opposite-Spin Energy  =      -2.0312053345830718 [Eh]
	 SCS Correlation Energy    =      -2.2188307418992830 [Eh]
	 SCS Total Energy          =    -874.3166487611966886 [Eh]
	-----------------------------------------------------------

  Dipole Moment: [D]
     X:     2.9244      Y:     1.2598      Z:     4.0165     Total:     5.1256

*** Psi4 exiting successfully. Buy a developer a beer!
