                               Psi4 1.3.2 release

  ==> Input File <==

--------------------------------------------------------------------------
#psi4
#
memory 32 gb

molecule  {
0 1
  S       -1.2881834    -0.4064222    -0.3633393
  O       -1.7200650     0.3779750    -1.4840280
  O       -1.5418650    -1.8618310    -0.2285910
  N       -1.9572890     0.2613030     1.0109670
  C        0.4825990    -0.1948140    -0.1956820
  C        1.2351140    -1.1400330     0.5076890
  C        1.0704270     0.9572020    -0.7248240
  C        2.6038020    -0.9271140     0.6719040
  C        2.4412730     1.1569670    -0.5509020
  C        3.2049670     0.2235900     0.1537530
  C       -1.7662690     1.6987010     1.2148980
  H        0.7580870    -2.0438460     0.8774600
  H        0.4673030     1.6551460    -1.2987640
  H       -1.7702480    -0.3190170     1.8277200
  H        3.2028270    -1.6614550     1.2045750
  H        2.9128080     2.0436310    -0.9672160
  H        4.2723800     0.3833040     0.2839750
  H       -2.3988760     2.0038020     2.0501250
  H       -2.1043290     2.2146560     0.3162530
  H       -0.7257680     1.9753910     1.4267290
units angstrom
no_reorient  #important for SAPT in psi4, default
symmetry c1  #important for SAPT in psi4, default
}

set PROPERTIES_ORIGIN ["COM"]
properties('MP2/aug-cc-pvtz', properties = ['dipole'])
--------------------------------------------------------------------------

    Molecular point group: c1
  Charge       = 0
  Multiplicity = 1
  Basis Set: AUG-CC-PVTZ
    Blend: AUG-CC-PVTZ
  Basis Set: (AUG-CC-PVTZ AUX)
    Blend: AUG-CC-PVTZ-JKFIT

    Orbital Energies [Eh]
    ---------------------

    Doubly Occupied:

       1A    -92.203053     2A    -20.554297     3A    -20.542295
       4A    -15.604258     5A    -11.282208     6A    -11.276689
       7A    -11.269693     8A    -11.269606     9A    -11.267012
      10A    -11.261562    11A    -11.261418    12A     -9.168033
      13A     -6.853201    14A     -6.852674    15A     -6.852432
      16A     -1.457753    17A     -1.337230    18A     -1.234412
      19A     -1.181005    20A     -1.056325    21A     -1.043035
      22A     -0.962415    23A     -0.892441    24A     -0.854931
      25A     -0.814402    26A     -0.750625    27A     -0.713507
      28A     -0.677324    29A     -0.673042    30A     -0.654655
      31A     -0.641411    32A     -0.623238    33A     -0.615262
      34A     -0.607776    35A     -0.568025    36A     -0.548327
      37A     -0.532554    38A     -0.522849    39A     -0.507471
      40A     -0.498883    41A     -0.474004    42A     -0.464875
      43A     -0.434176    44A     -0.367411    45A     -0.362237

  @DF-RHF Final Energy:  -872.15438127734842

   => Energetics <=

    Nuclear Repulsion Energy =            742.7777331693644101
    One-Electron Energy =               -2670.6841665300667046
    Two-Electron Energy =                1055.7520520833538740
    Total Energy =                       -872.1543812773484206
  Basis Set: (AUG-CC-PVTZ AUX)
    Blend: AUG-CC-PVTZ-RI
    Molecular point group: c1

    Geometry (in Angstrom), charge = 0, multiplicity = 1:

       Center              X                  Y                   Z               Mass
    ------------   -----------------  -----------------  -----------------  -----------------
         S           -1.259797464806    -0.374412772534    -0.327290598714    31.972071174400
         O           -1.691679064806     0.409984427466    -1.447979298714    15.994914619570
         O           -1.513479064806    -1.829821572534    -0.192542298714    15.994914619570
         N           -1.928903064806     0.293312427466     1.047015701286    14.003074004430
         C            0.510984935194    -0.162804572534    -0.159633298714    12.000000000000
         C            1.263499935194    -1.108023572534     0.543737701286    12.000000000000
         C            1.098812935194     0.989211427466    -0.688775298714    12.000000000000
         C            2.632187935194    -0.895104572534     0.707952701286    12.000000000000
         C            2.469658935194     1.188976427466    -0.514853298714    12.000000000000
         C            3.233352935194     0.255599427466     0.189801701286    12.000000000000
         C           -1.737883064806     1.730710427466     1.250946701286    12.000000000000
         H            0.786472935194    -2.011836572534     0.913508701286     1.007825032230
         H            0.495688935194     1.687155427466    -1.262715298714     1.007825032230
         H           -1.741862064806    -0.287007572534     1.863768701286     1.007825032230
         H            3.231212935194    -1.629445572534     1.240623701286     1.007825032230
         H            2.941193935194     2.075640427466    -0.931167298714     1.007825032230
         H            4.300765935194     0.415313427466     0.320023701286     1.007825032230
         H           -2.370490064806     2.035811427466     2.086173701286     1.007825032230
         H           -2.075943064806     2.246665427466     0.352301701286     1.007825032230
         H           -0.697382064806     2.007400427466     1.462777701286     1.007825032230

  Basis Set: AUG-CC-PVTZ
    Blend: AUG-CC-PVTZ
  Basis Set: (AUG-CC-PVTZ AUX)
    Blend: AUG-CC-PVTZ-JKFIT
	 Reference Energy          =    -872.1543812773484206 [Eh]
	 Singles Energy            =      -0.0000000000000000 [Eh]
	 Same-Spin Energy          =      -0.5643921475845846 [Eh]
	 Opposite-Spin Energy      =      -1.6943229710846863 [Eh]
	 Correlation Energy        =      -2.2587151186692709 [Eh]
	 Total Energy              =    -874.4130963960176359 [Eh]

	 ================> DF-SCS-MP2 Energies <==================
	-----------------------------------------------------------
	 SCS Same-Spin Scale       =       0.3333333333333333 [-]
	 SCS Opposite-Spin Scale   =       1.2000000000000000 [-]
	 SCS Same-Spin Energy      =      -0.1881307158615282 [Eh]
	 SCS Opposite-Spin Energy  =      -2.0331875653016236 [Eh]
	 SCS Correlation Energy    =      -2.2213182811631516 [Eh]
	 SCS Total Energy          =    -874.3756995585115419 [Eh]
	-----------------------------------------------------------

  Dipole Moment: [D]
     X:     3.6026      Y:     2.6888      Z:     3.4526     Total:     5.6682

*** Psi4 exiting successfully. Buy a developer a beer!
