                               Psi4 1.3.2 release

  ==> Input File <==

--------------------------------------------------------------------------
#psi4
#
memory 32 gb

molecule  {
0 1
  S       -1.2186643    -0.2693134    -0.3873022
  O       -1.7200650     0.3779750    -1.4840280
  O       -1.5418650    -1.8618310    -0.2285910
  N       -1.9572890     0.2613030     1.0109670
  C        0.4825990    -0.1948140    -0.1956820
  C        1.2351140    -1.1400330     0.5076890
  C        1.0704270     0.9572020    -0.7248240
  C        2.6038020    -0.9271140     0.6719040
  C        2.4412730     1.1569670    -0.5509020
  C        3.2049670     0.2235900     0.1537530
  C       -1.7662690     1.6987010     1.2148980
  H        0.7580870    -2.0438460     0.8774600
  H        0.4673030     1.6551460    -1.2987640
  H       -1.7702480    -0.3190170     1.8277200
  H        3.2028270    -1.6614550     1.2045750
  H        2.9128080     2.0436310    -0.9672160
  H        4.2723800     0.3833040     0.2839750
  H       -2.3988760     2.0038020     2.0501250
  H       -2.1043290     2.2146560     0.3162530
  H       -0.7257680     1.9753910     1.4267290
units angstrom
no_reorient  #important for SAPT in psi4, default
symmetry c1  #important for SAPT in psi4, default
}

set PROPERTIES_ORIGIN ["COM"]
properties('MP2/aug-cc-pvtz', properties = ['dipole'])
--------------------------------------------------------------------------

    Molecular point group: c1
  Charge       = 0
  Multiplicity = 1
  Basis Set: AUG-CC-PVTZ
    Blend: AUG-CC-PVTZ
  Basis Set: (AUG-CC-PVTZ AUX)
    Blend: AUG-CC-PVTZ-JKFIT

    Orbital Energies [Eh]
    ---------------------

    Doubly Occupied:

       1A    -92.193278     2A    -20.569377     3A    -20.505463
       4A    -15.605867     5A    -11.286660     6A    -11.278996
       7A    -11.278243     8A    -11.277661     9A    -11.275483
      10A    -11.267471    11A    -11.267364    12A     -9.162694
      13A     -6.847764    14A     -6.847023    15A     -6.846349
      16A     -1.486615    17A     -1.280378    18A     -1.218643
      19A     -1.190198    20A     -1.073023    21A     -1.050015
      22A     -0.961512    23A     -0.909360    24A     -0.862863
      25A     -0.820245    26A     -0.761264    27A     -0.719713
      28A     -0.685290    29A     -0.675790    30A     -0.657664
      31A     -0.645877    32A     -0.625759    33A     -0.621413
      34A     -0.606107    35A     -0.574484    36A     -0.556140
      37A     -0.540727    38A     -0.530841    39A     -0.514758
      40A     -0.477946    41A     -0.445035    42A     -0.429053
      43A     -0.424561    44A     -0.375283    45A     -0.367779

  @DF-RHF Final Energy:  -872.10702321747408

   => Energetics <=

    Nuclear Repulsion Energy =            744.8237569759880898
    One-Electron Energy =               -2674.6655039215906982
    Two-Electron Energy =                1057.7347237281285288
    Total Energy =                       -872.1070232174740795
  Basis Set: (AUG-CC-PVTZ AUX)
    Blend: AUG-CC-PVTZ-RI
    Molecular point group: c1

    Geometry (in Angstrom), charge = 0, multiplicity = 1:

       Center              X                  Y                   Z               Mass
    ------------   -----------------  -----------------  -----------------  -----------------
         S           -1.203273742470    -0.262934060339    -0.346774054425    31.972071174400
         O           -1.704674442470     0.384354339661    -1.443499854425    15.994914619570
         O           -1.526474442470    -1.855451660339    -0.188062854425    15.994914619570
         N           -1.941898442470     0.267682339661     1.051495145575    14.003074004430
         C            0.497989557530    -0.188434660339    -0.155153854425    12.000000000000
         C            1.250504557530    -1.133653660339     0.548217145575    12.000000000000
         C            1.085817557530     0.963581339661    -0.684295854425    12.000000000000
         C            2.619192557530    -0.920734660339     0.712432145575    12.000000000000
         C            2.456663557530     1.163346339661    -0.510373854425    12.000000000000
         C            3.220357557530     0.229969339661     0.194281145575    12.000000000000
         C           -1.750878442470     1.705080339661     1.255426145575    12.000000000000
         H            0.773477557530    -2.037466660339     0.917988145575     1.007825032230
         H            0.482693557530     1.661525339661    -1.258235854425     1.007825032230
         H           -1.754857442470    -0.312637660339     1.868248145575     1.007825032230
         H            3.218217557530    -1.655075660339     1.245103145575     1.007825032230
         H            2.928198557530     2.050010339661    -0.926687854425     1.007825032230
         H            4.287770557530     0.389683339661     0.324503145575     1.007825032230
         H           -2.383485442470     2.010181339661     2.090653145575     1.007825032230
         H           -2.088938442470     2.221035339661     0.356781145575     1.007825032230
         H           -0.710377442470     1.981770339661     1.467257145575     1.007825032230

  Basis Set: AUG-CC-PVTZ
    Blend: AUG-CC-PVTZ
  Basis Set: (AUG-CC-PVTZ AUX)
    Blend: AUG-CC-PVTZ-JKFIT
	 Reference Energy          =    -872.1070232174740795 [Eh]
	 Singles Energy            =      -0.0000000000000000 [Eh]
	 Same-Spin Energy          =      -0.5652957207904237 [Eh]
	 Opposite-Spin Energy      =      -1.6967931321510563 [Eh]
	 Correlation Energy        =      -2.2620888529414800 [Eh]
	 Total Energy              =    -874.3691120704155537 [Eh]

	 ================> DF-SCS-MP2 Energies <==================
	-----------------------------------------------------------
	 SCS Same-Spin Scale       =       0.3333333333333333 [-]
	 SCS Opposite-Spin Scale   =       1.2000000000000000 [-]
	 SCS Same-Spin Energy      =      -0.1884319069301412 [Eh]
	 SCS Opposite-Spin Energy  =      -2.0361517585812674 [Eh]
	 SCS Correlation Energy    =      -2.2245836655114086 [Eh]
	 SCS Total Energy          =    -874.3316068829855112 [Eh]
	-----------------------------------------------------------

  Dipole Moment: [D]
     X:     4.4662      Y:     3.8954      Z:     3.3265     Total:     6.7961

*** Psi4 exiting successfully. Buy a developer a beer!
