                               Psi4 1.3.2 release

  ==> Input File <==

--------------------------------------------------------------------------
#psi4
#
memory 32 gb

molecule  {
0 1
  S       -1.2780750    -0.4285550    -0.3473560
  O       -1.7200650     0.3779750    -1.4840280
  O       -1.5418650    -1.8618310    -0.2285910
  N       -2.0232815     0.2626354     1.0890022
  C        0.4825990    -0.1948140    -0.1956820
  C        1.2351140    -1.1400330     0.5076890
  C        1.0704270     0.9572020    -0.7248240
  C        2.6038020    -0.9271140     0.6719040
  C        2.4412730     1.1569670    -0.5509020
  C        3.2049670     0.2235900     0.1537530
  C       -1.7662690     1.6987010     1.2148980
  H        0.7580870    -2.0438460     0.8774600
  H        0.4673030     1.6551460    -1.2987640
  H       -1.7702480    -0.3190170     1.8277200
  H        3.2028270    -1.6614550     1.2045750
  H        2.9128080     2.0436310    -0.9672160
  H        4.2723800     0.3833040     0.2839750
  H       -2.3988760     2.0038020     2.0501250
  H       -2.1043290     2.2146560     0.3162530
  H       -0.7257680     1.9753910     1.4267290
units angstrom
no_reorient  #important for SAPT in psi4, default
symmetry c1  #important for SAPT in psi4, default
}

set PROPERTIES_ORIGIN ["COM"]
properties('MP2/aug-cc-pvtz', properties = ['dipole'])
--------------------------------------------------------------------------

    Molecular point group: c1
  Charge       = 0
  Multiplicity = 1
  Basis Set: AUG-CC-PVTZ
    Blend: AUG-CC-PVTZ
  Basis Set: (AUG-CC-PVTZ AUX)
    Blend: AUG-CC-PVTZ-JKFIT

    Orbital Energies [Eh]
    ---------------------

    Doubly Occupied:

       1A    -92.203374     2A    -20.551671     3A    -20.548347
       4A    -15.603483     5A    -11.286580     6A    -11.273760
       7A    -11.273646     8A    -11.272665     9A    -11.270751
      10A    -11.264284    11A    -11.264146    12A     -9.168320
      13A     -6.853175    14A     -6.852864    15A     -6.852573
      16A     -1.449306    17A     -1.338276    18A     -1.225410
      19A     -1.184678    20A     -1.060638    21A     -1.046303
      22A     -0.952798    23A     -0.899468    24A     -0.858328
      25A     -0.815167    26A     -0.747459    27A     -0.710331
      28A     -0.675331    29A     -0.671515    30A     -0.659014
      31A     -0.642755    32A     -0.623859    33A     -0.618326
      34A     -0.602876    35A     -0.570542    36A     -0.550128
      37A     -0.534631    38A     -0.525794    39A     -0.501220
      40A     -0.496528    41A     -0.476030    42A     -0.464397
      43A     -0.431045    44A     -0.371804    45A     -0.365166

  @DF-RHF Final Energy:  -872.14600900562414

   => Energetics <=

    Nuclear Repulsion Energy =            739.6687235001905947
    One-Electron Energy =               -2664.4119357552567635
    Two-Electron Energy =                1052.5972032494421455
    Total Energy =                       -872.1460090056241370
  Basis Set: (AUG-CC-PVTZ AUX)
    Blend: AUG-CC-PVTZ-RI
    Molecular point group: c1

    Geometry (in Angstrom), charge = 0, multiplicity = 1:

       Center              X                  Y                   Z               Mass
    ------------   -----------------  -----------------  -----------------  -----------------
         S           -1.246175690510    -0.392517320124    -0.320684023582    31.972071174400
         O           -1.688165690510     0.414012679876    -1.457356023582    15.994914619570
         O           -1.509965690510    -1.825793320124    -0.201919023582    15.994914619570
         N           -1.991382190510     0.298673079876     1.115674176418    14.003074004430
         C            0.514498309490    -0.158776320124    -0.169010023582    12.000000000000
         C            1.267013309490    -1.103995320124     0.534360976418    12.000000000000
         C            1.102326309490     0.993239679876    -0.698152023582    12.000000000000
         C            2.635701309490    -0.891076320124     0.698575976418    12.000000000000
         C            2.473172309490     1.193004679876    -0.524230023582    12.000000000000
         C            3.236866309490     0.259627679876     0.180424976418    12.000000000000
         C           -1.734369690510     1.734738679876     1.241569976418    12.000000000000
         H            0.789986309490    -2.007808320124     0.904131976418     1.007825032230
         H            0.499202309490     1.691183679876    -1.272092023582     1.007825032230
         H           -1.738348690510    -0.282979320124     1.854391976418     1.007825032230
         H            3.234726309490    -1.625417320124     1.231246976418     1.007825032230
         H            2.944707309490     2.079668679876    -0.940544023582     1.007825032230
         H            4.304279309490     0.419341679876     0.310646976418     1.007825032230
         H           -2.366976690510     2.039839679876     2.076796976418     1.007825032230
         H           -2.072429690510     2.250693679876     0.342924976418     1.007825032230
         H           -0.693868690510     2.011428679876     1.453400976418     1.007825032230

  Basis Set: AUG-CC-PVTZ
    Blend: AUG-CC-PVTZ
  Basis Set: (AUG-CC-PVTZ AUX)
    Blend: AUG-CC-PVTZ-JKFIT
	 Reference Energy          =    -872.1460090056241370 [Eh]
	 Singles Energy            =      -0.0000000000000000 [Eh]
	 Same-Spin Energy          =      -0.5648042588390920 [Eh]
	 Opposite-Spin Energy      =      -1.6963998617389997 [Eh]
	 Correlation Energy        =      -2.2612041205780917 [Eh]
	 Total Energy              =    -874.4072131262022367 [Eh]

	 ================> DF-SCS-MP2 Energies <==================
	-----------------------------------------------------------
	 SCS Same-Spin Scale       =       0.3333333333333333 [-]
	 SCS Opposite-Spin Scale   =       1.2000000000000000 [-]
	 SCS Same-Spin Energy      =      -0.1882680862796973 [Eh]
	 SCS Opposite-Spin Energy  =      -2.0356798340867996 [Eh]
	 SCS Correlation Energy    =      -2.2239479203664971 [Eh]
	 SCS Total Energy          =    -874.3699569259906639 [Eh]
	-----------------------------------------------------------

  Dipole Moment: [D]
     X:     4.1201      Y:     2.4191      Z:     3.2577     Total:     5.7827

*** Psi4 exiting successfully. Buy a developer a beer!
