                               Psi4 1.3.2 release

  ==> Input File <==

--------------------------------------------------------------------------
#psi4
#
memory 32 gb

molecule  {
0 1
  S       -1.2375991    -0.3231276    -0.3756708
  O       -1.7200650     0.3779750    -1.4840280
  O       -1.5418650    -1.8618310    -0.2285910
  N       -1.9572890     0.2613030     1.0109670
  C        0.4825990    -0.1948140    -0.1956820
  C        1.2351140    -1.1400330     0.5076890
  C        1.0704270     0.9572020    -0.7248240
  C        2.6038020    -0.9271140     0.6719040
  C        2.4412730     1.1569670    -0.5509020
  C        3.2049670     0.2235900     0.1537530
  C       -1.7662690     1.6987010     1.2148980
  H        0.7580870    -2.0438460     0.8774600
  H        0.4673030     1.6551460    -1.2987640
  H       -1.7702480    -0.3190170     1.8277200
  H        3.2028270    -1.6614550     1.2045750
  H        2.9128080     2.0436310    -0.9672160
  H        4.2723800     0.3833040     0.2839750
  H       -2.3988760     2.0038020     2.0501250
  H       -2.1043290     2.2146560     0.3162530
  H       -0.7257680     1.9753910     1.4267290
units angstrom
no_reorient  #important for SAPT in psi4, default
symmetry c1  #important for SAPT in psi4, default
}

set PROPERTIES_ORIGIN ["COM"]
properties('MP2/aug-cc-pvtz', properties = ['dipole'])
--------------------------------------------------------------------------

    Molecular point group: c1
  Charge       = 0
  Multiplicity = 1
  Basis Set: AUG-CC-PVTZ
    Blend: AUG-CC-PVTZ
  Basis Set: (AUG-CC-PVTZ AUX)
    Blend: AUG-CC-PVTZ-JKFIT

    Orbital Energies [Eh]
    ---------------------

    Doubly Occupied:

       1A    -92.197827     2A    -20.562534     3A    -20.518957
       4A    -15.605203     5A    -11.285374     6A    -11.277110
       7A    -11.276393     8A    -11.275891     9A    -11.273132
      10A    -11.265804    11A    -11.265695    12A     -9.165039
      13A     -6.850063    14A     -6.849620    15A     -6.848969
      16A     -1.468278    17A     -1.298084    18A     -1.229101
      19A     -1.187861    20A     -1.068147    21A     -1.048170
      22A     -0.961878    23A     -0.904520    24A     -0.860701
      25A     -0.817921    26A     -0.757197    27A     -0.716473
      28A     -0.680262    29A     -0.673779    30A     -0.657485
      31A     -0.644290    32A     -0.623351    33A     -0.619745
      34A     -0.603362    35A     -0.571204    36A     -0.552748
      37A     -0.538173    38A     -0.528508    39A     -0.508282
      40A     -0.489060    41A     -0.450654    42A     -0.445253
      43A     -0.435236    44A     -0.373381    45A     -0.366436

  @DF-RHF Final Energy:  -872.13195807651141

   => Energetics <=

    Nuclear Repulsion Energy =            744.1109771394416157
    One-Electron Energy =               -2673.2915681735148610
    Two-Electron Energy =                1057.0486329575617219
    Total Energy =                       -872.1319580765114097
  Basis Set: (AUG-CC-PVTZ AUX)
    Blend: AUG-CC-PVTZ-RI
    Molecular point group: c1

    Geometry (in Angstrom), charge = 0, multiplicity = 1:

       Center              X                  Y                   Z               Mass
    ------------   -----------------  -----------------  -----------------  -----------------
         S           -1.218669013377    -0.306688638556    -0.337316940855    31.972071174400
         O           -1.701134913377     0.394413961444    -1.445674140855    15.994914619570
         O           -1.522934913377    -1.845392038556    -0.190237140855    15.994914619570
         N           -1.938358913377     0.277741961444     1.049320859145    14.003074004430
         C            0.501529086623    -0.178375038556    -0.157328140855    12.000000000000
         C            1.254044086623    -1.123594038556     0.546042859145    12.000000000000
         C            1.089357086623     0.973640961444    -0.686470140855    12.000000000000
         C            2.622732086623    -0.910675038556     0.710257859145    12.000000000000
         C            2.460203086623     1.173405961444    -0.512548140855    12.000000000000
         C            3.223897086623     0.240028961444     0.192106859145    12.000000000000
         C           -1.747338913377     1.715139961444     1.253251859145    12.000000000000
         H            0.777017086623    -2.027407038556     0.915813859145     1.007825032230
         H            0.486233086623     1.671584961444    -1.260410140855     1.007825032230
         H           -1.751317913377    -0.302578038556     1.866073859145     1.007825032230
         H            3.221757086623    -1.645016038556     1.242928859145     1.007825032230
         H            2.931738086623     2.060069961444    -0.928862140855     1.007825032230
         H            4.291310086623     0.399742961444     0.322328859145     1.007825032230
         H           -2.379945913377     2.020240961444     2.088478859145     1.007825032230
         H           -2.085398913377     2.231094961444     0.354606859145     1.007825032230
         H           -0.706837913377     1.991829961444     1.465082859145     1.007825032230

  Basis Set: AUG-CC-PVTZ
    Blend: AUG-CC-PVTZ
  Basis Set: (AUG-CC-PVTZ AUX)
    Blend: AUG-CC-PVTZ-JKFIT
	 Reference Energy          =    -872.1319580765114097 [Eh]
	 Singles Energy            =      -0.0000000000000000 [Eh]
	 Same-Spin Energy          =      -0.5651230821521716 [Eh]
	 Opposite-Spin Energy      =      -1.6959347600655681 [Eh]
	 Correlation Energy        =      -2.2610578422177396 [Eh]
	 Total Energy              =    -874.3930159187291338 [Eh]

	 ================> DF-SCS-MP2 Energies <==================
	-----------------------------------------------------------
	 SCS Same-Spin Scale       =       0.3333333333333333 [-]
	 SCS Opposite-Spin Scale   =       1.2000000000000000 [-]
	 SCS Same-Spin Energy      =      -0.1883743607173905 [Eh]
	 SCS Opposite-Spin Energy  =      -2.0351217120786815 [Eh]
	 SCS Correlation Energy    =      -2.2234960727960722 [Eh]
	 SCS Total Energy          =    -874.3554541493074339 [Eh]
	-----------------------------------------------------------

  Dipole Moment: [D]
     X:     4.2178      Y:     3.4213      Z:     3.3952     Total:     6.4049

*** Psi4 exiting successfully. Buy a developer a beer!
