                               Psi4 1.3.2 release

  ==> Input File <==

--------------------------------------------------------------------------
#psi4
#
memory 32 gb

molecule  {
0 1
  S       -1.2397401    -0.5149184    -0.2793356
  O       -1.7200650     0.3779750    -1.4840280
  O       -1.5418650    -1.8618310    -0.2285910
  N       -1.9572890     0.2613030     1.0109670
  C        0.4825990    -0.1948140    -0.1956820
  C        1.2351140    -1.1400330     0.5076890
  C        1.0704270     0.9572020    -0.7248240
  C        2.6038020    -0.9271140     0.6719040
  C        2.4412730     1.1569670    -0.5509020
  C        3.2049670     0.2235900     0.1537530
  C       -1.7662690     1.6987010     1.2148980
  H        0.7580870    -2.0438460     0.8774600
  H        0.4673030     1.6551460    -1.2987640
  H       -1.7702480    -0.3190170     1.8277200
  H        3.2028270    -1.6614550     1.2045750
  H        2.9128080     2.0436310    -0.9672160
  H        4.2723800     0.3833040     0.2839750
  H       -2.3988760     2.0038020     2.0501250
  H       -2.1043290     2.2146560     0.3162530
  H       -0.7257680     1.9753910     1.4267290
units angstrom
no_reorient  #important for SAPT in psi4, default
symmetry c1  #important for SAPT in psi4, default
}

set PROPERTIES_ORIGIN ["COM"]
properties('MP2/aug-cc-pvtz', properties = ['dipole'])
--------------------------------------------------------------------------

    Molecular point group: c1
  Charge       = 0
  Multiplicity = 1
  Basis Set: AUG-CC-PVTZ
    Blend: AUG-CC-PVTZ
  Basis Set: (AUG-CC-PVTZ AUX)
    Blend: AUG-CC-PVTZ-JKFIT

    Orbital Energies [Eh]
    ---------------------

    Doubly Occupied:

       1A    -92.198017     2A    -20.566586     3A    -20.519141
       4A    -15.605648     5A    -11.284404     6A    -11.275688
       7A    -11.274261     8A    -11.273576     9A    -11.270996
      10A    -11.264415    11A    -11.264207    12A     -9.165239
      13A     -6.850425    14A     -6.849826    15A     -6.849098
      16A     -1.479570    17A     -1.300758    18A     -1.227538
      19A     -1.185456    20A     -1.064309    21A     -1.046280
      22A     -0.966035    23A     -0.899034    24A     -0.859080
      25A     -0.812333    26A     -0.749874    27A     -0.712384
      28A     -0.685684    29A     -0.676466    30A     -0.659683
      31A     -0.644406    32A     -0.620228    33A     -0.616254
      34A     -0.610094    35A     -0.566650    36A     -0.552991
      37A     -0.536458    38A     -0.526930    39A     -0.508913
      40A     -0.492343    41A     -0.450167    42A     -0.445604
      43A     -0.435645    44A     -0.370844    45A     -0.365340

  @DF-RHF Final Energy:  -872.13139935223921

   => Energetics <=

    Nuclear Repulsion Energy =            743.1071746683845731
    One-Electron Energy =               -2671.3193856090792906
    Two-Electron Energy =                1056.0808115884553899
    Total Energy =                       -872.1313993522392138
  Basis Set: (AUG-CC-PVTZ AUX)
    Blend: AUG-CC-PVTZ-RI
    Molecular point group: c1

    Geometry (in Angstrom), charge = 0, multiplicity = 1:

       Center              X                  Y                   Z               Mass
    ------------   -----------------  -----------------  -----------------  -----------------
         S           -1.220409790940    -0.462627508963    -0.258989918556    31.972071174400
         O           -1.700734690940     0.430265891037    -1.463682318556    15.994914619570
         O           -1.522534690940    -1.809540108963    -0.208245318556    15.994914619570
         N           -1.937958690940     0.313593891037     1.031312681444    14.003074004430
         C            0.501929309060    -0.142523108963    -0.175336318556    12.000000000000
         C            1.254444309060    -1.087742108963     0.528034681444    12.000000000000
         C            1.089757309060     1.009492891037    -0.704478318556    12.000000000000
         C            2.623132309060    -0.874823108963     0.692249681444    12.000000000000
         C            2.460603309060     1.209257891037    -0.530556318556    12.000000000000
         C            3.224297309060     0.275880891037     0.174098681444    12.000000000000
         C           -1.746938690940     1.750991891037     1.235243681444    12.000000000000
         H            0.777417309060    -1.991555108963     0.897805681444     1.007825032230
         H            0.486633309060     1.707436891037    -1.278418318556     1.007825032230
         H           -1.750917690940    -0.266726108963     1.848065681444     1.007825032230
         H            3.222157309060    -1.609164108963     1.224920681444     1.007825032230
         H            2.932138309060     2.095921891037    -0.946870318556     1.007825032230
         H            4.291710309060     0.435594891037     0.304320681444     1.007825032230
         H           -2.379545690940     2.056092891037     2.070470681444     1.007825032230
         H           -2.084998690940     2.266946891037     0.336598681444     1.007825032230
         H           -0.706437690940     2.027681891037     1.447074681444     1.007825032230

  Basis Set: AUG-CC-PVTZ
    Blend: AUG-CC-PVTZ
  Basis Set: (AUG-CC-PVTZ AUX)
    Blend: AUG-CC-PVTZ-JKFIT
	 Reference Energy          =    -872.1313993522392138 [Eh]
	 Singles Energy            =      -0.0000000000000000 [Eh]
	 Same-Spin Energy          =      -0.5647497330206626 [Eh]
	 Opposite-Spin Energy      =      -1.6953549306861087 [Eh]
	 Correlation Energy        =      -2.2601046637067714 [Eh]
	 Total Energy              =    -874.3915040159459977 [Eh]

	 ================> DF-SCS-MP2 Energies <==================
	-----------------------------------------------------------
	 SCS Same-Spin Scale       =       0.3333333333333333 [-]
	 SCS Opposite-Spin Scale   =       1.2000000000000000 [-]
	 SCS Same-Spin Energy      =      -0.1882499110068875 [Eh]
	 SCS Opposite-Spin Energy  =      -2.0344259168233303 [Eh]
	 SCS Correlation Energy    =      -2.2226758278302179 [Eh]
	 SCS Total Energy          =    -874.3540751800694579 [Eh]
	-----------------------------------------------------------

  Dipole Moment: [D]
     X:     4.1326      Y:     1.8374      Z:     4.1737     Total:     6.1542

*** Psi4 exiting successfully. Buy a developer a beer!
