                               Psi4 1.3.2 release

  ==> Input File <==

--------------------------------------------------------------------------
#psi4
#
memory 32 gb

molecule  {
0 1
  S       -1.2780750    -0.4285550    -0.3473560
  O       -1.7200650     0.3779750    -1.4840280
  O       -1.5418650    -1.8618310    -0.2285910
  N       -2.0558280     0.2659270     1.1282737
  C        0.4825990    -0.1948140    -0.1956820
  C        1.2351140    -1.1400330     0.5076890
  C        1.0704270     0.9572020    -0.7248240
  C        2.6038020    -0.9271140     0.6719040
  C        2.4412730     1.1569670    -0.5509020
  C        3.2049670     0.2235900     0.1537530
  C       -1.7662690     1.6987010     1.2148980
  H        0.7580870    -2.0438460     0.8774600
  H        0.4673030     1.6551460    -1.2987640
  H       -1.7702480    -0.3190170     1.8277200
  H        3.2028270    -1.6614550     1.2045750
  H        2.9128080     2.0436310    -0.9672160
  H        4.2723800     0.3833040     0.2839750
  H       -2.3988760     2.0038020     2.0501250
  H       -2.1043290     2.2146560     0.3162530
  H       -0.7257680     1.9753910     1.4267290
units angstrom
no_reorient  #important for SAPT in psi4, default
symmetry c1  #important for SAPT in psi4, default
}

set PROPERTIES_ORIGIN ["COM"]
properties('MP2/aug-cc-pvtz', properties = ['dipole'])
--------------------------------------------------------------------------

    Molecular point group: c1
  Charge       = 0
  Multiplicity = 1
  Basis Set: AUG-CC-PVTZ
    Blend: AUG-CC-PVTZ
  Basis Set: (AUG-CC-PVTZ AUX)
    Blend: AUG-CC-PVTZ-JKFIT

    Orbital Energies [Eh]
    ---------------------

    Doubly Occupied:

       1A    -92.202640     2A    -20.553284     3A    -20.548634
       4A    -15.603908     5A    -11.288201     6A    -11.275054
       7A    -11.274945     8A    -11.271959     9A    -11.271517
      10A    -11.265176    11A    -11.265045    12A     -9.167797
      13A     -6.852530    14A     -6.852267    15A     -6.851955
      16A     -1.448094    17A     -1.338636    18A     -1.222196
      19A     -1.185811    20A     -1.061757    21A     -1.047353
      22A     -0.949271    23A     -0.901977    24A     -0.859368
      25A     -0.815242    26A     -0.745904    27A     -0.708404
      28A     -0.674566    29A     -0.671779    30A     -0.660927
      31A     -0.643206    32A     -0.625180    33A     -0.619313
      34A     -0.600551    35A     -0.571887    36A     -0.550945
      37A     -0.535172    38A     -0.526809    39A     -0.501641
      40A     -0.494324    41A     -0.476691    42A     -0.462767
      43A     -0.428067    44A     -0.373331    45A     -0.366100

  @DF-RHF Final Energy:  -872.13672484884910

   => Energetics <=

    Nuclear Repulsion Energy =            738.1451109580887078
    One-Electron Energy =               -2661.3393070964521030
    Two-Electron Energy =                1051.0574712895142966
    Total Energy =                       -872.1367248488490986
  Basis Set: (AUG-CC-PVTZ AUX)
    Blend: AUG-CC-PVTZ-RI
    Molecular point group: c1

    Geometry (in Angstrom), charge = 0, multiplicity = 1:

       Center              X                  Y                   Z               Mass
    ------------   -----------------  -----------------  -----------------  -----------------
         S           -1.243511031329    -0.392786811226    -0.323899274470    31.972071174400
         O           -1.685501031329     0.413743188774    -1.460571274470    15.994914619570
         O           -1.507301031329    -1.826062811226    -0.205134274470    15.994914619570
         N           -2.021264031329     0.301695188774     1.151730425530    14.003074004430
         C            0.517162968671    -0.159045811226    -0.172225274470    12.000000000000
         C            1.269677968671    -1.104264811226     0.531145725530    12.000000000000
         C            1.104990968671     0.992970188774    -0.701367274470    12.000000000000
         C            2.638365968671    -0.891345811226     0.695360725530    12.000000000000
         C            2.475836968671     1.192735188774    -0.527445274470    12.000000000000
         C            3.239530968671     0.259358188774     0.177209725530    12.000000000000
         C           -1.731705031329     1.734469188774     1.238354725530    12.000000000000
         H            0.792650968671    -2.008077811226     0.900916725530     1.007825032230
         H            0.501866968671     1.690914188774    -1.275307274470     1.007825032230
         H           -1.735684031329    -0.283248811226     1.851176725530     1.007825032230
         H            3.237390968671    -1.625686811226     1.228031725530     1.007825032230
         H            2.947371968671     2.079399188774    -0.943759274470     1.007825032230
         H            4.306943968671     0.419072188774     0.307431725530     1.007825032230
         H           -2.364312031329     2.039570188774     2.073581725530     1.007825032230
         H           -2.069765031329     2.250424188774     0.339709725530     1.007825032230
         H           -0.691204031329     2.011159188774     1.450185725530     1.007825032230

  Basis Set: AUG-CC-PVTZ
    Blend: AUG-CC-PVTZ
  Basis Set: (AUG-CC-PVTZ AUX)
    Blend: AUG-CC-PVTZ-JKFIT
	 Reference Energy          =    -872.1367248488490986 [Eh]
	 Singles Energy            =      -0.0000000000000000 [Eh]
	 Same-Spin Energy          =      -0.5651151224427826 [Eh]
	 Opposite-Spin Energy      =      -1.6977235481113953 [Eh]
	 Correlation Energy        =      -2.2628386705541779 [Eh]
	 Total Energy              =    -874.3995635194032729 [Eh]

	 ================> DF-SCS-MP2 Energies <==================
	-----------------------------------------------------------
	 SCS Same-Spin Scale       =       0.3333333333333333 [-]
	 SCS Opposite-Spin Scale   =       1.2000000000000000 [-]
	 SCS Same-Spin Energy      =      -0.1883717074809275 [Eh]
	 SCS Opposite-Spin Energy  =      -2.0372682577336740 [Eh]
	 SCS Correlation Energy    =      -2.2256399652146017 [Eh]
	 SCS Total Energy          =    -874.3623648140636533 [Eh]
	-----------------------------------------------------------

  Dipole Moment: [D]
     X:     4.3116      Y:     2.3772      Z:     3.1057     Total:     5.8212

*** Psi4 exiting successfully. Buy a developer a beer!
