                               Psi4 1.3.2 release

  ==> Input File <==

--------------------------------------------------------------------------
#psi4
#
memory 32 gb

molecule  {
0 1
  S       -1.2559728    -0.5849869    -0.2480829
  O       -1.7200650     0.3779750    -1.4840280
  O       -1.5418650    -1.8618310    -0.2285910
  N       -1.9572890     0.2613030     1.0109670
  C        0.4825990    -0.1948140    -0.1956820
  C        1.2351140    -1.1400330     0.5076890
  C        1.0704270     0.9572020    -0.7248240
  C        2.6038020    -0.9271140     0.6719040
  C        2.4412730     1.1569670    -0.5509020
  C        3.2049670     0.2235900     0.1537530
  C       -1.7662690     1.6987010     1.2148980
  H        0.7580870    -2.0438460     0.8774600
  H        0.4673030     1.6551460    -1.2987640
  H       -1.7702480    -0.3190170     1.8277200
  H        3.2028270    -1.6614550     1.2045750
  H        2.9128080     2.0436310    -0.9672160
  H        4.2723800     0.3833040     0.2839750
  H       -2.3988760     2.0038020     2.0501250
  H       -2.1043290     2.2146560     0.3162530
  H       -0.7257680     1.9753910     1.4267290
units angstrom
no_reorient  #important for SAPT in psi4, default
symmetry c1  #important for SAPT in psi4, default
}

set PROPERTIES_ORIGIN ["COM"]
properties('MP2/aug-cc-pvtz', properties = ['dipole'])
--------------------------------------------------------------------------

    Molecular point group: c1
  Charge       = 0
  Multiplicity = 1
  Basis Set: AUG-CC-PVTZ
    Blend: AUG-CC-PVTZ
  Basis Set: (AUG-CC-PVTZ AUX)
    Blend: AUG-CC-PVTZ-JKFIT

    Orbital Energies [Eh]
    ---------------------

    Doubly Occupied:

       1A    -92.192041     2A    -20.583922     3A    -20.505853
       4A    -15.605521     5A    -11.283821     6A    -11.275416
       7A    -11.271601     8A    -11.270466     9A    -11.268207
      10A    -11.262662    11A    -11.262399    12A     -9.163110
      13A     -6.849074    14A     -6.846990    15A     -6.846273
      16A     -1.535493    17A     -1.282783    18A     -1.215569
      19A     -1.182175    20A     -1.059732    21A     -1.043561
      22A     -0.967014    23A     -0.894138    24A     -0.856475
      25A     -0.811122    26A     -0.751161    27A     -0.719529
      28A     -0.694826    29A     -0.688823    30A     -0.658906
      31A     -0.645726    32A     -0.630927    33A     -0.616576
      34A     -0.611679    35A     -0.572641    36A     -0.558675
      37A     -0.534724    38A     -0.525265    39A     -0.518949
      40A     -0.484194    41A     -0.438369    42A     -0.431068
      43A     -0.422796    44A     -0.367908    45A     -0.363076

  @DF-RHF Final Energy:  -872.09003725483353

   => Energetics <=

    Nuclear Repulsion Energy =            742.8634109098569525
    One-Electron Energy =               -2670.7644154094200530
    Two-Electron Energy =                1055.8109672447294543
    Total Energy =                       -872.0900372548335326
  Basis Set: (AUG-CC-PVTZ AUX)
    Blend: AUG-CC-PVTZ-RI
    Molecular point group: c1

    Geometry (in Angstrom), charge = 0, multiplicity = 1:

       Center              X                  Y                   Z               Mass
    ------------   -----------------  -----------------  -----------------  -----------------
         S           -1.233608072097    -0.519597930595    -0.233579363226    31.972071174400
         O           -1.697700272097     0.443363969405    -1.469524463226    15.994914619570
         O           -1.519500272097    -1.796442030595    -0.214087463226    15.994914619570
         N           -1.934924272097     0.326691969405     1.025470536774    14.003074004430
         C            0.504963727903    -0.129425030595    -0.181178463226    12.000000000000
         C            1.257478727903    -1.074644030595     0.522192536774    12.000000000000
         C            1.092791727903     1.022590969405    -0.710320463226    12.000000000000
         C            2.626166727903    -0.861725030595     0.686407536774    12.000000000000
         C            2.463637727903     1.222355969405    -0.536398463226    12.000000000000
         C            3.227331727903     0.288978969405     0.168256536774    12.000000000000
         C           -1.743904272097     1.764089969405     1.229401536774    12.000000000000
         H            0.780451727903    -1.978457030595     0.891963536774     1.007825032230
         H            0.489667727903     1.720534969405    -1.284260463226     1.007825032230
         H           -1.747883272097    -0.253628030595     1.842223536774     1.007825032230
         H            3.225191727903    -1.596066030595     1.219078536774     1.007825032230
         H            2.935172727903     2.109019969405    -0.952712463226     1.007825032230
         H            4.294744727903     0.448692969405     0.298478536774     1.007825032230
         H           -2.376511272097     2.069190969405     2.064628536774     1.007825032230
         H           -2.081964272097     2.280044969405     0.330756536774     1.007825032230
         H           -0.703403272097     2.040779969405     1.441232536774     1.007825032230

  Basis Set: AUG-CC-PVTZ
    Blend: AUG-CC-PVTZ
  Basis Set: (AUG-CC-PVTZ AUX)
    Blend: AUG-CC-PVTZ-JKFIT
	 Reference Energy          =    -872.0900372548335326 [Eh]
	 Singles Energy            =      -0.0000000000000000 [Eh]
	 Same-Spin Energy          =      -0.5637101872807515 [Eh]
	 Opposite-Spin Energy      =      -1.6943638181333938 [Eh]
	 Correlation Energy        =      -2.2580740054141453 [Eh]
	 Total Energy              =    -874.3481112602477197 [Eh]

	 ================> DF-SCS-MP2 Energies <==================
	-----------------------------------------------------------
	 SCS Same-Spin Scale       =       0.3333333333333333 [-]
	 SCS Opposite-Spin Scale   =       1.2000000000000000 [-]
	 SCS Same-Spin Energy      =      -0.1879033957602505 [Eh]
	 SCS Opposite-Spin Energy  =      -2.0332365817600726 [Eh]
	 SCS Correlation Energy    =      -2.2211399775203233 [Eh]
	 SCS Total Energy          =    -874.3111772323538844 [Eh]
	-----------------------------------------------------------

  Dipole Moment: [D]
     X:     3.9579      Y:     1.2707      Z:     4.4439     Total:     6.0850

*** Psi4 exiting successfully. Buy a developer a beer!
