                               Psi4 1.3.2 release

  ==> Input File <==

--------------------------------------------------------------------------
#psi4
#
memory 32 gb

molecule  {
0 1
  S       -1.2780750    -0.4285550    -0.3473560
  O       -1.7200650     0.3779750    -1.4840280
  O       -1.5418650    -1.8618310    -0.2285910
  N       -1.9836850     0.2537298     1.0013023
  C        0.4825990    -0.1948140    -0.1956820
  C        1.2351140    -1.1400330     0.5076890
  C        1.0704270     0.9572020    -0.7248240
  C        2.6038020    -0.9271140     0.6719040
  C        2.4412730     1.1569670    -0.5509020
  C        3.2049670     0.2235900     0.1537530
  C       -1.7662690     1.6987010     1.2148980
  H        0.7580870    -2.0438460     0.8774600
  H        0.4673030     1.6551460    -1.2987640
  H       -1.7702480    -0.3190170     1.8277200
  H        3.2028270    -1.6614550     1.2045750
  H        2.9128080     2.0436310    -0.9672160
  H        4.2723800     0.3833040     0.2839750
  H       -2.3988760     2.0038020     2.0501250
  H       -2.1043290     2.2146560     0.3162530
  H       -0.7257680     1.9753910     1.4267290
units angstrom
no_reorient  #important for SAPT in psi4, default
symmetry c1  #important for SAPT in psi4, default
}

set PROPERTIES_ORIGIN ["COM"]
properties('MP2/aug-cc-pvtz', properties = ['dipole'])
--------------------------------------------------------------------------

    Molecular point group: c1
  Charge       = 0
  Multiplicity = 1
  Basis Set: AUG-CC-PVTZ
    Blend: AUG-CC-PVTZ
  Basis Set: (AUG-CC-PVTZ AUX)
    Blend: AUG-CC-PVTZ-JKFIT

    Orbital Energies [Eh]
    ---------------------

    Doubly Occupied:

       1A    -92.202199     2A    -20.546339     3A    -20.546200
       4A    -15.606656     5A    -11.283401     6A    -11.277252
       7A    -11.271349     8A    -11.271216     9A    -11.268593
      10A    -11.262651    11A    -11.262511    12A     -9.167225
      13A     -6.852379    14A     -6.851845    15A     -6.851597
      16A     -1.451588    17A     -1.336143    18A     -1.231369
      19A     -1.182575    20A     -1.058403    21A     -1.044367
      22A     -0.961957    23A     -0.893922    24A     -0.856400
      25A     -0.813049    26A     -0.749848    27A     -0.711601
      28A     -0.676669    29A     -0.671410    30A     -0.655804
      31A     -0.641982    32A     -0.620892    33A     -0.616497
      34A     -0.604332    35A     -0.565909    36A     -0.548621
      37A     -0.533907    38A     -0.523880    39A     -0.502110
      40A     -0.497042    41A     -0.472899    42A     -0.467095
      43A     -0.437601    44A     -0.369163    45A     -0.363519

  @DF-RHF Final Energy:  -872.15469328714937

   => Energetics <=

    Nuclear Repulsion Energy =            742.4789377875785021
    One-Electron Energy =               -2670.1033301843981462
    Two-Electron Energy =                1055.4696991096702732
    Total Energy =                       -872.1546932871492572
  Basis Set: (AUG-CC-PVTZ AUX)
    Blend: AUG-CC-PVTZ-RI
    Molecular point group: c1

    Geometry (in Angstrom), charge = 0, multiplicity = 1:

       Center              X                  Y                   Z               Mass
    ------------   -----------------  -----------------  -----------------  -----------------
         S           -1.249417549919    -0.391788197521    -0.313503824676    31.972071174400
         O           -1.691407549919     0.414741802479    -1.450175824676    15.994914619570
         O           -1.513207549919    -1.825064197521    -0.194738824676    15.994914619570
         N           -1.955027549919     0.290496602479     1.035154475324    14.003074004430
         C            0.511256450081    -0.158047197521    -0.161829824676    12.000000000000
         C            1.263771450081    -1.103266197521     0.541541175324    12.000000000000
         C            1.099084450081     0.993968802479    -0.690971824676    12.000000000000
         C            2.632459450081    -0.890347197521     0.705756175324    12.000000000000
         C            2.469930450081     1.193733802479    -0.517049824676    12.000000000000
         C            3.233624450081     0.260356802479     0.187605175324    12.000000000000
         C           -1.737611549919     1.735467802479     1.248750175324    12.000000000000
         H            0.786744450081    -2.007079197521     0.911312175324     1.007825032230
         H            0.495960450081     1.691912802479    -1.264911824676     1.007825032230
         H           -1.741590549919    -0.282250197521     1.861572175324     1.007825032230
         H            3.231484450081    -1.624688197521     1.238427175324     1.007825032230
         H            2.941465450081     2.080397802479    -0.933363824676     1.007825032230
         H            4.301037450081     0.420070802479     0.317827175324     1.007825032230
         H           -2.370218549919     2.040568802479     2.083977175324     1.007825032230
         H           -2.075671549919     2.251422802479     0.350105175324     1.007825032230
         H           -0.697110549919     2.012157802479     1.460581175324     1.007825032230

  Basis Set: AUG-CC-PVTZ
    Blend: AUG-CC-PVTZ
  Basis Set: (AUG-CC-PVTZ AUX)
    Blend: AUG-CC-PVTZ-JKFIT
	 Reference Energy          =    -872.1546932871493709 [Eh]
	 Singles Energy            =      -0.0000000000000000 [Eh]
	 Same-Spin Energy          =      -0.5645715817045662 [Eh]
	 Opposite-Spin Energy      =      -1.6948577079868650 [Eh]
	 Correlation Energy        =      -2.2594292896914312 [Eh]
	 Total Energy              =    -874.4141225768407821 [Eh]

	 ================> DF-SCS-MP2 Energies <==================
	-----------------------------------------------------------
	 SCS Same-Spin Scale       =       0.3333333333333333 [-]
	 SCS Opposite-Spin Scale   =       1.2000000000000000 [-]
	 SCS Same-Spin Energy      =      -0.1881905272348554 [Eh]
	 SCS Opposite-Spin Energy  =      -2.0338292495842381 [Eh]
	 SCS Correlation Energy    =      -2.2220197768190935 [Eh]
	 SCS Total Energy          =    -874.3767130639685092 [Eh]
	-----------------------------------------------------------

  Dipole Moment: [D]
     X:     3.8061      Y:     2.5426      Z:     3.6006     Total:     5.8237

*** Psi4 exiting successfully. Buy a developer a beer!
