                               Psi4 1.3.2 release

  ==> Input File <==

--------------------------------------------------------------------------
#psi4
#
memory 32 gb

molecule  {
0 1
  S       -1.2887191    -0.4544064    -0.3392372
  O       -1.7200650     0.3779750    -1.4840280
  O       -1.5418650    -1.8618310    -0.2285910
  N       -1.9572890     0.2613030     1.0109670
  C        0.4825990    -0.1948140    -0.1956820
  C        1.2351140    -1.1400330     0.5076890
  C        1.0704270     0.9572020    -0.7248240
  C        2.6038020    -0.9271140     0.6719040
  C        2.4412730     1.1569670    -0.5509020
  C        3.2049670     0.2235900     0.1537530
  C       -1.7662690     1.6987010     1.2148980
  H        0.7580870    -2.0438460     0.8774600
  H        0.4673030     1.6551460    -1.2987640
  H       -1.7702480    -0.3190170     1.8277200
  H        3.2028270    -1.6614550     1.2045750
  H        2.9128080     2.0436310    -0.9672160
  H        4.2723800     0.3833040     0.2839750
  H       -2.3988760     2.0038020     2.0501250
  H       -2.1043290     2.2146560     0.3162530
  H       -0.7257680     1.9753910     1.4267290
units angstrom
no_reorient  #important for SAPT in psi4, default
symmetry c1  #important for SAPT in psi4, default
}

set PROPERTIES_ORIGIN ["COM"]
properties('MP2/aug-cc-pvtz', properties = ['dipole'])
--------------------------------------------------------------------------

    Molecular point group: c1
  Charge       = 0
  Multiplicity = 1
  Basis Set: AUG-CC-PVTZ
    Blend: AUG-CC-PVTZ
  Basis Set: (AUG-CC-PVTZ AUX)
    Blend: AUG-CC-PVTZ-JKFIT

    Orbital Energies [Eh]
    ---------------------

    Doubly Occupied:

       1A    -92.203262     2A    -20.554462     3A    -20.543259
       4A    -15.604365     5A    -11.281863     6A    -11.276326
       7A    -11.269245     8A    -11.268966     9A    -11.266501
      10A    -11.261216    11A    -11.261043    12A     -9.168157
      13A     -6.853339    14A     -6.852838    15A     -6.852543
      16A     -1.458654    17A     -1.339337    18A     -1.234092
      19A     -1.180431    20A     -1.055432    21A     -1.042576
      22A     -0.963506    23A     -0.890946    24A     -0.854552
      25A     -0.812910    26A     -0.748706    27A     -0.712366
      28A     -0.679025    29A     -0.673142    30A     -0.654898
      31A     -0.641256    32A     -0.622025    33A     -0.615111
      34A     -0.609219    35A     -0.566577    36A     -0.548123
      37A     -0.532085    38A     -0.522370    39A     -0.505594
      40A     -0.501076    41A     -0.475700    42A     -0.465258
      43A     -0.433837    44A     -0.366748    45A     -0.361979

  @DF-RHF Final Energy:  -872.15475818014716

   => Energetics <=

    Nuclear Repulsion Energy =            742.5159855645083553
    One-Electron Energy =               -2670.1716553528399345
    Two-Electron Energy =                1055.5009116081844240
    Total Energy =                       -872.1547581801471551
  Basis Set: (AUG-CC-PVTZ AUX)
    Blend: AUG-CC-PVTZ-RI
    Molecular point group: c1

    Geometry (in Angstrom), charge = 0, multiplicity = 1:

       Center              X                  Y                   Z               Mass
    ------------   -----------------  -----------------  -----------------  -----------------
         S           -1.260233025077    -0.413427167101    -0.307693964003    31.972071174400
         O           -1.691578925077     0.418954232899    -1.452484764003    15.994914619570
         O           -1.513378925077    -1.820851767101    -0.197047764003    15.994914619570
         N           -1.928802925077     0.302282232899     1.042510235997    14.003074004430
         C            0.511085074923    -0.153834767101    -0.164138764003    12.000000000000
         C            1.263600074923    -1.099053767101     0.539232235997    12.000000000000
         C            1.098913074923     0.998181232899    -0.693280764003    12.000000000000
         C            2.632288074923    -0.886134767101     0.703447235997    12.000000000000
         C            2.469759074923     1.197946232899    -0.519358764003    12.000000000000
         C            3.233453074923     0.264569232899     0.185296235997    12.000000000000
         C           -1.737782925077     1.739680232899     1.246441235997    12.000000000000
         H            0.786573074923    -2.002866767101     0.909003235997     1.007825032230
         H            0.495789074923     1.696125232899    -1.267220764003     1.007825032230
         H           -1.741761925077    -0.278037767101     1.859263235997     1.007825032230
         H            3.231313074923    -1.620475767101     1.236118235997     1.007825032230
         H            2.941294074923     2.084610232899    -0.935672764003     1.007825032230
         H            4.300866074923     0.424283232899     0.315518235997     1.007825032230
         H           -2.370389925077     2.044781232899     2.081668235997     1.007825032230
         H           -2.075842925077     2.255635232899     0.347796235997     1.007825032230
         H           -0.697281925077     2.016370232899     1.458272235997     1.007825032230

  Basis Set: AUG-CC-PVTZ
    Blend: AUG-CC-PVTZ
  Basis Set: (AUG-CC-PVTZ AUX)
    Blend: AUG-CC-PVTZ-JKFIT
	 Reference Energy          =    -872.1547581801471551 [Eh]
	 Singles Energy            =      -0.0000000000000000 [Eh]
	 Same-Spin Energy          =      -0.5643412845841012 [Eh]
	 Opposite-Spin Energy      =      -1.6942474266222951 [Eh]
	 Correlation Energy        =      -2.2585887112063965 [Eh]
	 Total Energy              =    -874.4133468913535125 [Eh]

	 ================> DF-SCS-MP2 Energies <==================
	-----------------------------------------------------------
	 SCS Same-Spin Scale       =       0.3333333333333333 [-]
	 SCS Opposite-Spin Scale   =       1.2000000000000000 [-]
	 SCS Same-Spin Energy      =      -0.1881137615280337 [Eh]
	 SCS Opposite-Spin Energy  =      -2.0330969119467541 [Eh]
	 SCS Correlation Energy    =      -2.2212106734747881 [Eh]
	 SCS Total Energy          =    -874.3759688536219983 [Eh]
	-----------------------------------------------------------

  Dipole Moment: [D]
     X:     3.5802      Y:     2.2940      Z:     3.6448     Total:     5.6004

*** Psi4 exiting successfully. Buy a developer a beer!
