                               Psi4 1.3.2 release

  ==> Input File <==

--------------------------------------------------------------------------
#psi4
#
memory 32 gb

molecule  {
0 1
  S       -1.2780750    -0.4285550    -0.3473560
  O       -1.7069019     0.3627178    -1.4996858
  O       -1.5418650    -1.8618310    -0.2285910
  N       -1.9572890     0.2613030     1.0109670
  C        0.4825990    -0.1948140    -0.1956820
  C        1.2351140    -1.1400330     0.5076890
  C        1.0704270     0.9572020    -0.7248240
  C        2.6038020    -0.9271140     0.6719040
  C        2.4412730     1.1569670    -0.5509020
  C        3.2049670     0.2235900     0.1537530
  C       -1.7662690     1.6987010     1.2148980
  H        0.7580870    -2.0438460     0.8774600
  H        0.4673030     1.6551460    -1.2987640
  H       -1.7702480    -0.3190170     1.8277200
  H        3.2028270    -1.6614550     1.2045750
  H        2.9128080     2.0436310    -0.9672160
  H        4.2723800     0.3833040     0.2839750
  H       -2.3988760     2.0038020     2.0501250
  H       -2.1043290     2.2146560     0.3162530
  H       -0.7257680     1.9753910     1.4267290
units angstrom
no_reorient  #important for SAPT in psi4, default
symmetry c1  #important for SAPT in psi4, default
}

set PROPERTIES_ORIGIN ["COM"]
properties('MP2/aug-cc-pvtz', properties = ['dipole'])
--------------------------------------------------------------------------

    Molecular point group: c1
  Charge       = 0
  Multiplicity = 1
  Basis Set: AUG-CC-PVTZ
    Blend: AUG-CC-PVTZ
  Basis Set: (AUG-CC-PVTZ AUX)
    Blend: AUG-CC-PVTZ-JKFIT

    Orbital Energies [Eh]
    ---------------------

    Doubly Occupied:

       1A    -92.203059     2A    -20.547531     3A    -20.546549
       4A    -15.605694     5A    -11.282133     6A    -11.277273
       7A    -11.270273     8A    -11.270180     9A    -11.267574
      10A    -11.261909    11A    -11.261767    12A     -9.167949
      13A     -6.853110    14A     -6.852561    15A     -6.852363
      16A     -1.452055    17A     -1.336290    18A     -1.235655
      19A     -1.181667    20A     -1.057626    21A     -1.043503
      22A     -0.963807    23A     -0.893716    24A     -0.855559
      25A     -0.814055    26A     -0.750110    27A     -0.712286
      28A     -0.677562    29A     -0.672659    30A     -0.655659
      31A     -0.641512    32A     -0.621257    33A     -0.615713
      34A     -0.608034    35A     -0.567874    36A     -0.547893
      37A     -0.533111    38A     -0.523080    39A     -0.503640
      40A     -0.497496    41A     -0.473396    42A     -0.466915
      43A     -0.435730    44A     -0.367913    45A     -0.362706

  @DF-RHF Final Energy:  -872.15550953274771

   => Energetics <=

    Nuclear Repulsion Energy =            742.7533084922638409
    One-Electron Energy =               -2670.6408305205331999
    Two-Electron Energy =                1055.7320124955217580
    Total Energy =                       -872.1555095327476010
  Basis Set: (AUG-CC-PVTZ AUX)
    Blend: AUG-CC-PVTZ-RI
    Molecular point group: c1

    Geometry (in Angstrom), charge = 0, multiplicity = 1:

       Center              X                  Y                   Z               Mass
    ------------   -----------------  -----------------  -----------------  -----------------
         S           -1.252809641866    -0.390981408216    -0.312830808066    31.972071174400
         O           -1.681636541866     0.400291391784    -1.465160608066    15.994914619570
         O           -1.516599641866    -1.824257408216    -0.194065808066    15.994914619570
         N           -1.932023641866     0.298876591784     1.045492191934    14.003074004430
         C            0.507864358134    -0.157240408216    -0.161156808066    12.000000000000
         C            1.260379358134    -1.102459408216     0.542214191934    12.000000000000
         C            1.095692358134     0.994775591784    -0.690298808066    12.000000000000
         C            2.629067358134    -0.889540408216     0.706429191934    12.000000000000
         C            2.466538358134     1.194540591784    -0.516376808066    12.000000000000
         C            3.230232358134     0.261163591784     0.188278191934    12.000000000000
         C           -1.741003641866     1.736274591784     1.249423191934    12.000000000000
         H            0.783352358134    -2.006272408216     0.911985191934     1.007825032230
         H            0.492568358134     1.692719591784    -1.264238808066     1.007825032230
         H           -1.744982641866    -0.281443408216     1.862245191934     1.007825032230
         H            3.228092358134    -1.623881408216     1.239100191934     1.007825032230
         H            2.938073358134     2.081204591784    -0.932690808066     1.007825032230
         H            4.297645358134     0.420877591784     0.318500191934     1.007825032230
         H           -2.373610641866     2.041375591784     2.084650191934     1.007825032230
         H           -2.079063641866     2.252229591784     0.350778191934     1.007825032230
         H           -0.700502641866     2.012964591784     1.461254191934     1.007825032230

  Basis Set: AUG-CC-PVTZ
    Blend: AUG-CC-PVTZ
  Basis Set: (AUG-CC-PVTZ AUX)
    Blend: AUG-CC-PVTZ-JKFIT
	 Reference Energy          =    -872.1555095327477147 [Eh]
	 Singles Energy            =      -0.0000000000000000 [Eh]
	 Same-Spin Energy          =      -0.5645077725024055 [Eh]
	 Opposite-Spin Energy      =      -1.6945007237491168 [Eh]
	 Correlation Energy        =      -2.2590084962515222 [Eh]
	 Total Energy              =    -874.4145180289992823 [Eh]

	 ================> DF-SCS-MP2 Energies <==================
	-----------------------------------------------------------
	 SCS Same-Spin Scale       =       0.3333333333333333 [-]
	 SCS Opposite-Spin Scale   =       1.2000000000000000 [-]
	 SCS Same-Spin Energy      =      -0.1881692575008018 [Eh]
	 SCS Opposite-Spin Energy  =      -2.0334008684989402 [Eh]
	 SCS Correlation Energy    =      -2.2215701259997420 [Eh]
	 SCS Total Energy          =    -874.3770796587474479 [Eh]
	-----------------------------------------------------------

  Dipole Moment: [D]
     X:     3.6631      Y:     2.5538      Z:     3.6228     Total:     5.7502

*** Psi4 exiting successfully. Buy a developer a beer!
