                               Psi4 1.3.2 release

  ==> Input File <==

--------------------------------------------------------------------------
#psi4
#
memory 32 gb

molecule  {
0 1
  S       -1.2681735    -0.4504777    -0.3309589
  O       -1.7200650     0.3779750    -1.4840280
  O       -1.5418650    -1.8618310    -0.2285910
  N       -1.9572890     0.2613030     1.0109670
  C        0.4825990    -0.1948140    -0.1956820
  C        1.2351140    -1.1400330     0.5076890
  C        1.0704270     0.9572020    -0.7248240
  C        2.6038020    -0.9271140     0.6719040
  C        2.4412730     1.1569670    -0.5509020
  C        3.2049670     0.2235900     0.1537530
  C       -1.7662690     1.6987010     1.2148980
  H        0.7580870    -2.0438460     0.8774600
  H        0.4673030     1.6551460    -1.2987640
  H       -1.7702480    -0.3190170     1.8277200
  H        3.2028270    -1.6614550     1.2045750
  H        2.9128080     2.0436310    -0.9672160
  H        4.2723800     0.3833040     0.2839750
  H       -2.3988760     2.0038020     2.0501250
  H       -2.1043290     2.2146560     0.3162530
  H       -0.7257680     1.9753910     1.4267290
units angstrom
no_reorient  #important for SAPT in psi4, default
symmetry c1  #important for SAPT in psi4, default
}

set PROPERTIES_ORIGIN ["COM"]
properties('MP2/aug-cc-pvtz', properties = ['dipole'])
--------------------------------------------------------------------------

    Molecular point group: c1
  Charge       = 0
  Multiplicity = 1
  Basis Set: AUG-CC-PVTZ
    Blend: AUG-CC-PVTZ
  Basis Set: (AUG-CC-PVTZ AUX)
    Blend: AUG-CC-PVTZ-JKFIT

    Orbital Energies [Eh]
    ---------------------

    Doubly Occupied:

       1A    -92.202470     2A    -20.552297     3A    -20.540223
       4A    -15.604659     5A    -11.283074     6A    -11.276166
       7A    -11.271629     8A    -11.271365     9A    -11.268740
      10A    -11.262775    11A    -11.262610    12A     -9.167549
      13A     -6.852704    14A     -6.852213    15A     -6.851849
      16A     -1.452774    17A     -1.331692    18A     -1.233803
      19A     -1.182946    20A     -1.059608    21A     -1.044517
      22A     -0.963777    23A     -0.895100    24A     -0.856744
      25A     -0.813278    26A     -0.749717    27A     -0.711802
      28A     -0.678929    29A     -0.672084    30A     -0.656763
      31A     -0.642230    32A     -0.619627    33A     -0.616574
      34A     -0.607844    35A     -0.566164    36A     -0.548659
      37A     -0.534029    38A     -0.524142    39A     -0.502051
      40A     -0.497117    41A     -0.470787    42A     -0.464626
      43A     -0.436226    44A     -0.368967    45A     -0.363650

  @DF-RHF Final Energy:  -872.15358523385089

   => Energetics <=

    Nuclear Repulsion Energy =            742.8479816164749536
    One-Electron Energy =               -2670.8300341589419986
    Two-Electron Energy =                1055.8284673086161547
    Total Energy =                       -872.1535852338508903
  Basis Set: (AUG-CC-PVTZ AUX)
    Blend: AUG-CC-PVTZ-RI
    Molecular point group: c1

    Geometry (in Angstrom), charge = 0, multiplicity = 1:

       Center              X                  Y                   Z               Mass
    ------------   -----------------  -----------------  -----------------  -----------------
         S           -1.243528065007    -0.410232868729    -0.300963147140    31.972071174400
         O           -1.695419565007     0.418219831271    -1.454032247140    15.994914619570
         O           -1.517219565007    -1.821586168729    -0.198595247140    15.994914619570
         N           -1.932643565007     0.301547831271     1.040962752860    14.003074004430
         C            0.507244434993    -0.154569168729    -0.165686247140    12.000000000000
         C            1.259759434993    -1.099788168729     0.537684752860    12.000000000000
         C            1.095072434993     0.997446831271    -0.694828247140    12.000000000000
         C            2.628447434993    -0.886869168729     0.701899752860    12.000000000000
         C            2.465918434993     1.197211831271    -0.520906247140    12.000000000000
         C            3.229612434993     0.263834831271     0.183748752860    12.000000000000
         C           -1.741623565007     1.738945831271     1.244893752860    12.000000000000
         H            0.782732434993    -2.003601168729     0.907455752860     1.007825032230
         H            0.491948434993     1.695390831271    -1.268768247140     1.007825032230
         H           -1.745602565007    -0.278772168729     1.857715752860     1.007825032230
         H            3.227472434993    -1.621210168729     1.234570752860     1.007825032230
         H            2.937453434993     2.083875831271    -0.937220247140     1.007825032230
         H            4.297025434993     0.423548831271     0.313970752860     1.007825032230
         H           -2.374230565007     2.044046831271     2.080120752860     1.007825032230
         H           -2.079683565007     2.254900831271     0.346248752860     1.007825032230
         H           -0.701122565007     2.015635831271     1.456724752860     1.007825032230

  Basis Set: AUG-CC-PVTZ
    Blend: AUG-CC-PVTZ
  Basis Set: (AUG-CC-PVTZ AUX)
    Blend: AUG-CC-PVTZ-JKFIT
	 Reference Energy          =    -872.1535852338508903 [Eh]
	 Singles Energy            =      -0.0000000000000000 [Eh]
	 Same-Spin Energy          =      -0.5646717517354294 [Eh]
	 Opposite-Spin Energy      =      -1.6947933285389443 [Eh]
	 Correlation Energy        =      -2.2594650802743734 [Eh]
	 Total Energy              =    -874.4130503141252575 [Eh]

	 ================> DF-SCS-MP2 Energies <==================
	-----------------------------------------------------------
	 SCS Same-Spin Scale       =       0.3333333333333333 [-]
	 SCS Opposite-Spin Scale   =       1.2000000000000000 [-]
	 SCS Same-Spin Energy      =      -0.1882239172451431 [Eh]
	 SCS Opposite-Spin Energy  =      -2.0337519942467330 [Eh]
	 SCS Correlation Energy    =      -2.2219759114918762 [Eh]
	 SCS Total Energy          =    -874.3755611453427719 [Eh]
	-----------------------------------------------------------

  Dipole Moment: [D]
     X:     3.8156      Y:     2.3386      Z:     3.7240     Total:     5.8220

*** Psi4 exiting successfully. Buy a developer a beer!
