                               Psi4 1.3.2 release

  ==> Input File <==

--------------------------------------------------------------------------
#psi4
#
memory 32 gb

molecule  {
0 1
  S       -1.2780750    -0.4285550    -0.3473560
  O       -1.7960790     0.4642016    -1.3829845
  O       -1.5418650    -1.8618310    -0.2285910
  N       -1.9572890     0.2613030     1.0109670
  C        0.4825990    -0.1948140    -0.1956820
  C        1.2351140    -1.1400330     0.5076890
  C        1.0704270     0.9572020    -0.7248240
  C        2.6038020    -0.9271140     0.6719040
  C        2.4412730     1.1569670    -0.5509020
  C        3.2049670     0.2235900     0.1537530
  C       -1.7662690     1.6987010     1.2148980
  H        0.7580870    -2.0438460     0.8774600
  H        0.4673030     1.6551460    -1.2987640
  H       -1.7702480    -0.3190170     1.8277200
  H        3.2028270    -1.6614550     1.2045750
  H        2.9128080     2.0436310    -0.9672160
  H        4.2723800     0.3833040     0.2839750
  H       -2.3988760     2.0038020     2.0501250
  H       -2.1043290     2.2146560     0.3162530
  H       -0.7257680     1.9753910     1.4267290
units angstrom
no_reorient  #important for SAPT in psi4, default
symmetry c1  #important for SAPT in psi4, default
}

set PROPERTIES_ORIGIN ["COM"]
properties('MP2/aug-cc-pvtz', properties = ['dipole'])
--------------------------------------------------------------------------

    Molecular point group: c1
  Charge       = 0
  Multiplicity = 1
  Basis Set: AUG-CC-PVTZ
    Blend: AUG-CC-PVTZ
  Basis Set: (AUG-CC-PVTZ AUX)
    Blend: AUG-CC-PVTZ-JKFIT

    Orbital Energies [Eh]
    ---------------------

    Doubly Occupied:

       1A    -92.202686     2A    -20.551878     3A    -20.545448
       4A    -15.596416     5A    -11.285813     6A    -11.272943
       7A    -11.272611     8A    -11.270921     9A    -11.269766
      10A    -11.263816    11A    -11.263563    12A     -9.167588
      13A     -6.852821    14A     -6.852232    15A     -6.851900
      16A     -1.452948    17A     -1.340446    18A     -1.225918
      19A     -1.183944    20A     -1.060067    21A     -1.045614
      22A     -0.958677    23A     -0.894014    24A     -0.857674
      25A     -0.812198    26A     -0.749530    27A     -0.713034
      28A     -0.678288    29A     -0.670490    30A     -0.655436
      31A     -0.643131    32A     -0.621723    33A     -0.617698
      34A     -0.603827    35A     -0.560848    36A     -0.549846
      37A     -0.534353    38A     -0.525109    39A     -0.500980
      40A     -0.500595    41A     -0.475988    42A     -0.463423
      43A     -0.432393    44A     -0.369795    45A     -0.364523

  @DF-RHF Final Energy:  -872.15159675540360

   => Energetics <=

    Nuclear Repulsion Energy =            743.2144324034280771
    One-Electron Energy =               -2671.5662432656099554
    Two-Electron Energy =                1056.2002141067782759
    Total Energy =                       -872.1515967554037161
  Basis Set: (AUG-CC-PVTZ AUX)
    Blend: AUG-CC-PVTZ-RI
    Molecular point group: c1

    Geometry (in Angstrom), charge = 0, multiplicity = 1:

       Center              X                  Y                   Z               Mass
    ------------   -----------------  -----------------  -----------------  -----------------
         S           -1.244469964215    -0.400471985717    -0.323744498055    31.972071174400
         O           -1.762473964215     0.492284614283    -1.359372998055    15.994914619570
         O           -1.508259964215    -1.833747985717    -0.204979498055    15.994914619570
         N           -1.923683964215     0.289386014283     1.034578501945    14.003074004430
         C            0.516204035785    -0.166730985717    -0.172070498055    12.000000000000
         C            1.268719035785    -1.111949985717     0.531300501945    12.000000000000
         C            1.104032035785     0.985285014283    -0.701212498055    12.000000000000
         C            2.637407035785    -0.899030985717     0.695515501945    12.000000000000
         C            2.474878035785     1.185050014283    -0.527290498055    12.000000000000
         C            3.238572035785     0.251673014283     0.177364501945    12.000000000000
         C           -1.732663964215     1.726784014283     1.238509501945    12.000000000000
         H            0.791692035785    -2.015762985717     0.901071501945     1.007825032230
         H            0.500908035785     1.683229014283    -1.275152498055     1.007825032230
         H           -1.736642964215    -0.290933985717     1.851331501945     1.007825032230
         H            3.236432035785    -1.633371985717     1.228186501945     1.007825032230
         H            2.946413035785     2.071714014283    -0.943604498055     1.007825032230
         H            4.305985035785     0.411387014283     0.307586501945     1.007825032230
         H           -2.365270964215     2.031885014283     2.073736501945     1.007825032230
         H           -2.070723964215     2.242739014283     0.339864501945     1.007825032230
         H           -0.692162964215     2.003474014283     1.450340501945     1.007825032230

  Basis Set: AUG-CC-PVTZ
    Blend: AUG-CC-PVTZ
  Basis Set: (AUG-CC-PVTZ AUX)
    Blend: AUG-CC-PVTZ-JKFIT
	 Reference Energy          =    -872.1515967554036024 [Eh]
	 Singles Energy            =      -0.0000000000000000 [Eh]
	 Same-Spin Energy          =      -0.5650447180231341 [Eh]
	 Opposite-Spin Energy      =      -1.6953886355416057 [Eh]
	 Correlation Energy        =      -2.2604333535647396 [Eh]
	 Total Energy              =    -874.4120301089683380 [Eh]

	 ================> DF-SCS-MP2 Energies <==================
	-----------------------------------------------------------
	 SCS Same-Spin Scale       =       0.3333333333333333 [-]
	 SCS Opposite-Spin Scale   =       1.2000000000000000 [-]
	 SCS Same-Spin Energy      =      -0.1883482393410447 [Eh]
	 SCS Opposite-Spin Energy  =      -2.0344663626499266 [Eh]
	 SCS Correlation Energy    =      -2.2228146019909714 [Eh]
	 SCS Total Energy          =    -874.3744113573945924 [Eh]
	-----------------------------------------------------------

  Dipole Moment: [D]
     X:     3.9791      Y:     2.2665      Z:     3.3359     Total:     5.6655

*** Psi4 exiting successfully. Buy a developer a beer!
