                               Psi4 1.3.2 release

  ==> Input File <==

--------------------------------------------------------------------------
#psi4
#
memory 32 gb

molecule  {
0 1
  S       -1.2780750    -0.4285550    -0.3473560
  O       -1.7305778     0.3571711    -1.4944152
  O       -1.5418650    -1.8618310    -0.2285910
  N       -1.9572890     0.2613030     1.0109670
  C        0.4825990    -0.1948140    -0.1956820
  C        1.2351140    -1.1400330     0.5076890
  C        1.0704270     0.9572020    -0.7248240
  C        2.6038020    -0.9271140     0.6719040
  C        2.4412730     1.1569670    -0.5509020
  C        3.2049670     0.2235900     0.1537530
  C       -1.7662690     1.6987010     1.2148980
  H        0.7580870    -2.0438460     0.8774600
  H        0.4673030     1.6551460    -1.2987640
  H       -1.7702480    -0.3190170     1.8277200
  H        3.2028270    -1.6614550     1.2045750
  H        2.9128080     2.0436310    -0.9672160
  H        4.2723800     0.3833040     0.2839750
  H       -2.3988760     2.0038020     2.0501250
  H       -2.1043290     2.2146560     0.3162530
  H       -0.7257680     1.9753910     1.4267290
units angstrom
no_reorient  #important for SAPT in psi4, default
symmetry c1  #important for SAPT in psi4, default
}

set PROPERTIES_ORIGIN ["COM"]
properties('MP2/aug-cc-pvtz', properties = ['dipole'])
--------------------------------------------------------------------------

    Molecular point group: c1
  Charge       = 0
  Multiplicity = 1
  Basis Set: AUG-CC-PVTZ
    Blend: AUG-CC-PVTZ
  Basis Set: (AUG-CC-PVTZ AUX)
    Blend: AUG-CC-PVTZ-JKFIT

    Orbital Energies [Eh]
    ---------------------

    Doubly Occupied:

       1A    -92.202706     2A    -20.547117     3A    -20.545721
       4A    -15.604913     5A    -11.283214     6A    -11.276944
       7A    -11.271051     8A    -11.270975     9A    -11.268201
      10A    -11.262509    11A    -11.262369    12A     -9.167633
      13A     -6.852792    14A     -6.852235    15A     -6.852046
      16A     -1.451690    17A     -1.335371    18A     -1.235024
      19A     -1.182380    20A     -1.058416    21A     -1.044165
      22A     -0.963483    23A     -0.894212    24A     -0.856230
      25A     -0.814063    26A     -0.750117    27A     -0.712256
      28A     -0.677614    29A     -0.672415    30A     -0.656016
      31A     -0.641999    32A     -0.620938    33A     -0.616278
      34A     -0.607622    35A     -0.567531    36A     -0.548516
      37A     -0.533671    38A     -0.523717    39A     -0.503091
      40A     -0.496754    41A     -0.472568    42A     -0.466738
      43A     -0.435768    44A     -0.368569    45A     -0.363303

  @DF-RHF Final Energy:  -872.15567289354851

   => Energetics <=

    Nuclear Repulsion Energy =            742.5926988505508461
    One-Electron Energy =               -2670.3148689957251918
    Two-Electron Energy =                1055.5664972516260605
    Total Energy =                       -872.1556728935483989
  Basis Set: (AUG-CC-PVTZ AUX)
    Blend: AUG-CC-PVTZ-RI
    Molecular point group: c1

    Geometry (in Angstrom), charge = 0, multiplicity = 1:

       Center              X                  Y                   Z               Mass
    ------------   -----------------  -----------------  -----------------  -----------------
         S           -1.250595515436    -0.390462691079    -0.313323704842    31.972071174400
         O           -1.703098315436     0.395263408921    -1.460382904842    15.994914619570
         O           -1.514385515436    -1.823738691079    -0.194558704842    15.994914619570
         N           -1.929809515436     0.299395308921     1.044999295158    14.003074004430
         C            0.510078484564    -0.156721691079    -0.161649704842    12.000000000000
         C            1.262593484564    -1.101940691079     0.541721295158    12.000000000000
         C            1.097906484564     0.995294308921    -0.690791704842    12.000000000000
         C            2.631281484564    -0.889021691079     0.705936295158    12.000000000000
         C            2.468752484564     1.195059308921    -0.516869704842    12.000000000000
         C            3.232446484564     0.261682308921     0.187785295158    12.000000000000
         C           -1.738789515436     1.736793308921     1.248930295158    12.000000000000
         H            0.785566484564    -2.005753691079     0.911492295158     1.007825032230
         H            0.494782484564     1.693238308921    -1.264731704842     1.007825032230
         H           -1.742768515436    -0.280924691079     1.861752295158     1.007825032230
         H            3.230306484564    -1.623362691079     1.238607295158     1.007825032230
         H            2.940287484564     2.081723308921    -0.933183704842     1.007825032230
         H            4.299859484564     0.421396308921     0.318007295158     1.007825032230
         H           -2.371396515436     2.041894308921     2.084157295158     1.007825032230
         H           -2.076849515436     2.252748308921     0.350285295158     1.007825032230
         H           -0.698288515436     2.013483308921     1.460761295158     1.007825032230

  Basis Set: AUG-CC-PVTZ
    Blend: AUG-CC-PVTZ
  Basis Set: (AUG-CC-PVTZ AUX)
    Blend: AUG-CC-PVTZ-JKFIT
	 Reference Energy          =    -872.1556728935485125 [Eh]
	 Singles Energy            =      -0.0000000000000000 [Eh]
	 Same-Spin Energy          =      -0.5644604968466349 [Eh]
	 Opposite-Spin Energy      =      -1.6944232764846308 [Eh]
	 Correlation Energy        =      -2.2588837733312657 [Eh]
	 Total Energy              =    -874.4145566668797755 [Eh]

	 ================> DF-SCS-MP2 Energies <==================
	-----------------------------------------------------------
	 SCS Same-Spin Scale       =       0.3333333333333333 [-]
	 SCS Opposite-Spin Scale   =       1.2000000000000000 [-]
	 SCS Same-Spin Energy      =      -0.1881534989488783 [Eh]
	 SCS Opposite-Spin Energy  =      -2.0333079317815570 [Eh]
	 SCS Correlation Energy    =      -2.2214614307304354 [Eh]
	 SCS Total Energy          =    -874.3771343242789271 [Eh]
	-----------------------------------------------------------

  Dipole Moment: [D]
     X:     3.7459      Y:     2.5638      Z:     3.6144     Total:     5.8024

*** Psi4 exiting successfully. Buy a developer a beer!
