                               Psi4 1.3.2 release

  ==> Input File <==

--------------------------------------------------------------------------
#psi4
#
memory 32 gb

molecule  {
0 1
  S       -1.2780750    -0.4285550    -0.3473560
  O       -1.7200650     0.3779750    -1.4840280
  O       -1.5418650    -1.8618310    -0.2285910
  N       -2.0098660     0.2459487     0.9912267
  C        0.4825990    -0.1948140    -0.1956820
  C        1.2351140    -1.1400330     0.5076890
  C        1.0704270     0.9572020    -0.7248240
  C        2.6038020    -0.9271140     0.6719040
  C        2.4412730     1.1569670    -0.5509020
  C        3.2049670     0.2235900     0.1537530
  C       -1.7662690     1.6987010     1.2148980
  H        0.7580870    -2.0438460     0.8774600
  H        0.4673030     1.6551460    -1.2987640
  H       -1.7702480    -0.3190170     1.8277200
  H        3.2028270    -1.6614550     1.2045750
  H        2.9128080     2.0436310    -0.9672160
  H        4.2723800     0.3833040     0.2839750
  H       -2.3988760     2.0038020     2.0501250
  H       -2.1043290     2.2146560     0.3162530
  H       -0.7257680     1.9753910     1.4267290
units angstrom
no_reorient  #important for SAPT in psi4, default
symmetry c1  #important for SAPT in psi4, default
}

set PROPERTIES_ORIGIN ["COM"]
properties('MP2/aug-cc-pvtz', properties = ['dipole'])
--------------------------------------------------------------------------

    Molecular point group: c1
  Charge       = 0
  Multiplicity = 1
  Basis Set: AUG-CC-PVTZ
    Blend: AUG-CC-PVTZ
  Basis Set: (AUG-CC-PVTZ AUX)
    Blend: AUG-CC-PVTZ-JKFIT

    Orbital Energies [Eh]
    ---------------------

    Doubly Occupied:

       1A    -92.201380     2A    -20.545378     3A    -20.545065
       4A    -15.609021     5A    -11.284165     6A    -11.278150
       7A    -11.272022     8A    -11.271884     9A    -11.269272
      10A    -11.263113    11A    -11.262983    12A     -9.166550
      13A     -6.851688    14A     -6.851170    15A     -6.850889
      16A     -1.451030    17A     -1.335385    18A     -1.228242
      19A     -1.183138    20A     -1.058830    21A     -1.044915
      22A     -0.960852    23A     -0.894106    24A     -0.856928
      25A     -0.812258    26A     -0.749524    27A     -0.710791
      28A     -0.675760    29A     -0.670495    30A     -0.655812
      31A     -0.642225    32A     -0.620470    33A     -0.616988
      34A     -0.601084    35A     -0.564717    36A     -0.549072
      37A     -0.534506    38A     -0.524379    39A     -0.500958
      40A     -0.496065    41A     -0.471884    42A     -0.467768
      43A     -0.439747    44A     -0.370068    45A     -0.364046

  @DF-RHF Final Energy:  -872.15321628766014

   => Energetics <=

    Nuclear Repulsion Energy =            742.1540306639677738
    One-Electron Energy =               -2669.4649469224859786
    Two-Electron Energy =                1055.1576999708581752
    Total Energy =                       -872.1532162876601433
  Basis Set: (AUG-CC-PVTZ AUX)
    Blend: AUG-CC-PVTZ-RI
    Molecular point group: c1

    Geometry (in Angstrom), charge = 0, multiplicity = 1:

       Center              X                  Y                   Z               Mass
    ------------   -----------------  -----------------  -----------------  -----------------
         S           -1.247274049327    -0.391151140401    -0.312678911396    31.972071174400
         O           -1.689264049327     0.415378859599    -1.449350911396    15.994914619570
         O           -1.511064049327    -1.824427140401    -0.193913911396    15.994914619570
         N           -1.979065049327     0.283352559599     1.025903788604    14.003074004430
         C            0.513399950673    -0.157410140401    -0.161004911396    12.000000000000
         C            1.265914950673    -1.102629140401     0.542366088604    12.000000000000
         C            1.101227950673     0.994605859599    -0.690146911396    12.000000000000
         C            2.634602950673    -0.889710140401     0.706581088604    12.000000000000
         C            2.472073950673     1.194370859599    -0.516224911396    12.000000000000
         C            3.235767950673     0.260993859599     0.188430088604    12.000000000000
         C           -1.735468049327     1.736104859599     1.249575088604    12.000000000000
         H            0.788887950673    -2.006442140401     0.912137088604     1.007825032230
         H            0.498103950673     1.692549859599    -1.264086911396     1.007825032230
         H           -1.739447049327    -0.281613140401     1.862397088604     1.007825032230
         H            3.233627950673    -1.624051140401     1.239252088604     1.007825032230
         H            2.943608950673     2.081034859599    -0.932538911396     1.007825032230
         H            4.303180950673     0.420707859599     0.318652088604     1.007825032230
         H           -2.368075049327     2.041205859599     2.084802088604     1.007825032230
         H           -2.073528049327     2.252059859599     0.350930088604     1.007825032230
         H           -0.694967049327     2.012794859599     1.461406088604     1.007825032230

  Basis Set: AUG-CC-PVTZ
    Blend: AUG-CC-PVTZ
  Basis Set: (AUG-CC-PVTZ AUX)
    Blend: AUG-CC-PVTZ-JKFIT
	 Reference Energy          =    -872.1532162876601433 [Eh]
	 Singles Energy            =      -0.0000000000000000 [Eh]
	 Same-Spin Energy          =      -0.5646257142836487 [Eh]
	 Opposite-Spin Energy      =      -1.6952372079337321 [Eh]
	 Correlation Energy        =      -2.2598629222173807 [Eh]
	 Total Energy              =    -874.4130792098775373 [Eh]

	 ================> DF-SCS-MP2 Energies <==================
	-----------------------------------------------------------
	 SCS Same-Spin Scale       =       0.3333333333333333 [-]
	 SCS Opposite-Spin Scale   =       1.2000000000000000 [-]
	 SCS Same-Spin Energy      =      -0.1882085714278829 [Eh]
	 SCS Opposite-Spin Energy  =      -2.0342846495204783 [Eh]
	 SCS Correlation Energy    =      -2.2224932209483610 [Eh]
	 SCS Total Energy          =    -874.3757095086084519 [Eh]
	-----------------------------------------------------------

  Dipole Moment: [D]
     X:     3.8995      Y:     2.5727      Z:     3.6158     Total:     5.9075

*** Psi4 exiting successfully. Buy a developer a beer!
