                               Psi4 1.3.2 release

  ==> Input File <==

--------------------------------------------------------------------------
#psi4
#
memory 32 gb

molecule  {
0 1
  S       -1.3197190    -0.3388307    -0.4087587
  O       -1.7200650     0.3779750    -1.4840280
  O       -1.5418650    -1.8618310    -0.2285910
  N       -1.9572890     0.2613030     1.0109670
  C        0.4825990    -0.1948140    -0.1956820
  C        1.2351140    -1.1400330     0.5076890
  C        1.0704270     0.9572020    -0.7248240
  C        2.6038020    -0.9271140     0.6719040
  C        2.4412730     1.1569670    -0.5509020
  C        3.2049670     0.2235900     0.1537530
  C       -1.7662690     1.6987010     1.2148980
  H        0.7580870    -2.0438460     0.8774600
  H        0.4673030     1.6551460    -1.2987640
  H       -1.7702480    -0.3190170     1.8277200
  H        3.2028270    -1.6614550     1.2045750
  H        2.9128080     2.0436310    -0.9672160
  H        4.2723800     0.3833040     0.2839750
  H       -2.3988760     2.0038020     2.0501250
  H       -2.1043290     2.2146560     0.3162530
  H       -0.7257680     1.9753910     1.4267290
units angstrom
no_reorient  #important for SAPT in psi4, default
symmetry c1  #important for SAPT in psi4, default
}

set PROPERTIES_ORIGIN ["COM"]
properties('MP2/aug-cc-pvtz', properties = ['dipole'])
--------------------------------------------------------------------------

    Molecular point group: c1
  Charge       = 0
  Multiplicity = 1
  Basis Set: AUG-CC-PVTZ
    Blend: AUG-CC-PVTZ
  Basis Set: (AUG-CC-PVTZ AUX)
    Blend: AUG-CC-PVTZ-JKFIT

    Orbital Energies [Eh]
    ---------------------

    Doubly Occupied:

       1A    -92.199947     2A    -20.574589     3A    -20.527115
       4A    -15.604047     5A    -11.280849     6A    -11.277760
       7A    -11.266843     8A    -11.266328     9A    -11.264147
      10A    -11.259604    11A    -11.259420    12A     -9.167160
      13A     -6.852676    14A     -6.851649    15A     -6.851037
      16A     -1.503289    17A     -1.317253    18A     -1.231679
      19A     -1.177804    20A     -1.051382    21A     -1.040338
      22A     -0.960638    23A     -0.888649    24A     -0.851895
      25A     -0.817026    26A     -0.754187    27A     -0.721629
      28A     -0.684217    29A     -0.675143    30A     -0.651746
      31A     -0.641528    32A     -0.629870    33A     -0.613676
      34A     -0.612416    35A     -0.574009    36A     -0.552833
      37A     -0.530334    38A     -0.526031    39A     -0.518972
      40A     -0.498388    41A     -0.461524    42A     -0.451005
      43A     -0.428186    44A     -0.364783    45A     -0.359702

  @DF-RHF Final Energy:  -872.13091814330926

   => Energetics <=

    Nuclear Repulsion Energy =            742.8697843746870149
    One-Electron Energy =               -2670.8147960663900449
    Two-Electron Energy =                1055.8140935483938847
    Total Energy =                       -872.1309181433091453
  Basis Set: (AUG-CC-PVTZ AUX)
    Blend: AUG-CC-PVTZ-RI
    Molecular point group: c1

    Geometry (in Angstrom), charge = 0, multiplicity = 1:

       Center              X                  Y                   Z               Mass
    ------------   -----------------  -----------------  -----------------  -----------------
         S           -1.285438036938    -0.319456319153    -0.364219637701    31.972071174400
         O           -1.685784036938     0.397349380847    -1.439488937701    15.994914619570
         O           -1.507584036938    -1.842456619153    -0.184051937701    15.994914619570
         N           -1.923008036938     0.280677380847     1.055506062299    14.003074004430
         C            0.516879963062    -0.175439619153    -0.151142937701    12.000000000000
         C            1.269394963062    -1.120658619153     0.552228062299    12.000000000000
         C            1.104707963062     0.976576380847    -0.680284937701    12.000000000000
         C            2.638082963062    -0.907739619153     0.716443062299    12.000000000000
         C            2.475553963062     1.176341380847    -0.506362937701    12.000000000000
         C            3.239247963062     0.242964380847     0.198292062299    12.000000000000
         C           -1.731988036938     1.718075380847     1.259437062299    12.000000000000
         H            0.792367963062    -2.024471619153     0.921999062299     1.007825032230
         H            0.501583963062     1.674520380847    -1.254224937701     1.007825032230
         H           -1.735967036938    -0.299642619153     1.872259062299     1.007825032230
         H            3.237107963062    -1.642080619153     1.249114062299     1.007825032230
         H            2.947088963062     2.063005380847    -0.922676937701     1.007825032230
         H            4.306660963062     0.402678380847     0.328514062299     1.007825032230
         H           -2.364595036938     2.023176380847     2.094664062299     1.007825032230
         H           -2.070048036938     2.234030380847     0.360792062299     1.007825032230
         H           -0.691487036938     1.994765380847     1.471268062299     1.007825032230

  Basis Set: AUG-CC-PVTZ
    Blend: AUG-CC-PVTZ
  Basis Set: (AUG-CC-PVTZ AUX)
    Blend: AUG-CC-PVTZ-JKFIT
	 Reference Energy          =    -872.1309181433092590 [Eh]
	 Singles Energy            =      -0.0000000000000000 [Eh]
	 Same-Spin Energy          =      -0.5636240518447579 [Eh]
	 Opposite-Spin Energy      =      -1.6934299763072653 [Eh]
	 Correlation Energy        =      -2.2570540281520231 [Eh]
	 Total Energy              =    -874.3879721714612288 [Eh]

	 ================> DF-SCS-MP2 Energies <==================
	-----------------------------------------------------------
	 SCS Same-Spin Scale       =       0.3333333333333333 [-]
	 SCS Opposite-Spin Scale   =       1.2000000000000000 [-]
	 SCS Same-Spin Energy      =      -0.1878746839482526 [Eh]
	 SCS Opposite-Spin Energy  =      -2.0321159715687185 [Eh]
	 SCS Correlation Energy    =      -2.2199906555169711 [Eh]
	 SCS Total Energy          =    -874.3509087988262536 [Eh]
	-----------------------------------------------------------

  Dipole Moment: [D]
     X:     3.2824      Y:     3.2398      Z:     3.0879     Total:     5.5503

*** Psi4 exiting successfully. Buy a developer a beer!
