                               Psi4 1.3.2 release

  ==> Input File <==

--------------------------------------------------------------------------
#psi4
#
memory 32 gb

molecule  {
0 1
  S       -1.2780750    -0.4285550    -0.3473560
  O       -1.7200650     0.3779750    -1.4840280
  O       -1.5418650    -1.8618310    -0.2285910
  N       -1.9306861     0.2686661     1.0202180
  C        0.4825990    -0.1948140    -0.1956820
  C        1.2351140    -1.1400330     0.5076890
  C        1.0704270     0.9572020    -0.7248240
  C        2.6038020    -0.9271140     0.6719040
  C        2.4412730     1.1569670    -0.5509020
  C        3.2049670     0.2235900     0.1537530
  C       -1.7662690     1.6987010     1.2148980
  H        0.7580870    -2.0438460     0.8774600
  H        0.4673030     1.6551460    -1.2987640
  H       -1.7702480    -0.3190170     1.8277200
  H        3.2028270    -1.6614550     1.2045750
  H        2.9128080     2.0436310    -0.9672160
  H        4.2723800     0.3833040     0.2839750
  H       -2.3988760     2.0038020     2.0501250
  H       -2.1043290     2.2146560     0.3162530
  H       -0.7257680     1.9753910     1.4267290
units angstrom
no_reorient  #important for SAPT in psi4, default
symmetry c1  #important for SAPT in psi4, default
}

set PROPERTIES_ORIGIN ["COM"]
properties('MP2/aug-cc-pvtz', properties = ['dipole'])
--------------------------------------------------------------------------

    Molecular point group: c1
  Charge       = 0
  Multiplicity = 1
  Basis Set: AUG-CC-PVTZ
    Blend: AUG-CC-PVTZ
  Basis Set: (AUG-CC-PVTZ AUX)
    Blend: AUG-CC-PVTZ-JKFIT

    Orbital Energies [Eh]
    ---------------------

    Doubly Occupied:

       1A    -92.203836     2A    -20.548442     3A    -20.548221
       4A    -15.602367     5A    -11.281891     6A    -11.275618
       7A    -11.269950     8A    -11.269831     9A    -11.267183
      10A    -11.261697    11A    -11.261535    12A     -9.168579
      13A     -6.853765    14A     -6.853193    15A     -6.853013
      16A     -1.452712    17A     -1.337653    18A     -1.237213
      19A     -1.181407    20A     -1.057548    21A     -1.043234
      22A     -0.964211    23A     -0.893631    24A     -0.855311
      25A     -0.814446    26A     -0.750155    27A     -0.713153
      28A     -0.678614    29A     -0.673210    30A     -0.655556
      31A     -0.641513    32A     -0.621610    33A     -0.615520
      34A     -0.610621    35A     -0.567694    36A     -0.547724
      37A     -0.532641    38A     -0.522846    39A     -0.504499
      40A     -0.498816    41A     -0.474833    42A     -0.465972
      43A     -0.433108    44A     -0.367224    45A     -0.362400

  @DF-RHF Final Energy:  -872.15562823499954

   => Energetics <=

    Nuclear Repulsion Energy =            743.1195228500162102
    One-Electron Energy =               -2671.3619111991588397
    Two-Electron Energy =                1056.0867601141430896
    Total Energy =                       -872.1556282349995399
  Basis Set: (AUG-CC-PVTZ AUX)
    Blend: AUG-CC-PVTZ-RI
    Molecular point group: c1

    Geometry (in Angstrom), charge = 0, multiplicity = 1:

       Center              X                  Y                   Z               Mass
    ------------   -----------------  -----------------  -----------------  -----------------
         S           -1.253756695617    -0.393011067843    -0.315052497918    31.972071174400
         O           -1.695746695617     0.413518932157    -1.451724497918    15.994914619570
         O           -1.517546695617    -1.826287067843    -0.196287497918    15.994914619570
         N           -1.906367795617     0.304210032157     1.052521502082    14.003074004430
         C            0.506917304383    -0.159270067843    -0.163378497918    12.000000000000
         C            1.259432304383    -1.104489067843     0.539992502082    12.000000000000
         C            1.094745304383     0.992745932157    -0.692520497918    12.000000000000
         C            2.628120304383    -0.891570067843     0.704207502082    12.000000000000
         C            2.465591304383     1.192510932157    -0.518598497918    12.000000000000
         C            3.229285304383     0.259133932157     0.186056502082    12.000000000000
         C           -1.741950695617     1.734244932157     1.247201502082    12.000000000000
         H            0.782405304383    -2.008302067843     0.909763502082     1.007825032230
         H            0.491621304383     1.690689932157    -1.266460497918     1.007825032230
         H           -1.745929695617    -0.283473067843     1.860023502082     1.007825032230
         H            3.227145304383    -1.625911067843     1.236878502082     1.007825032230
         H            2.937126304383     2.079174932157    -0.934912497918     1.007825032230
         H            4.296698304383     0.418847932157     0.316278502082     1.007825032230
         H           -2.374557695617     2.039345932157     2.082428502082     1.007825032230
         H           -2.080010695617     2.250199932157     0.348556502082     1.007825032230
         H           -0.701449695617     2.010934932157     1.459032502082     1.007825032230

  Basis Set: AUG-CC-PVTZ
    Blend: AUG-CC-PVTZ
  Basis Set: (AUG-CC-PVTZ AUX)
    Blend: AUG-CC-PVTZ-JKFIT
	 Reference Energy          =    -872.1556282349995399 [Eh]
	 Singles Energy            =      -0.0000000000000000 [Eh]
	 Same-Spin Energy          =      -0.5645781393031921 [Eh]
	 Opposite-Spin Energy      =      -1.6943751584175604 [Eh]
	 Correlation Energy        =      -2.2589532977207525 [Eh]
	 Total Energy              =    -874.4145815327202627 [Eh]

	 ================> DF-SCS-MP2 Energies <==================
	-----------------------------------------------------------
	 SCS Same-Spin Scale       =       0.3333333333333333 [-]
	 SCS Opposite-Spin Scale   =       1.2000000000000000 [-]
	 SCS Same-Spin Energy      =      -0.1881927131010640 [Eh]
	 SCS Opposite-Spin Energy  =      -2.0332501901010724 [Eh]
	 SCS Correlation Energy    =      -2.2214429032021363 [Eh]
	 SCS Total Energy          =    -874.3770711382016998 [Eh]
	-----------------------------------------------------------

  Dipole Moment: [D]
     X:     3.6089      Y:     2.4812      Z:     3.5704     Total:     5.6505

*** Psi4 exiting successfully. Buy a developer a beer!
