                               Psi4 1.3.2 release

  ==> Input File <==

--------------------------------------------------------------------------
#psi4
#
memory 32 gb

molecule  {
0 1
  S       -1.3218600    -0.5306215    -0.3124236
  O       -1.7200650     0.3779750    -1.4840280
  O       -1.5418650    -1.8618310    -0.2285910
  N       -1.9572890     0.2613030     1.0109670
  C        0.4825990    -0.1948140    -0.1956820
  C        1.2351140    -1.1400330     0.5076890
  C        1.0704270     0.9572020    -0.7248240
  C        2.6038020    -0.9271140     0.6719040
  C        2.4412730     1.1569670    -0.5509020
  C        3.2049670     0.2235900     0.1537530
  C       -1.7662690     1.6987010     1.2148980
  H        0.7580870    -2.0438460     0.8774600
  H        0.4673030     1.6551460    -1.2987640
  H       -1.7702480    -0.3190170     1.8277200
  H        3.2028270    -1.6614550     1.2045750
  H        2.9128080     2.0436310    -0.9672160
  H        4.2723800     0.3833040     0.2839750
  H       -2.3988760     2.0038020     2.0501250
  H       -2.1043290     2.2146560     0.3162530
  H       -0.7257680     1.9753910     1.4267290
units angstrom
no_reorient  #important for SAPT in psi4, default
symmetry c1  #important for SAPT in psi4, default
}

set PROPERTIES_ORIGIN ["COM"]
properties('MP2/aug-cc-pvtz', properties = ['dipole'])
--------------------------------------------------------------------------

    Molecular point group: c1
  Charge       = 0
  Multiplicity = 1
  Basis Set: AUG-CC-PVTZ
    Blend: AUG-CC-PVTZ
  Basis Set: (AUG-CC-PVTZ AUX)
    Blend: AUG-CC-PVTZ-JKFIT

    Orbital Energies [Eh]
    ---------------------

    Doubly Occupied:

       1A    -92.201121     2A    -20.575288     3A    -20.531044
       4A    -15.604517     5A    -11.279158     6A    -11.276357
       7A    -11.264844     8A    -11.264044     9A    -11.262160
      10A    -11.258194    11A    -11.257923    12A     -9.167897
      13A     -6.853488    14A     -6.852453    15A     -6.851790
      16A     -1.504918    17A     -1.325815    18A     -1.231230
      19A     -1.175588    20A     -1.048027    21A     -1.038508
      22A     -0.965172    23A     -0.882522    24A     -0.850420
      25A     -0.810923    26A     -0.746776    27A     -0.717178
      28A     -0.686380    29A     -0.680960    30A     -0.652675
      31A     -0.640407    32A     -0.628755    33A     -0.614484
      34A     -0.609645    35A     -0.569361    36A     -0.552130
      37A     -0.528382    38A     -0.523016    39A     -0.517296
      40A     -0.502228    41A     -0.467552    42A     -0.454261
      43A     -0.426582    44A     -0.362151    45A     -0.358689

  @DF-RHF Final Energy:  -872.13262372702798

   => Energetics <=

    Nuclear Repulsion Energy =            741.8070370979718291
    One-Electron Energy =               -2668.7347052946761323
    Two-Electron Energy =                1054.7950444696764407
    Total Energy =                       -872.1326237270279762
  Basis Set: (AUG-CC-PVTZ AUX)
    Blend: AUG-CC-PVTZ-RI
    Molecular point group: c1

    Geometry (in Angstrom), charge = 0, multiplicity = 1:

       Center              X                  Y                   Z               Mass
    ------------   -----------------  -----------------  -----------------  -----------------
         S           -1.287178814501    -0.475395189560    -0.285892696708    31.972071174400
         O           -1.685383814501     0.433201310440    -1.457497096708    15.994914619570
         O           -1.507183814501    -1.806604689560    -0.202060096708    15.994914619570
         N           -1.922607814501     0.316529310440     1.037497903292    14.003074004430
         C            0.517280185499    -0.139587689560    -0.169151096708    12.000000000000
         C            1.269795185499    -1.084806689560     0.534219903292    12.000000000000
         C            1.105108185499     1.012428310440    -0.698293096708    12.000000000000
         C            2.638483185499    -0.871887689560     0.698434903292    12.000000000000
         C            2.475954185499     1.212193310440    -0.524371096708    12.000000000000
         C            3.239648185499     0.278816310440     0.180283903292    12.000000000000
         C           -1.731587814501     1.753927310440     1.241428903292    12.000000000000
         H            0.792768185499    -1.988619689560     0.903990903292     1.007825032230
         H            0.501984185499     1.710372310440    -1.272233096708     1.007825032230
         H           -1.735566814501    -0.263790689560     1.854250903292     1.007825032230
         H            3.237508185499    -1.606228689560     1.231105903292     1.007825032230
         H            2.947489185499     2.098857310440    -0.940685096708     1.007825032230
         H            4.307061185499     0.438530310440     0.310505903292     1.007825032230
         H           -2.364194814501     2.059028310440     2.076655903292     1.007825032230
         H           -2.069647814501     2.269882310440     0.342783903292     1.007825032230
         H           -0.691086814501     2.030617310440     1.453259903292     1.007825032230

  Basis Set: AUG-CC-PVTZ
    Blend: AUG-CC-PVTZ
  Basis Set: (AUG-CC-PVTZ AUX)
    Blend: AUG-CC-PVTZ-JKFIT
	 Reference Energy          =    -872.1326237270279762 [Eh]
	 Singles Energy            =      -0.0000000000000000 [Eh]
	 Same-Spin Energy          =      -0.5635244772856824 [Eh]
	 Opposite-Spin Energy      =      -1.6932765928702995 [Eh]
	 Correlation Energy        =      -2.2568010701559817 [Eh]
	 Total Energy              =    -874.3894247971840059 [Eh]

	 ================> DF-SCS-MP2 Energies <==================
	-----------------------------------------------------------
	 SCS Same-Spin Scale       =       0.3333333333333333 [-]
	 SCS Opposite-Spin Scale   =       1.2000000000000000 [-]
	 SCS Same-Spin Energy      =      -0.1878414924285608 [Eh]
	 SCS Opposite-Spin Energy  =      -2.0319319114443593 [Eh]
	 SCS Correlation Energy    =      -2.2197734038729200 [Eh]
	 SCS Total Energy          =    -874.3523971309008402 [Eh]
	-----------------------------------------------------------

  Dipole Moment: [D]
     X:     3.1889      Y:     1.6625      Z:     3.8526     Total:     5.2703

*** Psi4 exiting successfully. Buy a developer a beer!
