                               Psi4 1.4a3.dev225

  ==> Input File <==

--------------------------------------------------------------------------
#psi4
#
memory 32 gb

molecule  {
0 1
  S       -1.2780750    -0.4285550    -0.3473560
  O       -1.7200650     0.3779750    -1.4840280
  O       -1.5418650    -1.8618310    -0.2285910
  N       -1.9572890     0.2613030     1.0109670
  C        0.5023532    -0.1921915    -0.1939803
  C        1.2351140    -1.1400330     0.5076890
  C        1.0704270     0.9572020    -0.7248240
  C        2.6038020    -0.9271140     0.6719040
  C        2.4412730     1.1569670    -0.5509020
  C        3.2049670     0.2235900     0.1537530
  C       -1.7662690     1.6987010     1.2148980
  H        0.7580870    -2.0438460     0.8774600
  H        0.4673030     1.6551460    -1.2987640
  H       -1.7702480    -0.3190170     1.8277200
  H        3.2028270    -1.6614550     1.2045750
  H        2.9128080     2.0436310    -0.9672160
  H        4.2723800     0.3833040     0.2839750
  H       -2.3988760     2.0038020     2.0501250
  H       -2.1043290     2.2146560     0.3162530
  H       -0.7257680     1.9753910     1.4267290
units angstrom
no_reorient  #important for SAPT in psi4, default
symmetry c1  #important for SAPT in psi4, default
}

set PROPERTIES_ORIGIN ["COM"]
properties('MP2/aug-cc-pvtz', properties = ['dipole'])
--------------------------------------------------------------------------

    Molecular point group: c1
  Charge       = 0
  Multiplicity = 1
  Basis Set: AUG-CC-PVTZ
    Blend: AUG-CC-PVTZ
  Basis Set: (AUG-CC-PVTZ AUX)
    Blend: AUG-CC-PVTZ-JKFIT

    Orbital Energies [Eh]
    ---------------------

    Doubly Occupied:

       1A    -92.202646     2A    -20.547429     3A    -20.547393
       4A    -15.604578     5A    -11.282476     6A    -11.276487
       7A    -11.268974     8A    -11.268817     9A    -11.266927
      10A    -11.262145    11A    -11.261972    12A     -9.167444
      13A     -6.852603    14A     -6.852003    15A     -6.851840
      16A     -1.451569    17A     -1.336768    18A     -1.234296
      19A     -1.183876    20A     -1.057065    21A     -1.044812
      22A     -0.962837    23A     -0.891014    24A     -0.857028
      25A     -0.814090    26A     -0.749946    27A     -0.712011
      28A     -0.676526    29A     -0.671941    30A     -0.656266
      31A     -0.641999    32A     -0.621497    33A     -0.617043
      34A     -0.607492    35A     -0.566880    36A     -0.547901
      37A     -0.534703    38A     -0.525227    39A     -0.502880
      40A     -0.497952    41A     -0.473872    42A     -0.465070
      43A     -0.433607    44A     -0.368992    45A     -0.363175

  @DF-RHF Final Energy:  -872.15534001647995

   => Energetics <=

    Nuclear Repulsion Energy =            742.6489989990909635
    One-Electron Energy =               -2670.4445331707925106
    Two-Electron Energy =                1055.6401941552217068
    Total Energy =                       -872.1553400164798404
  Basis Set: (AUG-CC-PVTZ AUX)
    Blend: AUG-CC-PVTZ-RI
    Molecular point group: c1

    Geometry (in Angstrom), charge = 0, multiplicity = 1:

       Center              X                  Y                   Z               Mass
    ------------   -----------------  -----------------  -----------------  -----------------
         S           -1.252964625802    -0.392592230372    -0.314414489425    31.972071174400
         O           -1.694954625802     0.413937769628    -1.451086489425    15.994914619570
         O           -1.516754625802    -1.825868230372    -0.195649489425    15.994914619570
         N           -1.932178625802     0.297265769628     1.043908510575    14.003074004430
         C            0.527463574198    -0.156228730372    -0.161038789425    12.000000000000
         C            1.260224374198    -1.104070230372     0.540630510575    12.000000000000
         C            1.095537374198     0.993164769628    -0.691882489425    12.000000000000
         C            2.628912374198    -0.891151230372     0.704845510575    12.000000000000
         C            2.466383374198     1.192929769628    -0.517960489425    12.000000000000
         C            3.230077374198     0.259552769628     0.186694510575    12.000000000000
         C           -1.741158625802     1.734663769628     1.247839510575    12.000000000000
         H            0.783197374198    -2.007883230372     0.910401510575     1.007825032230
         H            0.492413374198     1.691108769628    -1.265822489425     1.007825032230
         H           -1.745137625802    -0.283054230372     1.860661510575     1.007825032230
         H            3.227937374198    -1.625492230372     1.237516510575     1.007825032230
         H            2.937918374198     2.079593769628    -0.934274489425     1.007825032230
         H            4.297490374198     0.419266769628     0.316916510575     1.007825032230
         H           -2.373765625802     2.039764769628     2.083066510575     1.007825032230
         H           -2.079218625802     2.250618769628     0.349194510575     1.007825032230
         H           -0.700657625802     2.011353769628     1.459670510575     1.007825032230

  Basis Set: AUG-CC-PVTZ
    Blend: AUG-CC-PVTZ
  Basis Set: (AUG-CC-PVTZ AUX)
    Blend: AUG-CC-PVTZ-JKFIT
	 Reference Energy          =    -872.1553400164799541 [Eh]
	 Singles Energy            =      -0.0000000000000000 [Eh]
	 Same-Spin Energy          =      -0.5645374243858972 [Eh]
	 Opposite-Spin Energy      =      -1.6945117139445167 [Eh]
	 Correlation Energy        =      -2.2590491383304139 [Eh]
	 Total Energy              =    -874.4143891548103511 [Eh]

	 ================> DF-SCS-MP2 Energies <==================
	-----------------------------------------------------------
	 SCS Same-Spin Scale       =       0.3333333333333333 [-]
	 SCS Opposite-Spin Scale   =       1.2000000000000000 [-]
	 SCS Same-Spin Energy      =      -0.1881791414619657 [Eh]
	 SCS Opposite-Spin Energy  =      -2.0334140567334198 [Eh]
	 SCS Correlation Energy    =      -2.2215931981953854 [Eh]
	 SCS Total Energy          =    -874.3769332146753186 [Eh]
	-----------------------------------------------------------

  Dipole Moment: [D]
     X:     3.6798      Y:     2.5078      Z:     3.5814     Total:     5.7146

*** Psi4 exiting successfully. Buy a developer a beer!
