                               Psi4 1.3.2 release

  ==> Input File <==

--------------------------------------------------------------------------
#psi4
#
memory 32 gb

molecule  {
0 1
  S       -1.2780750    -0.4285550    -0.3473560
  O       -1.7200650     0.3779750    -1.4840280
  O       -1.5418650    -1.8618310    -0.2285910
  N       -2.0615515     0.2297727     0.9698556
  C        0.4825990    -0.1948140    -0.1956820
  C        1.2351140    -1.1400330     0.5076890
  C        1.0704270     0.9572020    -0.7248240
  C        2.6038020    -0.9271140     0.6719040
  C        2.4412730     1.1569670    -0.5509020
  C        3.2049670     0.2235900     0.1537530
  C       -1.7662690     1.6987010     1.2148980
  H        0.7580870    -2.0438460     0.8774600
  H        0.4673030     1.6551460    -1.2987640
  H       -1.7702480    -0.3190170     1.8277200
  H        3.2028270    -1.6614550     1.2045750
  H        2.9128080     2.0436310    -0.9672160
  H        4.2723800     0.3833040     0.2839750
  H       -2.3988760     2.0038020     2.0501250
  H       -2.1043290     2.2146560     0.3162530
  H       -0.7257680     1.9753910     1.4267290
units angstrom
no_reorient  #important for SAPT in psi4, default
symmetry c1  #important for SAPT in psi4, default
}

set PROPERTIES_ORIGIN ["COM"]
properties('MP2/aug-cc-pvtz', properties = ['dipole'])
--------------------------------------------------------------------------

    Molecular point group: c1
  Charge       = 0
  Multiplicity = 1
  Basis Set: AUG-CC-PVTZ
    Blend: AUG-CC-PVTZ
  Basis Set: (AUG-CC-PVTZ AUX)
    Blend: AUG-CC-PVTZ-JKFIT

    Orbital Energies [Eh]
    ---------------------

    Doubly Occupied:

       1A    -92.199769     2A    -20.543428     3A    -20.542776
       4A    -15.614102     5A    -11.285700     6A    -11.280103
       7A    -11.273315     8A    -11.273171     9A    -11.270574
      10A    -11.264010    11A    -11.263891    12A     -9.165220
      13A     -6.850335    14A     -6.849835    15A     -6.849494
      16A     -1.449925    17A     -1.333865    18A     -1.221622
      19A     -1.184215    20A     -1.059683    21A     -1.045972
      22A     -0.958733    23A     -0.894578    24A     -0.857948
      25A     -0.810590    26A     -0.748559    27A     -0.709073
      28A     -0.673992    29A     -0.668793    30A     -0.655524
      31A     -0.642708    32A     -0.619507    33A     -0.617940
      34A     -0.594867    35A     -0.561539    36A     -0.549956
      37A     -0.535619    38A     -0.525336    39A     -0.498760
      40A     -0.493901    41A     -0.469894    42A     -0.469297
      43A     -0.443565    44A     -0.371744    45A     -0.365049

  @DF-RHF Final Energy:  -872.14804572830462

   => Energetics <=

    Nuclear Repulsion Energy =            741.4987170262331801
    One-Electron Energy =               -2668.1765771676446093
    Two-Electron Energy =                1054.5298144131068057
    Total Energy =                       -872.1480457283046235
  Basis Set: (AUG-CC-PVTZ AUX)
    Blend: AUG-CC-PVTZ-RI
    Molecular point group: c1

    Geometry (in Angstrom), charge = 0, multiplicity = 1:

       Center              X                  Y                   Z               Mass
    ------------   -----------------  -----------------  -----------------  -----------------
         S           -1.243042434804    -0.389826772899    -0.310929208730    31.972071174400
         O           -1.685032434804     0.416703227101    -1.447601208730    15.994914619570
         O           -1.506832434804    -1.823102772899    -0.192164208730    15.994914619570
         N           -2.026518934804     0.268500927101     1.006282391270    14.003074004430
         C            0.517631565196    -0.156085772899    -0.159255208730    12.000000000000
         C            1.270146565196    -1.101304772899     0.544115791270    12.000000000000
         C            1.105459565196     0.995930227101    -0.688397208730    12.000000000000
         C            2.638834565196    -0.888385772899     0.708330791270    12.000000000000
         C            2.476305565196     1.195695227101    -0.514475208730    12.000000000000
         C            3.239999565196     0.262318227101     0.190179791270    12.000000000000
         C           -1.731236434804     1.737429227101     1.251324791270    12.000000000000
         H            0.793119565196    -2.005117772899     0.913886791270     1.007825032230
         H            0.502335565196     1.693874227101    -1.262337208730     1.007825032230
         H           -1.735215434804    -0.280288772899     1.864146791270     1.007825032230
         H            3.237859565196    -1.622726772899     1.241001791270     1.007825032230
         H            2.947840565196     2.082359227101    -0.930789208730     1.007825032230
         H            4.307412565196     0.422032227101     0.320401791270     1.007825032230
         H           -2.363843434804     2.042530227101     2.086551791270     1.007825032230
         H           -2.069296434804     2.253384227101     0.352679791270     1.007825032230
         H           -0.690735434804     2.014119227101     1.463155791270     1.007825032230

  Basis Set: AUG-CC-PVTZ
    Blend: AUG-CC-PVTZ
  Basis Set: (AUG-CC-PVTZ AUX)
    Blend: AUG-CC-PVTZ-JKFIT
	 Reference Energy          =    -872.1480457283046235 [Eh]
	 Singles Energy            =      -0.0000000000000000 [Eh]
	 Same-Spin Energy          =      -0.5648590716188122 [Eh]
	 Opposite-Spin Energy      =      -1.6962887070637251 [Eh]
	 Correlation Energy        =      -2.2611477786825374 [Eh]
	 Total Energy              =    -874.4091935069872079 [Eh]

	 ================> DF-SCS-MP2 Energies <==================
	-----------------------------------------------------------
	 SCS Same-Spin Scale       =       0.3333333333333333 [-]
	 SCS Opposite-Spin Scale   =       1.2000000000000000 [-]
	 SCS Same-Spin Energy      =      -0.1882863572062707 [Eh]
	 SCS Opposite-Spin Energy  =      -2.0355464484764703 [Eh]
	 SCS Correlation Energy    =      -2.2238328056827408 [Eh]
	 SCS Total Energy          =    -874.3718785339873421 [Eh]
	-----------------------------------------------------------

  Dipole Moment: [D]
     X:     4.0747      Y:     2.6309      Z:     3.6456     Total:     6.0676

*** Psi4 exiting successfully. Buy a developer a beer!
