                               Psi4 1.3.2 release

  ==> Input File <==

--------------------------------------------------------------------------
#psi4
#
memory 32 gb

molecule  {
0 1
  S       -1.2808868    -0.2695622    -0.4449674
  O       -1.7200650     0.3779750    -1.4840280
  O       -1.5418650    -1.8618310    -0.2285910
  N       -1.9572890     0.2613030     1.0109670
  C        0.4825990    -0.1948140    -0.1956820
  C        1.2351140    -1.1400330     0.5076890
  C        1.0704270     0.9572020    -0.7248240
  C        2.6038020    -0.9271140     0.6719040
  C        2.4412730     1.1569670    -0.5509020
  C        3.2049670     0.2235900     0.1537530
  C       -1.7662690     1.6987010     1.2148980
  H        0.7580870    -2.0438460     0.8774600
  H        0.4673030     1.6551460    -1.2987640
  H       -1.7702480    -0.3190170     1.8277200
  H        3.2028270    -1.6614550     1.2045750
  H        2.9128080     2.0436310    -0.9672160
  H        4.2723800     0.3833040     0.2839750
  H       -2.3988760     2.0038020     2.0501250
  H       -2.1043290     2.2146560     0.3162530
  H       -0.7257680     1.9753910     1.4267290
units angstrom
no_reorient  #important for SAPT in psi4, default
symmetry c1  #important for SAPT in psi4, default
}

set PROPERTIES_ORIGIN ["COM"]
properties('MP2/aug-cc-pvtz', properties = ['dipole'])
--------------------------------------------------------------------------

    Molecular point group: c1
  Charge       = 0
  Multiplicity = 1
  Basis Set: AUG-CC-PVTZ
    Blend: AUG-CC-PVTZ
  Basis Set: (AUG-CC-PVTZ AUX)
    Blend: AUG-CC-PVTZ-JKFIT

    Orbital Energies [Eh]
    ---------------------

    Doubly Occupied:

       1A    -92.191843     2A    -20.585899     3A    -20.508346
       4A    -15.600648     5A    -11.284506     6A    -11.275531
       7A    -11.271856     8A    -11.270940     9A    -11.268486
      10A    -11.262880    11A    -11.262725    12A     -9.163414
      13A     -6.849462    14A     -6.847168    15A     -6.846521
      16A     -1.542562    17A     -1.282511    18A     -1.215046
      19A     -1.182539    20A     -1.059843    21A     -1.043959
      22A     -0.954982    23A     -0.897256    24A     -0.856097
      25A     -0.819043    26A     -0.761159    27A     -0.730668
      28A     -0.692950    29A     -0.679534    30A     -0.651890
      31A     -0.646338    32A     -0.636017    33A     -0.616579
      34A     -0.615042    35A     -0.579430    36A     -0.559607
      37A     -0.534727    38A     -0.526076    39A     -0.523569
      40A     -0.483920    41A     -0.440596    42A     -0.431465
      43A     -0.420956    44A     -0.369012    45A     -0.362470

  @DF-RHF Final Energy:  -872.08706763817258

   => Energetics <=

    Nuclear Repulsion Energy =            744.0350238630720696
    One-Electron Energy =               -2673.0320515177745619
    Two-Electron Energy =                1056.9099600165297943
    Total Energy =                       -872.0870676381725843
  Basis Set: (AUG-CC-PVTZ AUX)
    Blend: AUG-CC-PVTZ-RI
    Molecular point group: c1

    Geometry (in Angstrom), charge = 0, multiplicity = 1:

       Center              X                  Y                   Z               Mass
    ------------   -----------------  -----------------  -----------------  -----------------
         S           -1.253864836328    -0.263136351538    -0.393659755667    31.972071174400
         O           -1.693043036328     0.384400848462    -1.432720355667    15.994914619570
         O           -1.514843036328    -1.855405151538    -0.177283355667    15.994914619570
         N           -1.930267036328     0.267728848462     1.062274644333    14.003074004430
         C            0.509620963672    -0.188388151538    -0.144374355667    12.000000000000
         C            1.262135963672    -1.133607151538     0.558996644333    12.000000000000
         C            1.097448963672     0.963627848462    -0.673516355667    12.000000000000
         C            2.630823963672    -0.920688151538     0.723211644333    12.000000000000
         C            2.468294963672     1.163392848462    -0.499594355667    12.000000000000
         C            3.231988963672     0.230015848462     0.205060644333    12.000000000000
         C           -1.739247036328     1.705126848462     1.266205644333    12.000000000000
         H            0.785108963672    -2.037420151538     0.928767644333     1.007825032230
         H            0.494324963672     1.661571848462    -1.247456355667     1.007825032230
         H           -1.743226036328    -0.312591151538     1.879027644333     1.007825032230
         H            3.229848963672    -1.655029151538     1.255882644333     1.007825032230
         H            2.939829963672     2.050056848462    -0.915908355667     1.007825032230
         H            4.299401963672     0.389729848462     0.335282644333     1.007825032230
         H           -2.371854036328     2.010227848462     2.101432644333     1.007825032230
         H           -2.077307036328     2.221081848462     0.367560644333     1.007825032230
         H           -0.698746036328     1.981816848462     1.478036644333     1.007825032230

  Basis Set: AUG-CC-PVTZ
    Blend: AUG-CC-PVTZ
  Basis Set: (AUG-CC-PVTZ AUX)
    Blend: AUG-CC-PVTZ-JKFIT
	 Reference Energy          =    -872.0870676381725843 [Eh]
	 Singles Energy            =      -0.0000000000000000 [Eh]
	 Same-Spin Energy          =      -0.5633955639753039 [Eh]
	 Opposite-Spin Energy      =      -1.6939083205435828 [Eh]
	 Correlation Energy        =      -2.2573038845188869 [Eh]
	 Total Energy              =    -874.3443715226915174 [Eh]

	 ================> DF-SCS-MP2 Energies <==================
	-----------------------------------------------------------
	 SCS Same-Spin Scale       =       0.3333333333333333 [-]
	 SCS Opposite-Spin Scale   =       1.2000000000000000 [-]
	 SCS Same-Spin Energy      =      -0.1877985213251013 [Eh]
	 SCS Opposite-Spin Energy  =      -2.0326899846522992 [Eh]
	 SCS Correlation Energy    =      -2.2204885059774004 [Eh]
	 SCS Total Energy          =    -874.3075561441499985 [Eh]
	-----------------------------------------------------------

  Dipole Moment: [D]
     X:     3.7938      Y:     3.8263      Z:     2.8217     Total:     6.0824

*** Psi4 exiting successfully. Buy a developer a beer!
