                               Psi4 1.3.2 release

  ==> Input File <==

--------------------------------------------------------------------------
#psi4
#
memory 32 gb

molecule  {
0 1
  S       -1.2584818    -0.4721835    -0.3141531
  O       -1.7200650     0.3779750    -1.4840280
  O       -1.5418650    -1.8618310    -0.2285910
  N       -1.9572890     0.2613030     1.0109670
  C        0.4825990    -0.1948140    -0.1956820
  C        1.2351140    -1.1400330     0.5076890
  C        1.0704270     0.9572020    -0.7248240
  C        2.6038020    -0.9271140     0.6719040
  C        2.4412730     1.1569670    -0.5509020
  C        3.2049670     0.2235900     0.1537530
  C       -1.7662690     1.6987010     1.2148980
  H        0.7580870    -2.0438460     0.8774600
  H        0.4673030     1.6551460    -1.2987640
  H       -1.7702480    -0.3190170     1.8277200
  H        3.2028270    -1.6614550     1.2045750
  H        2.9128080     2.0436310    -0.9672160
  H        4.2723800     0.3833040     0.2839750
  H       -2.3988760     2.0038020     2.0501250
  H       -2.1043290     2.2146560     0.3162530
  H       -0.7257680     1.9753910     1.4267290
units angstrom
no_reorient  #important for SAPT in psi4, default
symmetry c1  #important for SAPT in psi4, default
}

set PROPERTIES_ORIGIN ["COM"]
properties('MP2/aug-cc-pvtz', properties = ['dipole'])
--------------------------------------------------------------------------

    Molecular point group: c1
  Charge       = 0
  Multiplicity = 1
  Basis Set: AUG-CC-PVTZ
    Blend: AUG-CC-PVTZ
  Basis Set: (AUG-CC-PVTZ AUX)
    Blend: AUG-CC-PVTZ-JKFIT

    Orbital Energies [Eh]
    ---------------------

    Doubly Occupied:

       1A    -92.201427     2A    -20.557179     3A    -20.533150
       4A    -15.604936     5A    -11.283507     6A    -11.275964
       7A    -11.272557     8A    -11.272149     9A    -11.269540
      10A    -11.263348    11A    -11.263167    12A     -9.166976
      13A     -6.852107    14A     -6.851676    15A     -6.851143
      16A     -1.458604    17A     -1.322742    18A     -1.232626
      19A     -1.183846    20A     -1.061215    21A     -1.045165
      22A     -0.964503    23A     -0.896429    24A     -0.857576
      25A     -0.812874    26A     -0.749577    27A     -0.711645
      28A     -0.680821    29A     -0.672707    30A     -0.657782
      31A     -0.642848    32A     -0.618923    33A     -0.616620
      34A     -0.608446    35A     -0.565882    36A     -0.549695
      37A     -0.534801    38A     -0.525068    39A     -0.503097
      40A     -0.496649    41A     -0.465079    42A     -0.459611
      43A     -0.436710    44A     -0.369664    45A     -0.364273

  @DF-RHF Final Energy:  -872.14885603570349

   => Energetics <=

    Nuclear Repulsion Energy =            742.9163392377763557
    One-Electron Energy =               -2670.9617872198164150
    Two-Electron Energy =                1055.8965919463364571
    Total Energy =                       -872.1488560357036022
  Basis Set: (AUG-CC-PVTZ AUX)
    Blend: AUG-CC-PVTZ-RI
    Molecular point group: c1

    Geometry (in Angstrom), charge = 0, multiplicity = 1:

       Center              X                  Y                   Z               Mass
    ------------   -----------------  -----------------  -----------------  -----------------
         S           -1.235648058508    -0.427881149738    -0.287298896986    31.972071174400
         O           -1.697231258508     0.422277350262    -1.457173796986    15.994914619570
         O           -1.519031258508    -1.817528649738    -0.201736796986    15.994914619570
         N           -1.934455258508     0.305605350262     1.037821203014    14.003074004430
         C            0.505432741492    -0.150511649738    -0.168827796986    12.000000000000
         C            1.257947741492    -1.095730649738     0.534543203014    12.000000000000
         C            1.093260741492     1.001504350262    -0.697969796986    12.000000000000
         C            2.626635741492    -0.882811649738     0.698758203014    12.000000000000
         C            2.464106741492     1.201269350262    -0.524047796986    12.000000000000
         C            3.227800741492     0.267892350262     0.180607203014    12.000000000000
         C           -1.743435258508     1.743003350262     1.241752203014    12.000000000000
         H            0.780920741492    -1.999543649738     0.904314203014     1.007825032230
         H            0.490136741492     1.699448350262    -1.271909796986     1.007825032230
         H           -1.747414258508    -0.274714649738     1.854574203014     1.007825032230
         H            3.225660741492    -1.617152649738     1.231429203014     1.007825032230
         H            2.935641741492     2.087933350262    -0.940361796986     1.007825032230
         H            4.295213741492     0.427606350262     0.310829203014     1.007825032230
         H           -2.376042258508     2.048104350262     2.076979203014     1.007825032230
         H           -2.081495258508     2.258958350262     0.343107203014     1.007825032230
         H           -0.702934258508     2.019693350262     1.453583203014     1.007825032230

  Basis Set: AUG-CC-PVTZ
    Blend: AUG-CC-PVTZ
  Basis Set: (AUG-CC-PVTZ AUX)
    Blend: AUG-CC-PVTZ-JKFIT
	 Reference Energy          =    -872.1488560357034885 [Eh]
	 Singles Energy            =      -0.0000000000000000 [Eh]
	 Same-Spin Energy          =      -0.5647393135948113 [Eh]
	 Opposite-Spin Energy      =      -1.6949919461448855 [Eh]
	 Correlation Energy        =      -2.2597312597396968 [Eh]
	 Total Energy              =    -874.4085872954432261 [Eh]

	 ================> DF-SCS-MP2 Energies <==================
	-----------------------------------------------------------
	 SCS Same-Spin Scale       =       0.3333333333333333 [-]
	 SCS Opposite-Spin Scale   =       1.2000000000000000 [-]
	 SCS Same-Spin Energy      =      -0.1882464378649371 [Eh]
	 SCS Opposite-Spin Energy  =      -2.0339903353738626 [Eh]
	 SCS Correlation Energy    =      -2.2222367732387998 [Eh]
	 SCS Total Energy          =    -874.3710928089423078 [Eh]
	-----------------------------------------------------------

  Dipole Moment: [D]
     X:     3.9217      Y:     2.1684      Z:     3.8683     Total:     5.9199

*** Psi4 exiting successfully. Buy a developer a beer!
