                               Psi4 1.3.2 release

  ==> Input File <==

--------------------------------------------------------------------------
#psi4
#
memory 32 gb

molecule  {
0 1
  S       -1.2780750    -0.4285550    -0.3473560
  O       -1.7200650     0.3779750    -1.4840280
  O       -1.5418650    -1.8618310    -0.2285910
  N       -1.9572890     0.2613030     1.0109670
  C        0.4825990    -0.1948140    -0.1956820
  C        1.2351140    -1.1400330     0.5076890
  C        1.0704270     0.9572020    -0.7248240
  C        2.6038020    -0.9271140     0.6719040
  C        2.4412730     1.1569670    -0.5509020
  C        3.2049670     0.2235900     0.1537530
  C       -1.7529185     1.6891508     1.2633017
  H        0.7580870    -2.0438460     0.8774600
  H        0.4673030     1.6551460    -1.2987640
  H       -1.7702480    -0.3190170     1.8277200
  H        3.2028270    -1.6614550     1.2045750
  H        2.9128080     2.0436310    -0.9672160
  H        4.2723800     0.3833040     0.2839750
  H       -2.3988760     2.0038020     2.0501250
  H       -2.1043290     2.2146560     0.3162530
  H       -0.7257680     1.9753910     1.4267290
units angstrom
no_reorient  #important for SAPT in psi4, default
symmetry c1  #important for SAPT in psi4, default
}

set PROPERTIES_ORIGIN ["COM"]
properties('MP2/aug-cc-pvtz', properties = ['dipole'])
--------------------------------------------------------------------------

    Molecular point group: c1
  Charge       = 0
  Multiplicity = 1
  Basis Set: AUG-CC-PVTZ
    Blend: AUG-CC-PVTZ
  Basis Set: (AUG-CC-PVTZ AUX)
    Blend: AUG-CC-PVTZ-JKFIT

    Orbital Energies [Eh]
    ---------------------

    Doubly Occupied:

       1A    -92.203805     2A    -20.548017     3A    -20.547332
       4A    -15.604325     5A    -11.282909     6A    -11.276280
       7A    -11.270856     8A    -11.270719     9A    -11.268093
      10A    -11.262398    11A    -11.262250    12A     -9.168592
      13A     -6.853785    14A     -6.853218    15A     -6.852989
      16A     -1.452335    17A     -1.337112    18A     -1.234402
      19A     -1.182219    20A     -1.058228    21A     -1.044014
      22A     -0.963581    23A     -0.893585    24A     -0.856072
      25A     -0.813500    26A     -0.749673    27A     -0.712409
      28A     -0.678500    29A     -0.673586    30A     -0.656327
      31A     -0.642164    32A     -0.623139    33A     -0.616284
      34A     -0.612443    35A     -0.554494    36A     -0.547903
      37A     -0.532502    38A     -0.523558    39A     -0.504226
      40A     -0.498191    41A     -0.474113    42A     -0.466940
      43A     -0.436949    44A     -0.368440    45A     -0.363240

  @DF-RHF Final Energy:  -872.15243083413554

   => Energetics <=

    Nuclear Repulsion Energy =            742.5346847352194573
    One-Electron Energy =               -2670.1828365263254454
    Two-Electron Energy =                1055.4957209569706720
    Total Energy =                       -872.1524308341354299
  Basis Set: (AUG-CC-PVTZ AUX)
    Blend: AUG-CC-PVTZ-RI
    Molecular point group: c1

    Geometry (in Angstrom), charge = 0, multiplicity = 1:

       Center              X                  Y                   Z               Mass
    ------------   -----------------  -----------------  -----------------  -----------------
         S           -1.252515336356    -0.391738182612    -0.317691144438    31.972071174400
         O           -1.694505336356     0.414791817388    -1.454363144438    15.994914619570
         O           -1.516305336356    -1.825014182612    -0.198926144438    15.994914619570
         N           -1.931729336356     0.298119817388     1.040631855562    14.003074004430
         C            0.508158663644    -0.157997182612    -0.166017144438    12.000000000000
         C            1.260673663644    -1.103216182612     0.537353855562    12.000000000000
         C            1.095986663644     0.994018817388    -0.695159144438    12.000000000000
         C            2.629361663644    -0.890297182612     0.701568855562    12.000000000000
         C            2.466832663644     1.193783817388    -0.521237144438    12.000000000000
         C            3.230526663644     0.260406817388     0.183417855562    12.000000000000
         C           -1.727358836356     1.725967617388     1.292966555562    12.000000000000
         H            0.783646663644    -2.007029182612     0.907124855562     1.007825032230
         H            0.492862663644     1.691962817388    -1.269099144438     1.007825032230
         H           -1.744688336356    -0.282200182612     1.857384855562     1.007825032230
         H            3.228386663644    -1.624638182612     1.234239855562     1.007825032230
         H            2.938367663644     2.080447817388    -0.937551144438     1.007825032230
         H            4.297939663644     0.420120817388     0.313639855562     1.007825032230
         H           -2.373316336356     2.040618817388     2.079789855562     1.007825032230
         H           -2.078769336356     2.251472817388     0.345917855562     1.007825032230
         H           -0.700208336356     2.012207817388     1.456393855562     1.007825032230

  Basis Set: AUG-CC-PVTZ
    Blend: AUG-CC-PVTZ
  Basis Set: (AUG-CC-PVTZ AUX)
    Blend: AUG-CC-PVTZ-JKFIT
	 Reference Energy          =    -872.1524308341355436 [Eh]
	 Singles Energy            =      -0.0000000000000000 [Eh]
	 Same-Spin Energy          =      -0.5646418523364007 [Eh]
	 Opposite-Spin Energy      =      -1.6948329753568059 [Eh]
	 Correlation Energy        =      -2.2594748276932064 [Eh]
	 Total Energy              =    -874.4119056618287686 [Eh]

	 ================> DF-SCS-MP2 Energies <==================
	-----------------------------------------------------------
	 SCS Same-Spin Scale       =       0.3333333333333333 [-]
	 SCS Opposite-Spin Scale   =       1.2000000000000000 [-]
	 SCS Same-Spin Energy      =      -0.1882139507788002 [Eh]
	 SCS Opposite-Spin Energy  =      -2.0337995704281671 [Eh]
	 SCS Correlation Energy    =      -2.2220135212069674 [Eh]
	 SCS Total Energy          =    -874.3744443553424617 [Eh]
	-----------------------------------------------------------

  Dipole Moment: [D]
     X:     3.7417      Y:     2.4862      Z:     3.5902     Total:     5.7507

*** Psi4 exiting successfully. Buy a developer a beer!
