                               Psi4 1.3.2 release

  ==> Input File <==

--------------------------------------------------------------------------
#psi4
#
memory 32 gb

molecule  {
0 1
  S       -1.2780750    -0.4285550    -0.3473560
  O       -1.7810117     0.2496907    -1.5410505
  O       -1.5418650    -1.8618310    -0.2285910
  N       -1.9572890     0.2613030     1.0109670
  C        0.4825990    -0.1948140    -0.1956820
  C        1.2351140    -1.1400330     0.5076890
  C        1.0704270     0.9572020    -0.7248240
  C        2.6038020    -0.9271140     0.6719040
  C        2.4412730     1.1569670    -0.5509020
  C        3.2049670     0.2235900     0.1537530
  C       -1.7662690     1.6987010     1.2148980
  H        0.7580870    -2.0438460     0.8774600
  H        0.4673030     1.6551460    -1.2987640
  H       -1.7702480    -0.3190170     1.8277200
  H        3.2028270    -1.6614550     1.2045750
  H        2.9128080     2.0436310    -0.9672160
  H        4.2723800     0.3833040     0.2839750
  H       -2.3988760     2.0038020     2.0501250
  H       -2.1043290     2.2146560     0.3162530
  H       -0.7257680     1.9753910     1.4267290
units angstrom
no_reorient  #important for SAPT in psi4, default
symmetry c1  #important for SAPT in psi4, default
}

set PROPERTIES_ORIGIN ["COM"]
properties('MP2/aug-cc-pvtz', properties = ['dipole'])
--------------------------------------------------------------------------

    Molecular point group: c1
  Charge       = 0
  Multiplicity = 1
  Basis Set: AUG-CC-PVTZ
    Blend: AUG-CC-PVTZ
  Basis Set: (AUG-CC-PVTZ AUX)
    Blend: AUG-CC-PVTZ-JKFIT

    Orbital Energies [Eh]
    ---------------------

    Doubly Occupied:

       1A    -92.201015     2A    -20.545954     3A    -20.537405
       4A    -15.607236     5A    -11.286031     6A    -11.279504
       7A    -11.273333     8A    -11.272709     9A    -11.269670
      10A    -11.264141    11A    -11.263954    12A     -9.166201
      13A     -6.851313    14A     -6.850770    15A     -6.850592
      16A     -1.449528    17A     -1.327292    18A     -1.238125
      19A     -1.184223    20A     -1.060543    21A     -1.045885
      22A     -0.965478    23A     -0.896373    24A     -0.858015
      25A     -0.815439    26A     -0.750441    27A     -0.711683
      28A     -0.677592    29A     -0.672785    30A     -0.657506
      31A     -0.643216    32A     -0.620095    33A     -0.617436
      34A     -0.606886    35A     -0.570609    36A     -0.550208
      37A     -0.535553    38A     -0.525384    39A     -0.501853
      40A     -0.490476    41A     -0.467664    42A     -0.465102
      43A     -0.437522    44A     -0.370304    45A     -0.364885

  @DF-RHF Final Energy:  -872.15418648865011

   => Energetics <=

    Nuclear Repulsion Energy =            741.6497595934434912
    One-Electron Energy =               -2668.4120342117967084
    Two-Electron Energy =                1054.6080881297032192
    Total Energy =                       -872.1541864886501116
  Basis Set: (AUG-CC-PVTZ AUX)
    Blend: AUG-CC-PVTZ-RI
    Molecular point group: c1

    Geometry (in Angstrom), charge = 0, multiplicity = 1:

       Center              X                  Y                   Z               Mass
    ------------   -----------------  -----------------  -----------------  -----------------
         S           -1.245879030277    -0.380411322624    -0.308962457737    31.972071174400
         O           -1.748815730277     0.297834377376    -1.502656957737    15.994914619570
         O           -1.509669030277    -1.813687322624    -0.190197457737    15.994914619570
         N           -1.925093030277     0.309446677376     1.049360542263    14.003074004430
         C            0.514794969723    -0.146670322624    -0.157288457737    12.000000000000
         C            1.267309969723    -1.091889322624     0.546082542263    12.000000000000
         C            1.102622969723     1.005345677376    -0.686430457737    12.000000000000
         C            2.635997969723    -0.878970322624     0.710297542263    12.000000000000
         C            2.473468969723     1.205110677376    -0.512508457737    12.000000000000
         C            3.237162969723     0.271733677376     0.192146542263    12.000000000000
         C           -1.734073030277     1.746844677376     1.253291542263    12.000000000000
         H            0.790282969723    -1.995702322624     0.915853542263     1.007825032230
         H            0.499498969723     1.703289677376    -1.260370457737     1.007825032230
         H           -1.738052030277    -0.270873322624     1.866113542263     1.007825032230
         H            3.235022969723    -1.613311322624     1.242968542263     1.007825032230
         H            2.945003969723     2.091774677376    -0.928822457737     1.007825032230
         H            4.304575969723     0.431447677376     0.322368542263     1.007825032230
         H           -2.366680030277     2.051945677376     2.088518542263     1.007825032230
         H           -2.072133030277     2.262799677376     0.354646542263     1.007825032230
         H           -0.693572030277     2.023534677376     1.465122542263     1.007825032230

  Basis Set: AUG-CC-PVTZ
    Blend: AUG-CC-PVTZ
  Basis Set: (AUG-CC-PVTZ AUX)
    Blend: AUG-CC-PVTZ-JKFIT
	 Reference Energy          =    -872.1541864886501116 [Eh]
	 Singles Energy            =      -0.0000000000000000 [Eh]
	 Same-Spin Energy          =      -0.5641128792361864 [Eh]
	 Opposite-Spin Energy      =      -1.6939385467722166 [Eh]
	 Correlation Energy        =      -2.2580514260084028 [Eh]
	 Total Energy              =    -874.4122379146584763 [Eh]

	 ================> DF-SCS-MP2 Energies <==================
	-----------------------------------------------------------
	 SCS Same-Spin Scale       =       0.3333333333333333 [-]
	 SCS Opposite-Spin Scale   =       1.2000000000000000 [-]
	 SCS Same-Spin Energy      =      -0.1880376264120621 [Eh]
	 SCS Opposite-Spin Energy  =      -2.0327262561266597 [Eh]
	 SCS Correlation Energy    =      -2.2207638825387219 [Eh]
	 SCS Total Energy          =    -874.3749503711887883 [Eh]
	-----------------------------------------------------------

  Dipole Moment: [D]
     X:     3.9226      Y:     2.8277      Z:     3.7444     Total:     6.1158

*** Psi4 exiting successfully. Buy a developer a beer!
