                               Psi4 1.3.2 release

  ==> Input File <==

--------------------------------------------------------------------------
#psi4
#
memory 32 gb

molecule  {
0 1
  S       -1.2780750    -0.4285550    -0.3473560
  O       -1.7200650     0.3779750    -1.4840280
  O       -1.5418650    -1.8618310    -0.2285910
  N       -1.9572890     0.2613030     1.0109670
  C        0.5813698    -0.1817015    -0.1871734
  C        1.2351140    -1.1400330     0.5076890
  C        1.0704270     0.9572020    -0.7248240
  C        2.6038020    -0.9271140     0.6719040
  C        2.4412730     1.1569670    -0.5509020
  C        3.2049670     0.2235900     0.1537530
  C       -1.7662690     1.6987010     1.2148980
  H        0.7580870    -2.0438460     0.8774600
  H        0.4673030     1.6551460    -1.2987640
  H       -1.7702480    -0.3190170     1.8277200
  H        3.2028270    -1.6614550     1.2045750
  H        2.9128080     2.0436310    -0.9672160
  H        4.2723800     0.3833040     0.2839750
  H       -2.3988760     2.0038020     2.0501250
  H       -2.1043290     2.2146560     0.3162530
  H       -0.7257680     1.9753910     1.4267290
units angstrom
no_reorient  #important for SAPT in psi4, default
symmetry c1  #important for SAPT in psi4, default
}

set PROPERTIES_ORIGIN ["COM"]
properties('MP2/aug-cc-pvtz', properties = ['dipole'])
--------------------------------------------------------------------------

    Molecular point group: c1
  Charge       = 0
  Multiplicity = 1
  Basis Set: AUG-CC-PVTZ
    Blend: AUG-CC-PVTZ
  Basis Set: (AUG-CC-PVTZ AUX)
    Blend: AUG-CC-PVTZ-JKFIT

    Orbital Energies [Eh]
    ---------------------

    Doubly Occupied:

       1A    -92.199234     2A    -20.546908     3A    -20.546889
       4A    -15.604310     5A    -11.282360     6A    -11.276412
       7A    -11.264242     8A    -11.263683     9A    -11.263261
      10A    -11.262347    11A    -11.261989    12A     -9.164012
      13A     -6.849095    14A     -6.848364    15A     -6.848321
      16A     -1.448677    17A     -1.335422    18A     -1.233379
      19A     -1.192639    20A     -1.054377    21A     -1.050262
      22A     -0.961525    23A     -0.880552    24A     -0.862035
      25A     -0.815066    26A     -0.749820    27A     -0.710358
      28A     -0.673130    29A     -0.669169    30A     -0.659920
      31A     -0.642963    32A     -0.624476    33A     -0.618558
      34A     -0.606546    35A     -0.566461    36A     -0.547544
      37A     -0.541346    38A     -0.532128    39A     -0.500801
      40A     -0.496862    41A     -0.473091    42A     -0.459214
      43A     -0.423568    44A     -0.372221    45A     -0.364732

  @DF-RHF Final Energy:  -872.14676636823140

   => Energetics <=

    Nuclear Repulsion Energy =            742.1242618774452922
    One-Electron Energy =               -2669.4455177874729088
    Two-Electron Energy =                1055.1744895417959924
    Total Energy =                       -872.1467663682315106
  Basis Set: (AUG-CC-PVTZ AUX)
    Blend: AUG-CC-PVTZ-RI
    Molecular point group: c1

    Geometry (in Angstrom), charge = 0, multiplicity = 1:

       Center              X                  Y                   Z               Mass
    ------------   -----------------  -----------------  -----------------  -----------------
         S           -1.258508502693    -0.393328218362    -0.314892067751    31.972071174400
         O           -1.700498502693     0.413201781638    -1.451564067751    15.994914619570
         O           -1.522298502693    -1.826604218362    -0.196127067751    15.994914619570
         N           -1.937722502693     0.296529781638     1.043430932249    14.003074004430
         C            0.600936297307    -0.146474718362    -0.154709467751    12.000000000000
         C            1.254680497307    -1.104806218362     0.540152932249    12.000000000000
         C            1.089993497307     0.992428781638    -0.692360067751    12.000000000000
         C            2.623368497307    -0.891887218362     0.704367932249    12.000000000000
         C            2.460839497307     1.192193781638    -0.518438067751    12.000000000000
         C            3.224533497307     0.258816781638     0.186216932249    12.000000000000
         C           -1.746702502693     1.733927781638     1.247361932249    12.000000000000
         H            0.777653497307    -2.008619218362     0.909923932249     1.007825032230
         H            0.486869497307     1.690372781638    -1.266300067751     1.007825032230
         H           -1.750681502693    -0.283790218362     1.860183932249     1.007825032230
         H            3.222393497307    -1.626228218362     1.237038932249     1.007825032230
         H            2.932374497307     2.078857781638    -0.934752067751     1.007825032230
         H            4.291946497307     0.418530781638     0.316438932249     1.007825032230
         H           -2.379309502693     2.039028781638     2.082588932249     1.007825032230
         H           -2.084762502693     2.249882781638     0.348716932249     1.007825032230
         H           -0.706201502693     2.010617781638     1.459192932249     1.007825032230

  Basis Set: AUG-CC-PVTZ
    Blend: AUG-CC-PVTZ
  Basis Set: (AUG-CC-PVTZ AUX)
    Blend: AUG-CC-PVTZ-JKFIT
	 Reference Energy          =    -872.1467663682313969 [Eh]
	 Singles Energy            =      -0.0000000000000000 [Eh]
	 Same-Spin Energy          =      -0.5648270726801440 [Eh]
	 Opposite-Spin Energy      =      -1.6949155709026260 [Eh]
	 Correlation Energy        =      -2.2597426435827699 [Eh]
	 Total Energy              =    -874.4065090118141370 [Eh]

	 ================> DF-SCS-MP2 Energies <==================
	-----------------------------------------------------------
	 SCS Same-Spin Scale       =       0.3333333333333333 [-]
	 SCS Opposite-Spin Scale   =       1.2000000000000000 [-]
	 SCS Same-Spin Energy      =      -0.1882756908933813 [Eh]
	 SCS Opposite-Spin Energy  =      -2.0338986850831513 [Eh]
	 SCS Correlation Energy    =      -2.2221743759765324 [Eh]
	 SCS Total Energy          =    -874.3689407442079755 [Eh]
	-----------------------------------------------------------

  Dipole Moment: [D]
     X:     3.6108      Y:     2.4948      Z:     3.5677     Total:     5.6561

*** Psi4 exiting successfully. Buy a developer a beer!
