                               Psi4 1.3.2 release

  ==> Input File <==

--------------------------------------------------------------------------
#psi4
#
memory 32 gb

molecule  {
0 1
  S       -1.2780750    -0.4285550    -0.3473560
  O       -1.7200650     0.3779750    -1.4840280
  O       -1.5418650    -1.8618310    -0.2285910
  N       -1.9572890     0.2613030     1.0109670
  C        0.4825990    -0.1948140    -0.1956820
  C        1.2351140    -1.1400330     0.5076890
  C        1.0704270     0.9572020    -0.7248240
  C        2.6038020    -0.9271140     0.6719040
  C        2.4412730     1.1569670    -0.5509020
  C        3.2049670     0.2235900     0.1537530
  C       -1.7923592     1.5023761     1.1870444
  H        0.7580870    -2.0438460     0.8774600
  H        0.4673030     1.6551460    -1.2987640
  H       -1.7702480    -0.3190170     1.8277200
  H        3.2028270    -1.6614550     1.2045750
  H        2.9128080     2.0436310    -0.9672160
  H        4.2723800     0.3833040     0.2839750
  H       -2.3988760     2.0038020     2.0501250
  H       -2.1043290     2.2146560     0.3162530
  H       -0.7257680     1.9753910     1.4267290
units angstrom
no_reorient  #important for SAPT in psi4, default
symmetry c1  #important for SAPT in psi4, default
}

set PROPERTIES_ORIGIN ["COM"]
properties('MP2/aug-cc-pvtz', properties = ['dipole'])
--------------------------------------------------------------------------

    Molecular point group: c1
  Charge       = 0
  Multiplicity = 1
  Basis Set: AUG-CC-PVTZ
    Blend: AUG-CC-PVTZ
  Basis Set: (AUG-CC-PVTZ AUX)
    Blend: AUG-CC-PVTZ-JKFIT

    Orbital Energies [Eh]
    ---------------------

    Doubly Occupied:

       1A    -92.208731     2A    -20.552663     3A    -20.552391
       4A    -15.607931     5A    -11.285073     6A    -11.280442
       7A    -11.273189     8A    -11.272517     9A    -11.269709
      10A    -11.263226    11A    -11.262749    12A     -9.174021
      13A     -6.859276    14A     -6.858496    15A     -6.858287
      16A     -1.460603    17A     -1.342043    18A     -1.299389
      19A     -1.184129    20A     -1.061487    21A     -1.045207
      22A     -0.960858    23A     -0.889600    24A     -0.857395
      25A     -0.821648    26A     -0.760700    27A     -0.723661
      28A     -0.712739    29A     -0.682031    30A     -0.661970
      31A     -0.644785    32A     -0.625819    33A     -0.617370
      34A     -0.613371    35A     -0.549254    36A     -0.539943
      37A     -0.526983    38A     -0.524588    39A     -0.504160
      40A     -0.499572    41A     -0.478508    42A     -0.462321
      43A     -0.410651    44A     -0.371179    45A     -0.363334

  @DF-RHF Final Energy:  -872.10676339655618

   => Energetics <=

    Nuclear Repulsion Energy =            747.0991500896420803
    One-Electron Energy =               -2678.8638329954010260
    Two-Electron Energy =                1059.6579195092026566
    Total Energy =                       -872.1067633965562891
  Basis Set: (AUG-CC-PVTZ AUX)
    Blend: AUG-CC-PVTZ-RI
    Molecular point group: c1

    Geometry (in Angstrom), charge = 0, multiplicity = 1:

       Center              X                  Y                   Z               Mass
    ------------   -----------------  -----------------  -----------------  -----------------
         S           -1.249748140788    -0.378633898915    -0.312340862558    31.972071174400
         O           -1.691738140788     0.427896101085    -1.449012862558    15.994914619570
         O           -1.513538140788    -1.811909898915    -0.193575862558    15.994914619570
         N           -1.928962140788     0.311224101085     1.045982137442    14.003074004430
         C            0.510925859212    -0.144892898915    -0.160666862558    12.000000000000
         C            1.263440859212    -1.090111898915     0.542704137442    12.000000000000
         C            1.098753859212     1.007123101085    -0.689808862558    12.000000000000
         C            2.632128859212    -0.877192898915     0.706919137442    12.000000000000
         C            2.469599859212     1.206888101085    -0.515886862558    12.000000000000
         C            3.233293859212     0.273511101085     0.188768137442    12.000000000000
         C           -1.764032340788     1.552297201085     1.222059537442    12.000000000000
         H            0.786413859212    -1.993924898915     0.912475137442     1.007825032230
         H            0.495629859212     1.705067101085    -1.263748862558     1.007825032230
         H           -1.741921140788    -0.269095898915     1.862735137442     1.007825032230
         H            3.231153859212    -1.611533898915     1.239590137442     1.007825032230
         H            2.941134859212     2.093552101085    -0.932200862558     1.007825032230
         H            4.300706859212     0.433225101085     0.318990137442     1.007825032230
         H           -2.370549140788     2.053723101085     2.085140137442     1.007825032230
         H           -2.076002140788     2.264577101085     0.351268137442     1.007825032230
         H           -0.697441140788     2.025312101085     1.461744137442     1.007825032230

  Basis Set: AUG-CC-PVTZ
    Blend: AUG-CC-PVTZ
  Basis Set: (AUG-CC-PVTZ AUX)
    Blend: AUG-CC-PVTZ-JKFIT
	 Reference Energy          =    -872.1067633965561754 [Eh]
	 Singles Energy            =      -0.0000000000000000 [Eh]
	 Same-Spin Energy          =      -0.5673596912936132 [Eh]
	 Opposite-Spin Energy      =      -1.6972084876392080 [Eh]
	 Correlation Energy        =      -2.2645681789328211 [Eh]
	 Total Energy              =    -874.3713315754889663 [Eh]

	 ================> DF-SCS-MP2 Energies <==================
	-----------------------------------------------------------
	 SCS Same-Spin Scale       =       0.3333333333333333 [-]
	 SCS Opposite-Spin Scale   =       1.2000000000000000 [-]
	 SCS Same-Spin Energy      =      -0.1891198970978711 [Eh]
	 SCS Opposite-Spin Energy  =      -2.0366501851670495 [Eh]
	 SCS Correlation Energy    =      -2.2257700822649205 [Eh]
	 SCS Total Energy          =    -874.3325334788211194 [Eh]
	-----------------------------------------------------------

  Dipole Moment: [D]
     X:     3.7251      Y:     1.9981      Z:     3.3489     Total:     5.3929

*** Psi4 exiting successfully. Buy a developer a beer!
