                               Psi4 1.3.2 release

  ==> Input File <==

--------------------------------------------------------------------------
#psi4
#
memory 32 gb

molecule  {
0 1
  S       -1.2780750    -0.4285550    -0.3473560
  O       -1.8149055     0.3448234    -1.4660909
  O       -1.5418650    -1.8618310    -0.2285910
  N       -1.9572890     0.2613030     1.0109670
  C        0.4825990    -0.1948140    -0.1956820
  C        1.2351140    -1.1400330     0.5076890
  C        1.0704270     0.9572020    -0.7248240
  C        2.6038020    -0.9271140     0.6719040
  C        2.4412730     1.1569670    -0.5509020
  C        3.2049670     0.2235900     0.1537530
  C       -1.7662690     1.6987010     1.2148980
  H        0.7580870    -2.0438460     0.8774600
  H        0.4673030     1.6551460    -1.2987640
  H       -1.7702480    -0.3190170     1.8277200
  H        3.2028270    -1.6614550     1.2045750
  H        2.9128080     2.0436310    -0.9672160
  H        4.2723800     0.3833040     0.2839750
  H       -2.3988760     2.0038020     2.0501250
  H       -2.1043290     2.2146560     0.3162530
  H       -0.7257680     1.9753910     1.4267290
units angstrom
no_reorient  #important for SAPT in psi4, default
symmetry c1  #important for SAPT in psi4, default
}

set PROPERTIES_ORIGIN ["COM"]
properties('MP2/aug-cc-pvtz', properties = ['dipole'])
--------------------------------------------------------------------------

    Molecular point group: c1
  Charge       = 0
  Multiplicity = 1
  Basis Set: AUG-CC-PVTZ
    Blend: AUG-CC-PVTZ
  Basis Set: (AUG-CC-PVTZ AUX)
    Blend: AUG-CC-PVTZ-JKFIT

    Orbital Energies [Eh]
    ---------------------

    Doubly Occupied:

       1A    -92.201490     2A    -20.545514     3A    -20.543381
       4A    -15.601606     5A    -11.286990     6A    -11.275414
       7A    -11.273834     8A    -11.273571     9A    -11.270355
      10A    -11.264563    11A    -11.264427    12A     -9.166556
      13A     -6.851718    14A     -6.851156    15A     -6.850926
      16A     -1.450609    17A     -1.332596    18A     -1.232220
      19A     -1.184810    20A     -1.061111    21A     -1.046433
      22A     -0.962053    23A     -0.895843    24A     -0.858540
      25A     -0.814011    26A     -0.750015    27A     -0.712288
      28A     -0.677892    29A     -0.671426    30A     -0.656991
      31A     -0.643658    32A     -0.620055    33A     -0.618050
      34A     -0.605958    35A     -0.565930    36A     -0.550641
      37A     -0.535601    38A     -0.525913    39A     -0.501131
      40A     -0.494422    41A     -0.469967    42A     -0.465710
      43A     -0.435387    44A     -0.370749    45A     -0.365329

  @DF-RHF Final Energy:  -872.15487802174289

   => Energetics <=

    Nuclear Repulsion Energy =            742.1359648814596994
    One-Electron Energy =               -2669.3880055598347099
    Two-Electron Energy =                1055.0971626566322357
    Total Energy =                       -872.1548780217428884
  Basis Set: (AUG-CC-PVTZ AUX)
    Blend: AUG-CC-PVTZ-RI
    Molecular point group: c1

    Geometry (in Angstrom), charge = 0, multiplicity = 1:

       Center              X                  Y                   Z               Mass
    ------------   -----------------  -----------------  -----------------  -----------------
         S           -1.242709344714    -0.389307956985    -0.315972541053    31.972071174400
         O           -1.779539844714     0.384070443015    -1.434707441053    15.994914619570
         O           -1.506499344714    -1.822583956985    -0.197207541053    15.994914619570
         N           -1.921923344714     0.300550043015     1.042350458947    14.003074004430
         C            0.517964655286    -0.155566956985    -0.164298541053    12.000000000000
         C            1.270479655286    -1.100785956985     0.539072458947    12.000000000000
         C            1.105792655286     0.996449043015    -0.693440541053    12.000000000000
         C            2.639167655286    -0.887866956985     0.703287458947    12.000000000000
         C            2.476638655286     1.196214043015    -0.519518541053    12.000000000000
         C            3.240332655286     0.262837043015     0.185136458947    12.000000000000
         C           -1.730903344714     1.737948043015     1.246281458947    12.000000000000
         H            0.793452655286    -2.004598956985     0.908843458947     1.007825032230
         H            0.502668655286     1.694393043015    -1.267380541053     1.007825032230
         H           -1.734882344714    -0.279769956985     1.859103458947     1.007825032230
         H            3.238192655286    -1.622207956985     1.235958458947     1.007825032230
         H            2.948173655286     2.082878043015    -0.935832541053     1.007825032230
         H            4.307745655286     0.422551043015     0.315358458947     1.007825032230
         H           -2.363510344714     2.043049043015     2.081508458947     1.007825032230
         H           -2.068963344714     2.253903043015     0.347636458947     1.007825032230
         H           -0.690402344714     2.014638043015     1.458112458947     1.007825032230

  Basis Set: AUG-CC-PVTZ
    Blend: AUG-CC-PVTZ
  Basis Set: (AUG-CC-PVTZ AUX)
    Blend: AUG-CC-PVTZ-JKFIT
	 Reference Energy          =    -872.1548780217428884 [Eh]
	 Singles Energy            =      -0.0000000000000000 [Eh]
	 Same-Spin Energy          =      -0.5643972678619102 [Eh]
	 Opposite-Spin Energy      =      -1.6943376458092549 [Eh]
	 Correlation Energy        =      -2.2587349136711650 [Eh]
	 Total Energy              =    -874.4136129354141076 [Eh]

	 ================> DF-SCS-MP2 Energies <==================
	-----------------------------------------------------------
	 SCS Same-Spin Scale       =       0.3333333333333333 [-]
	 SCS Opposite-Spin Scale   =       1.2000000000000000 [-]
	 SCS Same-Spin Energy      =      -0.1881324226206367 [Eh]
	 SCS Opposite-Spin Energy  =      -2.0332051749711058 [Eh]
	 SCS Correlation Energy    =      -2.2213375975917424 [Eh]
	 SCS Total Energy          =    -874.3762156193346300 [Eh]
	-----------------------------------------------------------

  Dipole Moment: [D]
     X:     4.0365      Y:     2.5776      Z:     3.5593     Total:     5.9671

*** Psi4 exiting successfully. Buy a developer a beer!
