                               Psi4 1.3.2 release

  ==> Input File <==

--------------------------------------------------------------------------
#psi4
#
memory 32 gb

molecule  {
0 1
  S       -1.2780750    -0.4285550    -0.3473560
  O       -1.7330935     0.3929865    -1.4680240
  O       -1.5418650    -1.8618310    -0.2285910
  N       -1.9572890     0.2613030     1.0109670
  C        0.4825990    -0.1948140    -0.1956820
  C        1.2351140    -1.1400330     0.5076890
  C        1.0704270     0.9572020    -0.7248240
  C        2.6038020    -0.9271140     0.6719040
  C        2.4412730     1.1569670    -0.5509020
  C        3.2049670     0.2235900     0.1537530
  C       -1.7662690     1.6987010     1.2148980
  H        0.7580870    -2.0438460     0.8774600
  H        0.4673030     1.6551460    -1.2987640
  H       -1.7702480    -0.3190170     1.8277200
  H        3.2028270    -1.6614550     1.2045750
  H        2.9128080     2.0436310    -0.9672160
  H        4.2723800     0.3833040     0.2839750
  H       -2.3988760     2.0038020     2.0501250
  H       -2.1043290     2.2146560     0.3162530
  H       -0.7257680     1.9753910     1.4267290
units angstrom
no_reorient  #important for SAPT in psi4, default
symmetry c1  #important for SAPT in psi4, default
}

set PROPERTIES_ORIGIN ["COM"]
properties('MP2/aug-cc-pvtz', properties = ['dipole'])
--------------------------------------------------------------------------

    Molecular point group: c1
  Charge       = 0
  Multiplicity = 1
  Basis Set: AUG-CC-PVTZ
    Blend: AUG-CC-PVTZ
  Basis Set: (AUG-CC-PVTZ AUX)
    Blend: AUG-CC-PVTZ-JKFIT

    Orbital Energies [Eh]
    ---------------------

    Doubly Occupied:

       1A    -92.202977     2A    -20.548099     3A    -20.547026
       4A    -15.603149     5A    -11.283158     6A    -11.275528
       7A    -11.271043     8A    -11.270879     9A    -11.268216
      10A    -11.262451    11A    -11.262286    12A     -9.167855
      13A     -6.853034    14A     -6.852479    15A     -6.852247
      16A     -1.452254    17A     -1.337503    18A     -1.233035
      19A     -1.182327    20A     -1.058324    21A     -1.044110
      22A     -0.962349    23A     -0.893815    24A     -0.856163
      25A     -0.813514    26A     -0.749998    27A     -0.712490
      28A     -0.677688    29A     -0.671992    30A     -0.655744
      31A     -0.641974    32A     -0.621307    33A     -0.616287
      34A     -0.607013    35A     -0.565894    36A     -0.548451
      37A     -0.533459    38A     -0.523658    39A     -0.502930
      40A     -0.498412    41A     -0.474332    42A     -0.466066
      43A     -0.434971    44A     -0.368504    45A     -0.363235

  @DF-RHF Final Energy:  -872.15528385977893

   => Energetics <=

    Nuclear Repulsion Energy =            742.8546528427043540
    One-Electron Energy =               -2670.8434178550846809
    Two-Electron Energy =                1055.8334811526015073
    Total Energy =                       -872.1552838597788195
  Basis Set: (AUG-CC-PVTZ AUX)
    Blend: AUG-CC-PVTZ-RI
    Molecular point group: c1

    Geometry (in Angstrom), charge = 0, multiplicity = 1:

       Center              X                  Y                   Z               Mass
    ------------   -----------------  -----------------  -----------------  -----------------
         S           -1.250360251819    -0.393812081123    -0.315791761112    31.972071174400
         O           -1.705378751819     0.427729418877    -1.436459761112    15.994914619570
         O           -1.514150251819    -1.827088081123    -0.197026761112    15.994914619570
         N           -1.929574251819     0.296045918877     1.042531238888    14.003074004430
         C            0.510313748181    -0.160071081123    -0.164117761112    12.000000000000
         C            1.262828748181    -1.105290081123     0.539253238888    12.000000000000
         C            1.098141748181     0.991944918877    -0.693259761112    12.000000000000
         C            2.631516748181    -0.892371081123     0.703468238888    12.000000000000
         C            2.468987748181     1.191709918877    -0.519337761112    12.000000000000
         C            3.232681748181     0.258332918877     0.185317238888    12.000000000000
         C           -1.738554251819     1.733443918877     1.246462238888    12.000000000000
         H            0.785801748181    -2.009103081123     0.909024238888     1.007825032230
         H            0.495017748181     1.689888918877    -1.267199761112     1.007825032230
         H           -1.742533251819    -0.284274081123     1.859284238888     1.007825032230
         H            3.230541748181    -1.626712081123     1.236139238888     1.007825032230
         H            2.940522748181     2.078373918877    -0.935651761112     1.007825032230
         H            4.300094748181     0.418046918877     0.315539238888     1.007825032230
         H           -2.371161251819     2.038544918877     2.081689238888     1.007825032230
         H           -2.076614251819     2.249398918877     0.347817238888     1.007825032230
         H           -0.698053251819     2.010133918877     1.458293238888     1.007825032230

  Basis Set: AUG-CC-PVTZ
    Blend: AUG-CC-PVTZ
  Basis Set: (AUG-CC-PVTZ AUX)
    Blend: AUG-CC-PVTZ-JKFIT
	 Reference Energy          =    -872.1552838597789332 [Eh]
	 Singles Energy            =      -0.0000000000000000 [Eh]
	 Same-Spin Energy          =      -0.5646142329635853 [Eh]
	 Opposite-Spin Energy      =      -1.6946605207490637 [Eh]
	 Correlation Energy        =      -2.2592747537126492 [Eh]
	 Total Energy              =    -874.4145586134916357 [Eh]

	 ================> DF-SCS-MP2 Energies <==================
	-----------------------------------------------------------
	 SCS Same-Spin Scale       =       0.3333333333333333 [-]
	 SCS Opposite-Spin Scale   =       1.2000000000000000 [-]
	 SCS Same-Spin Energy      =      -0.1882047443211951 [Eh]
	 SCS Opposite-Spin Energy  =      -2.0335926248988763 [Eh]
	 SCS Correlation Energy    =      -2.2217973692200714 [Eh]
	 SCS Total Energy          =    -874.3770812289990317 [Eh]
	-----------------------------------------------------------

  Dipole Moment: [D]
     X:     3.7550      Y:     2.4705      Z:     3.5469     Total:     5.7257

*** Psi4 exiting successfully. Buy a developer a beer!
