                               Psi4 1.3.2 release

  ==> Input File <==

--------------------------------------------------------------------------
#psi4
#
memory 32 gb

molecule  {
0 1
  S       -1.2780750    -0.4285550    -0.3473560
  O       -1.7502939     0.4331357    -1.5617680
  O       -1.5418650    -1.8618310    -0.2285910
  N       -1.9572890     0.2613030     1.0109670
  C        0.4825990    -0.1948140    -0.1956820
  C        1.2351140    -1.1400330     0.5076890
  C        1.0704270     0.9572020    -0.7248240
  C        2.6038020    -0.9271140     0.6719040
  C        2.4412730     1.1569670    -0.5509020
  C        3.2049670     0.2235900     0.1537530
  C       -1.7662690     1.6987010     1.2148980
  H        0.7580870    -2.0438460     0.8774600
  H        0.4673030     1.6551460    -1.2987640
  H       -1.7702480    -0.3190170     1.8277200
  H        3.2028270    -1.6614550     1.2045750
  H        2.9128080     2.0436310    -0.9672160
  H        4.2723800     0.3833040     0.2839750
  H       -2.3988760     2.0038020     2.0501250
  H       -2.1043290     2.2146560     0.3162530
  H       -0.7257680     1.9753910     1.4267290
units angstrom
no_reorient  #important for SAPT in psi4, default
symmetry c1  #important for SAPT in psi4, default
}

set PROPERTIES_ORIGIN ["COM"]
properties('MP2/aug-cc-pvtz', properties = ['dipole'])
--------------------------------------------------------------------------

    Molecular point group: c1
  Charge       = 0
  Multiplicity = 1
  Basis Set: AUG-CC-PVTZ
    Blend: AUG-CC-PVTZ
  Basis Set: (AUG-CC-PVTZ AUX)
    Blend: AUG-CC-PVTZ-JKFIT

    Orbital Energies [Eh]
    ---------------------

    Doubly Occupied:

       1A    -92.208816     2A    -20.554081     3A    -20.545690
       4A    -15.610012     5A    -11.287279     6A    -11.277722
       7A    -11.273853     8A    -11.272354     9A    -11.270046
      10A    -11.264221    11A    -11.263559    12A     -9.173268
      13A     -6.858321    14A     -6.857816    15A     -6.857021
      16A     -1.433133    17A     -1.306500    18A     -1.235294
      19A     -1.184284    20A     -1.060873    21A     -1.045845
      22A     -0.966641    23A     -0.898129    24A     -0.858023
      25A     -0.817838    26A     -0.749059    27A     -0.710436
      28A     -0.677316    29A     -0.669735    30A     -0.657809
      31A     -0.642434    32A     -0.618330    33A     -0.614792
      34A     -0.603180    35A     -0.567025    36A     -0.548003
      37A     -0.535338    38A     -0.525210    39A     -0.494864
      40A     -0.489079    41A     -0.464412    42A     -0.461421
      43A     -0.437854    44A     -0.370693    45A     -0.364851

  @DF-RHF Final Energy:  -872.13676511881249

   => Energetics <=

    Nuclear Repulsion Energy =            738.0970083573190550
    One-Electron Energy =               -2661.3026271086910128
    Two-Electron Energy =                1051.0688536325594669
    Total Energy =                       -872.1367651188124910
  Basis Set: (AUG-CC-PVTZ AUX)
    Blend: AUG-CC-PVTZ-RI
    Molecular point group: c1

    Geometry (in Angstrom), charge = 0, multiplicity = 1:

       Center              X                  Y                   Z               Mass
    ------------   -----------------  -----------------  -----------------  -----------------
         S           -1.248751702186    -0.397566760138    -0.307024995409    31.972071174400
         O           -1.720970602186     0.464123939862    -1.521436995409    15.994914619570
         O           -1.512541702186    -1.830842760138    -0.188259995409    15.994914619570
         N           -1.927965702186     0.292291239862     1.051298004591    14.003074004430
         C            0.511922297814    -0.163825760138    -0.155350995409    12.000000000000
         C            1.264437297814    -1.109044760138     0.548020004591    12.000000000000
         C            1.099750297814     0.988190239862    -0.684492995409    12.000000000000
         C            2.633125297814    -0.896125760138     0.712235004591    12.000000000000
         C            2.470596297814     1.187955239862    -0.510570995409    12.000000000000
         C            3.234290297814     0.254578239862     0.194084004591    12.000000000000
         C           -1.736945702186     1.729689239862     1.255229004591    12.000000000000
         H            0.787410297814    -2.012857760138     0.917791004591     1.007825032230
         H            0.496626297814     1.686134239862    -1.258432995409     1.007825032230
         H           -1.740924702186    -0.288028760138     1.868051004591     1.007825032230
         H            3.232150297814    -1.630466760138     1.244906004591     1.007825032230
         H            2.942131297814     2.074619239862    -0.926884995409     1.007825032230
         H            4.301703297814     0.414292239862     0.324306004591     1.007825032230
         H           -2.369552702186     2.034790239862     2.090456004591     1.007825032230
         H           -2.075005702186     2.245644239862     0.356584004591     1.007825032230
         H           -0.696444702186     2.006379239862     1.467060004591     1.007825032230

  Basis Set: AUG-CC-PVTZ
    Blend: AUG-CC-PVTZ
  Basis Set: (AUG-CC-PVTZ AUX)
    Blend: AUG-CC-PVTZ-JKFIT
	 Reference Energy          =    -872.1367651188124910 [Eh]
	 Singles Energy            =      -0.0000000000000000 [Eh]
	 Same-Spin Energy          =      -0.5662607484690168 [Eh]
	 Opposite-Spin Energy      =      -1.6993088050752116 [Eh]
	 Correlation Energy        =      -2.2655695535442284 [Eh]
	 Total Energy              =    -874.4023346723566874 [Eh]

	 ================> DF-SCS-MP2 Energies <==================
	-----------------------------------------------------------
	 SCS Same-Spin Scale       =       0.3333333333333333 [-]
	 SCS Opposite-Spin Scale   =       1.2000000000000000 [-]
	 SCS Same-Spin Energy      =      -0.1887535828230056 [Eh]
	 SCS Opposite-Spin Energy  =      -2.0391705660902537 [Eh]
	 SCS Correlation Energy    =      -2.2279241489132593 [Eh]
	 SCS Total Energy          =    -874.3646892677257938 [Eh]
	-----------------------------------------------------------

  Dipole Moment: [D]
     X:     3.9631      Y:     2.3057      Z:     3.9909     Total:     6.0786

*** Psi4 exiting successfully. Buy a developer a beer!
