                               Psi4 1.3.2 release

  ==> Input File <==

--------------------------------------------------------------------------
#psi4
#
memory 32 gb

molecule  {
0 1
  S       -1.2780750    -0.4285550    -0.3473560
  O       -1.7439952     0.3700495    -1.4800599
  O       -1.5418650    -1.8618310    -0.2285910
  N       -1.9572890     0.2613030     1.0109670
  C        0.4825990    -0.1948140    -0.1956820
  C        1.2351140    -1.1400330     0.5076890
  C        1.0704270     0.9572020    -0.7248240
  C        2.6038020    -0.9271140     0.6719040
  C        2.4412730     1.1569670    -0.5509020
  C        3.2049670     0.2235900     0.1537530
  C       -1.7662690     1.6987010     1.2148980
  H        0.7580870    -2.0438460     0.8774600
  H        0.4673030     1.6551460    -1.2987640
  H       -1.7702480    -0.3190170     1.8277200
  H        3.2028270    -1.6614550     1.2045750
  H        2.9128080     2.0436310    -0.9672160
  H        4.2723800     0.3833040     0.2839750
  H       -2.3988760     2.0038020     2.0501250
  H       -2.1043290     2.2146560     0.3162530
  H       -0.7257680     1.9753910     1.4267290
units angstrom
no_reorient  #important for SAPT in psi4, default
symmetry c1  #important for SAPT in psi4, default
}

set PROPERTIES_ORIGIN ["COM"]
properties('MP2/aug-cc-pvtz', properties = ['dipole'])
--------------------------------------------------------------------------

    Molecular point group: c1
  Charge       = 0
  Multiplicity = 1
  Basis Set: AUG-CC-PVTZ
    Blend: AUG-CC-PVTZ
  Basis Set: (AUG-CC-PVTZ AUX)
    Blend: AUG-CC-PVTZ-JKFIT

    Orbital Energies [Eh]
    ---------------------

    Doubly Occupied:

       1A    -92.202644     2A    -20.546866     3A    -20.546346
       4A    -15.603731     5A    -11.283747     6A    -11.276155
       7A    -11.271431     8A    -11.271357     9A    -11.268529
      10A    -11.262791    11A    -11.262644    12A     -9.167568
      13A     -6.852736    14A     -6.852177    15A     -6.851971
      16A     -1.451750    17A     -1.335841    18A     -1.233827
      19A     -1.182722    20A     -1.058781    21A     -1.044481
      22A     -0.962818    23A     -0.894295    24A     -0.856546
      25A     -0.813829    26A     -0.750061    27A     -0.712346
      28A     -0.677680    29A     -0.672099    30A     -0.656071
      31A     -0.642238    32A     -0.620919    33A     -0.616572
      34A     -0.607166    35A     -0.566639    36A     -0.548806
      37A     -0.533869    38A     -0.524019    39A     -0.502744
      40A     -0.497100    41A     -0.472932    42A     -0.466346
      43A     -0.435426    44A     -0.368874    45A     -0.363579

  @DF-RHF Final Energy:  -872.15558262285515

   => Energetics <=

    Nuclear Repulsion Energy =            742.6245980796109052
    One-Electron Energy =               -2670.3782209632681770
    Two-Electron Energy =                1055.5980402608022359
    Total Energy =                       -872.1555826228550359
  Basis Set: (AUG-CC-PVTZ AUX)
    Blend: AUG-CC-PVTZ-RI
    Molecular point group: c1

    Geometry (in Angstrom), charge = 0, multiplicity = 1:

       Center              X                  Y                   Z               Mass
    ------------   -----------------  -----------------  -----------------  -----------------
         S           -1.249340744974    -0.391667055256    -0.314666185978    31.972071174400
         O           -1.715260944974     0.406937444744    -1.447370085978    15.994914619570
         O           -1.513130744974    -1.824943055256    -0.195901185978    15.994914619570
         N           -1.928554744974     0.298190944744     1.043656814022    14.003074004430
         C            0.511333255026    -0.157926055256    -0.162992185978    12.000000000000
         C            1.263848255026    -1.103145055256     0.540378814022    12.000000000000
         C            1.099161255026     0.994089944744    -0.692134185978    12.000000000000
         C            2.632536255026    -0.890226055256     0.704593814022    12.000000000000
         C            2.470007255026     1.193854944744    -0.518212185978    12.000000000000
         C            3.233701255026     0.260477944744     0.186442814022    12.000000000000
         C           -1.737534744974     1.735588944744     1.247587814022    12.000000000000
         H            0.786821255026    -2.006958055256     0.910149814022     1.007825032230
         H            0.496037255026     1.692033944744    -1.266074185978     1.007825032230
         H           -1.741513744974    -0.282129055256     1.860409814022     1.007825032230
         H            3.231561255026    -1.624567055256     1.237264814022     1.007825032230
         H            2.941542255026     2.080518944744    -0.934526185978     1.007825032230
         H            4.301114255026     0.420191944744     0.316664814022     1.007825032230
         H           -2.370141744974     2.040689944744     2.082814814022     1.007825032230
         H           -2.075594744974     2.251543944744     0.348942814022     1.007825032230
         H           -0.697033744974     2.012278944744     1.459418814022     1.007825032230

  Basis Set: AUG-CC-PVTZ
    Blend: AUG-CC-PVTZ
  Basis Set: (AUG-CC-PVTZ AUX)
    Blend: AUG-CC-PVTZ-JKFIT
	 Reference Energy          =    -872.1555826228551496 [Eh]
	 Singles Energy            =      -0.0000000000000000 [Eh]
	 Same-Spin Energy          =      -0.5645036000046133 [Eh]
	 Opposite-Spin Energy      =      -1.6944874231965741 [Eh]
	 Correlation Energy        =      -2.2589910232011876 [Eh]
	 Total Energy              =    -874.4145736460562830 [Eh]

	 ================> DF-SCS-MP2 Energies <==================
	-----------------------------------------------------------
	 SCS Same-Spin Scale       =       0.3333333333333333 [-]
	 SCS Opposite-Spin Scale   =       1.2000000000000000 [-]
	 SCS Same-Spin Energy      =      -0.1881678666682044 [Eh]
	 SCS Opposite-Spin Energy  =      -2.0333849078358890 [Eh]
	 SCS Correlation Energy    =      -2.2215527745040933 [Eh]
	 SCS Total Energy          =    -874.3771353973592113 [Eh]
	-----------------------------------------------------------

  Dipole Moment: [D]
     X:     3.7927      Y:     2.5278      Z:     3.5803     Total:     5.7959

*** Psi4 exiting successfully. Buy a developer a beer!
