                               Psi4 1.3.2 release

  ==> Input File <==

--------------------------------------------------------------------------
#psi4
#
memory 32 gb

molecule  {
0 1
  S       -1.2984957    -0.3840860    -0.3789040
  O       -1.7200650     0.3779750    -1.4840280
  O       -1.5418650    -1.8618310    -0.2285910
  N       -1.9572890     0.2613030     1.0109670
  C        0.4825990    -0.1948140    -0.1956820
  C        1.2351140    -1.1400330     0.5076890
  C        1.0704270     0.9572020    -0.7248240
  C        2.6038020    -0.9271140     0.6719040
  C        2.4412730     1.1569670    -0.5509020
  C        3.2049670     0.2235900     0.1537530
  C       -1.7662690     1.6987010     1.2148980
  H        0.7580870    -2.0438460     0.8774600
  H        0.4673030     1.6551460    -1.2987640
  H       -1.7702480    -0.3190170     1.8277200
  H        3.2028270    -1.6614550     1.2045750
  H        2.9128080     2.0436310    -0.9672160
  H        4.2723800     0.3833040     0.2839750
  H       -2.3988760     2.0038020     2.0501250
  H       -2.1043290     2.2146560     0.3162530
  H       -0.7257680     1.9753910     1.4267290
units angstrom
no_reorient  #important for SAPT in psi4, default
symmetry c1  #important for SAPT in psi4, default
}

set PROPERTIES_ORIGIN ["COM"]
properties('MP2/aug-cc-pvtz', properties = ['dipole'])
--------------------------------------------------------------------------

    Molecular point group: c1
  Charge       = 0
  Multiplicity = 1
  Basis Set: AUG-CC-PVTZ
    Blend: AUG-CC-PVTZ
  Basis Set: (AUG-CC-PVTZ AUX)
    Blend: AUG-CC-PVTZ-JKFIT

    Orbital Energies [Eh]
    ---------------------

    Doubly Occupied:

       1A    -92.202552     2A    -20.561210     3A    -20.537230
       4A    -15.604135     5A    -11.281766     6A    -11.277009
       7A    -11.268771     8A    -11.268556     9A    -11.266090
      10A    -11.260926    11A    -11.260779    12A     -9.167942
      13A     -6.853127    14A     -6.852641    15A     -6.852224
      16A     -1.469112    17A     -1.333100    18A     -1.234000
      19A     -1.179973    20A     -1.054670    21A     -1.042200
      22A     -0.961785    23A     -0.891137    24A     -0.853956
      25A     -0.815140    26A     -0.751456    27A     -0.715309
      28A     -0.678668    29A     -0.673532    30A     -0.653610
      31A     -0.641258    32A     -0.625286    33A     -0.614466
      34A     -0.608780    35A     -0.569568    36A     -0.549178
      37A     -0.531830    38A     -0.522774    39A     -0.512835
      40A     -0.499644    41A     -0.471419    42A     -0.461032
      43A     -0.432624    44A     -0.366568    45A     -0.361447

  @DF-RHF Final Energy:  -872.15008563802621

   => Energetics <=

    Nuclear Repulsion Energy =            742.7802121106788036
    One-Electron Energy =               -2670.6779635747075190
    Two-Electron Energy =                1055.7476658260025033
    Total Energy =                       -872.1500856380262121
  Basis Set: (AUG-CC-PVTZ AUX)
    Blend: AUG-CC-PVTZ-RI
    Molecular point group: c1

    Geometry (in Angstrom), charge = 0, multiplicity = 1:

       Center              X                  Y                   Z               Mass
    ------------   -----------------  -----------------  -----------------  -----------------
         S           -1.268182061008    -0.356251933760    -0.339945750766    31.972071174400
         O           -1.689751361008     0.405809066240    -1.445069750766    15.994914619570
         O           -1.511551361008    -1.833996933760    -0.189632750766    15.994914619570
         N           -1.926975361008     0.289137066240     1.049925249234    14.003074004430
         C            0.512912638992    -0.166979933760    -0.156723750766    12.000000000000
         C            1.265427638992    -1.112198933760     0.546647249234    12.000000000000
         C            1.100740638992     0.985036066240    -0.685865750766    12.000000000000
         C            2.634115638992    -0.899279933760     0.710862249234    12.000000000000
         C            2.471586638992     1.184801066240    -0.511943750766    12.000000000000
         C            3.235280638992     0.251424066240     0.192711249234    12.000000000000
         C           -1.735955361008     1.726535066240     1.253856249234    12.000000000000
         H            0.788400638992    -2.016011933760     0.916418249234     1.007825032230
         H            0.497616638992     1.682980066240    -1.259805750766     1.007825032230
         H           -1.739934361008    -0.291182933760     1.866678249234     1.007825032230
         H            3.233140638992    -1.633620933760     1.243533249234     1.007825032230
         H            2.943121638992     2.071465066240    -0.928257750766     1.007825032230
         H            4.302693638992     0.411138066240     0.322933249234     1.007825032230
         H           -2.368562361008     2.031636066240     2.089083249234     1.007825032230
         H           -2.074015361008     2.242490066240     0.355211249234     1.007825032230
         H           -0.695454361008     2.003225066240     1.465687249234     1.007825032230

  Basis Set: AUG-CC-PVTZ
    Blend: AUG-CC-PVTZ
  Basis Set: (AUG-CC-PVTZ AUX)
    Blend: AUG-CC-PVTZ-JKFIT
	 Reference Energy          =    -872.1500856380262121 [Eh]
	 Singles Energy            =      -0.0000000000000000 [Eh]
	 Same-Spin Energy          =      -0.5641796089692841 [Eh]
	 Opposite-Spin Energy      =      -1.6940470709508526 [Eh]
	 Correlation Energy        =      -2.2582266799201367 [Eh]
	 Total Energy              =    -874.4083123179462973 [Eh]

	 ================> DF-SCS-MP2 Energies <==================
	-----------------------------------------------------------
	 SCS Same-Spin Scale       =       0.3333333333333333 [-]
	 SCS Opposite-Spin Scale   =       1.2000000000000000 [-]
	 SCS Same-Spin Energy      =      -0.1880598696564280 [Eh]
	 SCS Opposite-Spin Energy  =      -2.0328564851410231 [Eh]
	 SCS Correlation Energy    =      -2.2209163547974513 [Eh]
	 SCS Total Energy          =    -874.3710019928236079 [Eh]
	-----------------------------------------------------------

  Dipole Moment: [D]
     X:     3.4959      Y:     2.8690      Z:     3.3254     Total:     5.6135

*** Psi4 exiting successfully. Buy a developer a beer!
