                               Psi4 1.3.2 release

  ==> Input File <==

--------------------------------------------------------------------------
#psi4
#
memory 32 gb

molecule  {
0 1
  S       -1.2780750    -0.4285550    -0.3473560
  O       -1.7612766     0.2933490    -1.5234682
  O       -1.5418650    -1.8618310    -0.2285910
  N       -1.9572890     0.2613030     1.0109670
  C        0.4825990    -0.1948140    -0.1956820
  C        1.2351140    -1.1400330     0.5076890
  C        1.0704270     0.9572020    -0.7248240
  C        2.6038020    -0.9271140     0.6719040
  C        2.4412730     1.1569670    -0.5509020
  C        3.2049670     0.2235900     0.1537530
  C       -1.7662690     1.6987010     1.2148980
  H        0.7580870    -2.0438460     0.8774600
  H        0.4673030     1.6551460    -1.2987640
  H       -1.7702480    -0.3190170     1.8277200
  H        3.2028270    -1.6614550     1.2045750
  H        2.9128080     2.0436310    -0.9672160
  H        4.2723800     0.3833040     0.2839750
  H       -2.3988760     2.0038020     2.0501250
  H       -2.1043290     2.2146560     0.3162530
  H       -0.7257680     1.9753910     1.4267290
units angstrom
no_reorient  #important for SAPT in psi4, default
symmetry c1  #important for SAPT in psi4, default
}

set PROPERTIES_ORIGIN ["COM"]
properties('MP2/aug-cc-pvtz', properties = ['dipole'])
--------------------------------------------------------------------------

    Molecular point group: c1
  Charge       = 0
  Multiplicity = 1
  Basis Set: AUG-CC-PVTZ
    Blend: AUG-CC-PVTZ
  Basis Set: (AUG-CC-PVTZ AUX)
    Blend: AUG-CC-PVTZ-JKFIT

    Orbital Energies [Eh]
    ---------------------

    Doubly Occupied:

       1A    -92.201716     2A    -20.546482     3A    -20.540789
       4A    -15.606323     5A    -11.284913     6A    -11.278505
       7A    -11.272430     8A    -11.272040     9A    -11.269093
      10A    -11.263493    11A    -11.263343    12A     -9.166790
      13A     -6.851921    14A     -6.851360    15A     -6.851206
      16A     -1.450364    17A     -1.330613    18A     -1.236928
      19A     -1.183500    20A     -1.059708    21A     -1.045211
      22A     -0.964686    23A     -0.895522    24A     -0.857314
      25A     -0.814892    26A     -0.750306    27A     -0.711895
      28A     -0.677606    29A     -0.672654    30A     -0.656916
      31A     -0.642742    32A     -0.620243    33A     -0.617023
      34A     -0.607425    35A     -0.569407    36A     -0.549539
      37A     -0.534813    38A     -0.524733    39A     -0.502393
      40A     -0.493024    41A     -0.468340    42A     -0.467275
      43A     -0.436873    44A     -0.369619    45A     -0.364267

  @DF-RHF Final Energy:  -872.15526959896670

   => Energetics <=

    Nuclear Repulsion Energy =            742.0071757656950240
    One-Electron Energy =               -2669.1324218204472345
    Two-Electron Energy =                1054.9699764557853996
    Total Energy =                       -872.1552695989666972
  Basis Set: (AUG-CC-PVTZ AUX)
    Blend: AUG-CC-PVTZ-RI
    Molecular point group: c1

    Geometry (in Angstrom), charge = 0, multiplicity = 1:

       Center              X                  Y                   Z               Mass
    ------------   -----------------  -----------------  -----------------  -----------------
         S           -1.247724620371    -0.384494166188    -0.310606721952    31.972071174400
         O           -1.730926220371     0.337409833812    -1.486718921952    15.994914619570
         O           -1.511514620371    -1.817770166188    -0.191841721952    15.994914619570
         N           -1.926938620371     0.305363833812     1.047716278048    14.003074004430
         C            0.512949379629    -0.150753166188    -0.158932721952    12.000000000000
         C            1.265464379629    -1.095972166188     0.544438278048    12.000000000000
         C            1.100777379629     1.001262833812    -0.688074721952    12.000000000000
         C            2.634152379629    -0.883053166188     0.708653278048    12.000000000000
         C            2.471623379629     1.201027833812    -0.514152721952    12.000000000000
         C            3.235317379629     0.267650833812     0.190502278048    12.000000000000
         C           -1.735918620371     1.742761833812     1.251647278048    12.000000000000
         H            0.788437379629    -1.999785166188     0.914209278048     1.007825032230
         H            0.497653379629     1.699206833812    -1.262014721952     1.007825032230
         H           -1.739897620371    -0.274956166188     1.864469278048     1.007825032230
         H            3.233177379629    -1.617394166188     1.241324278048     1.007825032230
         H            2.943158379629     2.087691833812    -0.930466721952     1.007825032230
         H            4.302730379629     0.427364833812     0.320724278048     1.007825032230
         H           -2.368525620371     2.047862833812     2.086874278048     1.007825032230
         H           -2.073978620371     2.258716833812     0.353002278048     1.007825032230
         H           -0.695417620371     2.019451833812     1.463478278048     1.007825032230

  Basis Set: AUG-CC-PVTZ
    Blend: AUG-CC-PVTZ
  Basis Set: (AUG-CC-PVTZ AUX)
    Blend: AUG-CC-PVTZ-JKFIT
	 Reference Energy          =    -872.1552695989666972 [Eh]
	 Singles Energy            =      -0.0000000000000000 [Eh]
	 Same-Spin Energy          =      -0.5642254119258273 [Eh]
	 Opposite-Spin Energy      =      -1.6940815017439657 [Eh]
	 Correlation Energy        =      -2.2583069136697929 [Eh]
	 Total Energy              =    -874.4135765126364959 [Eh]

	 ================> DF-SCS-MP2 Energies <==================
	-----------------------------------------------------------
	 SCS Same-Spin Scale       =       0.3333333333333333 [-]
	 SCS Opposite-Spin Scale   =       1.2000000000000000 [-]
	 SCS Same-Spin Energy      =      -0.1880751373086091 [Eh]
	 SCS Opposite-Spin Energy  =      -2.0328978020927586 [Eh]
	 SCS Correlation Energy    =      -2.2209729394013675 [Eh]
	 SCS Total Energy          =    -874.3762425383680466 [Eh]
	-----------------------------------------------------------

  Dipole Moment: [D]
     X:     3.8534      Y:     2.7212      Z:     3.6953     Total:     5.9924

*** Psi4 exiting successfully. Buy a developer a beer!
