                               Psi4 1.3.2 release

  ==> Input File <==

--------------------------------------------------------------------------
#psi4
#
memory 32 gb

molecule  {
0 1
  S       -1.2820992    -0.3227372    -0.4126814
  O       -1.7200650     0.3779750    -1.4840280
  O       -1.5418650    -1.8618310    -0.2285910
  N       -1.9572890     0.2613030     1.0109670
  C        0.4825990    -0.1948140    -0.1956820
  C        1.2351140    -1.1400330     0.5076890
  C        1.0704270     0.9572020    -0.7248240
  C        2.6038020    -0.9271140     0.6719040
  C        2.4412730     1.1569670    -0.5509020
  C        3.2049670     0.2235900     0.1537530
  C       -1.7662690     1.6987010     1.2148980
  H        0.7580870    -2.0438460     0.8774600
  H        0.4673030     1.6551460    -1.2987640
  H       -1.7702480    -0.3190170     1.8277200
  H        3.2028270    -1.6614550     1.2045750
  H        2.9128080     2.0436310    -0.9672160
  H        4.2723800     0.3833040     0.2839750
  H       -2.3988760     2.0038020     2.0501250
  H       -2.1043290     2.2146560     0.3162530
  H       -0.7257680     1.9753910     1.4267290
units angstrom
no_reorient  #important for SAPT in psi4, default
symmetry c1  #important for SAPT in psi4, default
}

set PROPERTIES_ORIGIN ["COM"]
properties('MP2/aug-cc-pvtz', properties = ['dipole'])
--------------------------------------------------------------------------

    Molecular point group: c1
  Charge       = 0
  Multiplicity = 1
  Basis Set: AUG-CC-PVTZ
    Blend: AUG-CC-PVTZ
  Basis Set: (AUG-CC-PVTZ AUX)
    Blend: AUG-CC-PVTZ-JKFIT

    Orbital Energies [Eh]
    ---------------------

    Doubly Occupied:

       1A    -92.197907     2A    -20.573910     3A    -20.521061
       4A    -15.602191     5A    -11.283528     6A    -11.276026
       7A    -11.271286     8A    -11.270686     9A    -11.268186
      10A    -11.262510    11A    -11.262367    12A     -9.165782
      13A     -6.851209    14A     -6.850206    15A     -6.849561
      16A     -1.501421    17A     -1.304555    18A     -1.225740
      19A     -1.182303    20A     -1.058816    21A     -1.043905
      22A     -0.958078    23A     -0.895710    24A     -0.855893
      25A     -0.817023    26A     -0.755866    27A     -0.721005
      28A     -0.685536    29A     -0.673991    30A     -0.653391
      31A     -0.643538    32A     -0.628712    33A     -0.616049
      34A     -0.611138    35A     -0.573259    36A     -0.554547
      37A     -0.533945    38A     -0.525775    39A     -0.518783
      40A     -0.494297    41A     -0.453586    42A     -0.445631
      43A     -0.429328    44A     -0.368702    45A     -0.362690

  @DF-RHF Final Energy:  -872.12598021391693

   => Energetics <=

    Nuclear Repulsion Energy =            743.4766582553563694
    One-Electron Energy =               -2672.0060233718331801
    Two-Electron Energy =                1056.4033849025599920
    Total Energy =                       -872.1259802139168187
  Basis Set: (AUG-CC-PVTZ AUX)
    Blend: AUG-CC-PVTZ-RI
    Molecular point group: c1

    Geometry (in Angstrom), charge = 0, multiplicity = 1:

       Center              X                  Y                   Z               Mass
    ------------   -----------------  -----------------  -----------------  -----------------
         S           -1.254850599391    -0.306371216995    -0.367409057667    31.972071174400
         O           -1.692816399391     0.394340983005    -1.438755657667    15.994914619570
         O           -1.514616399391    -1.845465016995    -0.183318657667    15.994914619570
         N           -1.930040399391     0.277668983005     1.056239342333    14.003074004430
         C            0.509847600609    -0.178448016995    -0.150409657667    12.000000000000
         C            1.262362600609    -1.123667016995     0.552961342333    12.000000000000
         C            1.097675600609     0.973567983005    -0.679551657667    12.000000000000
         C            2.631050600609    -0.910748016995     0.717176342333    12.000000000000
         C            2.468521600609     1.173332983005    -0.505629657667    12.000000000000
         C            3.232215600609     0.239955983005     0.199025342333    12.000000000000
         C           -1.739020399391     1.715066983005     1.260170342333    12.000000000000
         H            0.785335600609    -2.027480016995     0.922732342333     1.007825032230
         H            0.494551600609     1.671511983005    -1.253491657667     1.007825032230
         H           -1.742999399391    -0.302651016995     1.872992342333     1.007825032230
         H            3.230075600609    -1.645089016995     1.249847342333     1.007825032230
         H            2.940056600609     2.059996983005    -0.921943657667     1.007825032230
         H            4.299628600609     0.399669983005     0.329247342333     1.007825032230
         H           -2.371627399391     2.020167983005     2.095397342333     1.007825032230
         H           -2.077080399391     2.231021983005     0.361525342333     1.007825032230
         H           -0.698519399391     1.991756983005     1.472001342333     1.007825032230

  Basis Set: AUG-CC-PVTZ
    Blend: AUG-CC-PVTZ
  Basis Set: (AUG-CC-PVTZ AUX)
    Blend: AUG-CC-PVTZ-JKFIT
	 Reference Energy          =    -872.1259802139169324 [Eh]
	 Singles Energy            =      -0.0000000000000000 [Eh]
	 Same-Spin Energy          =      -0.5639687567168216 [Eh]
	 Opposite-Spin Energy      =      -1.6941696357031510 [Eh]
	 Correlation Energy        =      -2.2581383924199727 [Eh]
	 Total Energy              =    -874.3841186063368696 [Eh]

	 ================> DF-SCS-MP2 Energies <==================
	-----------------------------------------------------------
	 SCS Same-Spin Scale       =       0.3333333333333333 [-]
	 SCS Opposite-Spin Scale   =       1.2000000000000000 [-]
	 SCS Same-Spin Energy      =      -0.1879895855722739 [Eh]
	 SCS Opposite-Spin Energy  =      -2.0330035628437813 [Eh]
	 SCS Correlation Energy    =      -2.2209931484160550 [Eh]
	 SCS Total Energy          =    -874.3469733623329603 [Eh]
	-----------------------------------------------------------

  Dipole Moment: [D]
     X:     3.7290      Y:     3.3801      Z:     3.0664     Total:     5.8935

*** Psi4 exiting successfully. Buy a developer a beer!
