                               Psi4 1.3.2 release

  ==> Input File <==

--------------------------------------------------------------------------
#psi4
#
memory 32 gb

molecule  {
0 1
  S       -1.2780750    -0.4285550    -0.3473560
  O       -1.7200650     0.3779750    -1.4840280
  O       -1.5418650    -1.8618310    -0.2285910
  N       -1.9406328     0.2620646     0.9915987
  C        0.4825990    -0.1948140    -0.1956820
  C        1.2351140    -1.1400330     0.5076890
  C        1.0704270     0.9572020    -0.7248240
  C        2.6038020    -0.9271140     0.6719040
  C        2.4412730     1.1569670    -0.5509020
  C        3.2049670     0.2235900     0.1537530
  C       -1.7662690     1.6987010     1.2148980
  H        0.7580870    -2.0438460     0.8774600
  H        0.4673030     1.6551460    -1.2987640
  H       -1.7702480    -0.3190170     1.8277200
  H        3.2028270    -1.6614550     1.2045750
  H        2.9128080     2.0436310    -0.9672160
  H        4.2723800     0.3833040     0.2839750
  H       -2.3988760     2.0038020     2.0501250
  H       -2.1043290     2.2146560     0.3162530
  H       -0.7257680     1.9753910     1.4267290
units angstrom
no_reorient  #important for SAPT in psi4, default
symmetry c1  #important for SAPT in psi4, default
}

set PROPERTIES_ORIGIN ["COM"]
properties('MP2/aug-cc-pvtz', properties = ['dipole'])
--------------------------------------------------------------------------

    Molecular point group: c1
  Charge       = 0
  Multiplicity = 1
  Basis Set: AUG-CC-PVTZ
    Blend: AUG-CC-PVTZ
  Basis Set: (AUG-CC-PVTZ AUX)
    Blend: AUG-CC-PVTZ-JKFIT

    Orbital Energies [Eh]
    ---------------------

    Doubly Occupied:

       1A    -92.202533     2A    -20.546986     3A    -20.545961
       4A    -15.604975     5A    -11.281519     6A    -11.277655
       7A    -11.269780     8A    -11.269651     9A    -11.267097
      10A    -11.261590    11A    -11.261436    12A     -9.167489
      13A     -6.852753    14A     -6.852108    15A     -6.851917
      16A     -1.453009    17A     -1.336430    18A     -1.237130
      19A     -1.181245    20A     -1.057234    21A     -1.043106
      22A     -0.966306    23A     -0.892277    24A     -0.855169
      25A     -0.813123    26A     -0.750526    27A     -0.712602
      28A     -0.678467    29A     -0.672773    30A     -0.654971
      31A     -0.641472    32A     -0.620830    33A     -0.615363
      34A     -0.608539    35A     -0.565760    36A     -0.547628
      37A     -0.532887    38A     -0.522684    39A     -0.504553
      40A     -0.497396    41A     -0.473164    42A     -0.466690
      43A     -0.436276    44A     -0.367220    45A     -0.362359

  @DF-RHF Final Energy:  -872.15551533211442

   => Energetics <=

    Nuclear Repulsion Energy =            743.6005409833231852
    One-Electron Energy =               -2672.3508361165932001
    Two-Electron Energy =                1056.5947798011554823
    Total Energy =                       -872.1555153321144189
  Basis Set: (AUG-CC-PVTZ AUX)
    Blend: AUG-CC-PVTZ-RI
    Molecular point group: c1

    Geometry (in Angstrom), charge = 0, multiplicity = 1:

       Center              X                  Y                   Z               Mass
    ------------   -----------------  -----------------  -----------------  -----------------
         S           -1.252942335687    -0.392470587374    -0.312709367919    31.972071174400
         O           -1.694932335687     0.414059412626    -1.449381367919    15.994914619570
         O           -1.516732335687    -1.825746587374    -0.193944367919    15.994914619570
         N           -1.915500135687     0.298149012626     1.026245332081    14.003074004430
         C            0.507731664313    -0.158729587374    -0.161035367919    12.000000000000
         C            1.260246664313    -1.103948587374     0.542335632081    12.000000000000
         C            1.095559664313     0.993286412626    -0.690177367919    12.000000000000
         C            2.628934664313    -0.891029587374     0.706550632081    12.000000000000
         C            2.466405664313     1.193051412626    -0.516255367919    12.000000000000
         C            3.230099664313     0.259674412626     0.188399632081    12.000000000000
         C           -1.741136335687     1.734785412626     1.249544632081    12.000000000000
         H            0.783219664313    -2.007761587374     0.912106632081     1.007825032230
         H            0.492435664313     1.691230412626    -1.264117367919     1.007825032230
         H           -1.745115335687    -0.282932587374     1.862366632081     1.007825032230
         H            3.227959664313    -1.625370587374     1.239221632081     1.007825032230
         H            2.937940664313     2.079715412626    -0.932569367919     1.007825032230
         H            4.297512664313     0.419388412626     0.318621632081     1.007825032230
         H           -2.373743335687     2.039886412626     2.084771632081     1.007825032230
         H           -2.079196335687     2.250740412626     0.350899632081     1.007825032230
         H           -0.700635335687     2.011475412626     1.461375632081     1.007825032230

  Basis Set: AUG-CC-PVTZ
    Blend: AUG-CC-PVTZ
  Basis Set: (AUG-CC-PVTZ AUX)
    Blend: AUG-CC-PVTZ-JKFIT
	 Reference Energy          =    -872.1555153321144189 [Eh]
	 Singles Energy            =      -0.0000000000000000 [Eh]
	 Same-Spin Energy          =      -0.5645732983812980 [Eh]
	 Opposite-Spin Energy      =      -1.6942934400148748 [Eh]
	 Correlation Energy        =      -2.2588667383961729 [Eh]
	 Total Energy              =    -874.4143820705105554 [Eh]

	 ================> DF-SCS-MP2 Energies <==================
	-----------------------------------------------------------
	 SCS Same-Spin Scale       =       0.3333333333333333 [-]
	 SCS Opposite-Spin Scale   =       1.2000000000000000 [-]
	 SCS Same-Spin Energy      =      -0.1881910994604327 [Eh]
	 SCS Opposite-Spin Energy  =      -2.0331521280178495 [Eh]
	 SCS Correlation Energy    =      -2.2213432274782821 [Eh]
	 SCS Total Energy          =    -874.3768585595927334 [Eh]
	-----------------------------------------------------------

  Dipole Moment: [D]
     X:     3.6010      Y:     2.5378      Z:     3.6722     Total:     5.7353

*** Psi4 exiting successfully. Buy a developer a beer!
