                               Psi4 1.4a3.dev225

  ==> Input File <==

--------------------------------------------------------------------------
#psi4
#
memory 32 gb

molecule  {
0 1
  S       -1.2780750    -0.4285550    -0.3473560
  O       -1.7200650     0.3779750    -1.4840280
  O       -1.5418650    -1.8618310    -0.2285910
  N       -1.9491450     0.2530314     0.9946803
  C        0.4825990    -0.1948140    -0.1956820
  C        1.2351140    -1.1400330     0.5076890
  C        1.0704270     0.9572020    -0.7248240
  C        2.6038020    -0.9271140     0.6719040
  C        2.4412730     1.1569670    -0.5509020
  C        3.2049670     0.2235900     0.1537530
  C       -1.7662690     1.6987010     1.2148980
  H        0.7580870    -2.0438460     0.8774600
  H        0.4673030     1.6551460    -1.2987640
  H       -1.7702480    -0.3190170     1.8277200
  H        3.2028270    -1.6614550     1.2045750
  H        2.9128080     2.0436310    -0.9672160
  H        4.2723800     0.3833040     0.2839750
  H       -2.3988760     2.0038020     2.0501250
  H       -2.1043290     2.2146560     0.3162530
  H       -0.7257680     1.9753910     1.4267290
units angstrom
no_reorient  #important for SAPT in psi4, default
symmetry c1  #important for SAPT in psi4, default
}

set PROPERTIES_ORIGIN ["COM"]
properties('MP2/aug-cc-pvtz', properties = ['dipole'])
--------------------------------------------------------------------------

    Molecular point group: c1
  Charge       = 0
  Multiplicity = 1
  Basis Set: AUG-CC-PVTZ
    Blend: AUG-CC-PVTZ
  Basis Set: (AUG-CC-PVTZ AUX)
    Blend: AUG-CC-PVTZ-JKFIT

    Orbital Energies [Eh]
    ---------------------

    Doubly Occupied:

       1A    -92.202295     2A    -20.546221     3A    -20.546142
       4A    -15.605036     5A    -11.281821     6A    -11.278294
       7A    -11.270033     8A    -11.269915     9A    -11.267355
      10A    -11.261767    11A    -11.261618    12A     -9.167279
      13A     -6.852528    14A     -6.851900    15A     -6.851698
      16A     -1.452673    17A     -1.336190    18A     -1.235449
      19A     -1.181455    20A     -1.057361    21A     -1.043317
      22A     -0.965246    23A     -0.893012    24A     -0.855368
      25A     -0.813696    26A     -0.750865    27A     -0.712460
      28A     -0.677719    29A     -0.672003    30A     -0.654788
      31A     -0.641487    32A     -0.620527    33A     -0.615534
      34A     -0.607077    35A     -0.566539    36A     -0.547802
      37A     -0.533136    38A     -0.522879    39A     -0.504064
      40A     -0.497064    41A     -0.472869    42A     -0.466842
      43A     -0.437173    44A     -0.367567    45A     -0.362560

  @DF-RHF Final Energy:  -872.15566112916031

   => Energetics <=

    Nuclear Repulsion Energy =            743.3806381784080486
    One-Electron Energy =               -2671.9153558526700181
    Two-Electron Energy =                1056.3790565451017756
    Total Energy =                       -872.1556611291603076
  Basis Set: (AUG-CC-PVTZ AUX)
    Blend: AUG-CC-PVTZ-RI
    Molecular point group: c1

    Geometry (in Angstrom), charge = 0, multiplicity = 1:

       Center              X                  Y                   Z               Mass
    ------------   -----------------  -----------------  -----------------  -----------------
         S           -1.252245421675    -0.391731017856    -0.312961665823    31.972071174400
         O           -1.694235421675     0.414798982144    -1.449633665823    15.994914619570
         O           -1.516035421675    -1.825007017856    -0.194196665823    15.994914619570
         N           -1.923315421675     0.289855382144     1.029074634177    14.003074004430
         C            0.508428578325    -0.157990017856    -0.161287665823    12.000000000000
         C            1.260943578325    -1.103209017856     0.542083334177    12.000000000000
         C            1.096256578325     0.994025982144    -0.690429665823    12.000000000000
         C            2.629631578325    -0.890290017856     0.706298334177    12.000000000000
         C            2.467102578325     1.193790982144    -0.516507665823    12.000000000000
         C            3.230796578325     0.260413982144     0.188147334177    12.000000000000
         C           -1.740439421675     1.735524982144     1.249292334177    12.000000000000
         H            0.783916578325    -2.007022017856     0.911854334177     1.007825032230
         H            0.493132578325     1.691969982144    -1.264369665823     1.007825032230
         H           -1.744418421675    -0.282193017856     1.862114334177     1.007825032230
         H            3.228656578325    -1.624631017856     1.238969334177     1.007825032230
         H            2.938637578325     2.080454982144    -0.932821665823     1.007825032230
         H            4.298209578325     0.420127982144     0.318369334177     1.007825032230
         H           -2.373046421675     2.040625982144     2.084519334177     1.007825032230
         H           -2.078499421675     2.251479982144     0.350647334177     1.007825032230
         H           -0.699938421675     2.012214982144     1.461123334177     1.007825032230

  Basis Set: AUG-CC-PVTZ
    Blend: AUG-CC-PVTZ
  Basis Set: (AUG-CC-PVTZ AUX)
    Blend: AUG-CC-PVTZ-JKFIT
	 Reference Energy          =    -872.1556611291603076 [Eh]
	 Singles Energy            =      -0.0000000000000000 [Eh]
	 Same-Spin Energy          =      -0.5644901829975664 [Eh]
	 Opposite-Spin Energy      =      -1.6942951019430454 [Eh]
	 Correlation Energy        =      -2.2587852849406120 [Eh]
	 Total Energy              =    -874.4144464141008939 [Eh]

	 ================> DF-SCS-MP2 Energies <==================
	-----------------------------------------------------------
	 SCS Same-Spin Scale       =       0.3333333333333333 [-]
	 SCS Opposite-Spin Scale   =       1.2000000000000000 [-]
	 SCS Same-Spin Energy      =      -0.1881633943325221 [Eh]
	 SCS Opposite-Spin Energy  =      -2.0331541223316543 [Eh]
	 SCS Correlation Energy    =      -2.2213175166641763 [Eh]
	 SCS Total Energy          =    -874.3769786458244653 [Eh]
	-----------------------------------------------------------

  Dipole Moment: [D]
     X:     3.6399      Y:     2.5617      Z:     3.6631     Total:     5.7645

*** Psi4 exiting successfully. Buy a developer a beer!
