                               Psi4 1.3.2 release

  ==> Input File <==

--------------------------------------------------------------------------
#psi4
#
memory 32 gb

molecule  {
0 1
  S       -1.2780750    -0.4285550    -0.3473560
  O       -1.7200650     0.3779750    -1.4840280
  O       -1.5418650    -1.8618310    -0.2285910
  N       -1.9738870     0.2609793     1.0303974
  C        0.4825990    -0.1948140    -0.1956820
  C        1.2351140    -1.1400330     0.5076890
  C        1.0704270     0.9572020    -0.7248240
  C        2.6038020    -0.9271140     0.6719040
  C        2.4412730     1.1569670    -0.5509020
  C        3.2049670     0.2235900     0.1537530
  C       -1.7662690     1.6987010     1.2148980
  H        0.7580870    -2.0438460     0.8774600
  H        0.4673030     1.6551460    -1.2987640
  H       -1.7702480    -0.3190170     1.8277200
  H        3.2028270    -1.6614550     1.2045750
  H        2.9128080     2.0436310    -0.9672160
  H        4.2723800     0.3833040     0.2839750
  H       -2.3988760     2.0038020     2.0501250
  H       -2.1043290     2.2146560     0.3162530
  H       -0.7257680     1.9753910     1.4267290
units angstrom
no_reorient  #important for SAPT in psi4, default
symmetry c1  #important for SAPT in psi4, default
}

set PROPERTIES_ORIGIN ["COM"]
properties('MP2/aug-cc-pvtz', properties = ['dipole'])
--------------------------------------------------------------------------

    Molecular point group: c1
  Charge       = 0
  Multiplicity = 1
  Basis Set: AUG-CC-PVTZ
    Blend: AUG-CC-PVTZ
  Basis Set: (AUG-CC-PVTZ AUX)
    Blend: AUG-CC-PVTZ-JKFIT

    Orbital Energies [Eh]
    ---------------------

    Doubly Occupied:

       1A    -92.203347     2A    -20.548525     3A    -20.547635
       4A    -15.603999     5A    -11.283712     6A    -11.275286
       7A    -11.271496     8A    -11.271372     9A    -11.268663
      10A    -11.262744    11A    -11.262595    12A     -9.168195
      13A     -6.853276    14A     -6.852804    15A     -6.852568
      16A     -1.451361    17A     -1.337323    18A     -1.231800
      19A     -1.182718    20A     -1.058689    21A     -1.044479
      22A     -0.960106    23A     -0.895243    24A     -0.856524
      25A     -0.814312    26A     -0.749509    27A     -0.712068
      28A     -0.676897    29A     -0.671971    30A     -0.656480
      31A     -0.642008    32A     -0.621832    33A     -0.616621
      34A     -0.606446    35A     -0.567927    36A     -0.548697
      37A     -0.533656    38A     -0.524023    39A     -0.502145
      40A     -0.498305    41A     -0.474527    42A     -0.466180
      43A     -0.434410    44A     -0.369172    45A     -0.363559

  @DF-RHF Final Energy:  -872.15444307385337

   => Energetics <=

    Nuclear Repulsion Energy =            742.0077749208625164
    One-Electron Energy =               -2669.1340293580119578
    Two-Electron Energy =                1054.9718113632959557
    Total Energy =                       -872.1544430738533720
  Basis Set: (AUG-CC-PVTZ AUX)
    Blend: AUG-CC-PVTZ-RI
    Molecular point group: c1

    Geometry (in Angstrom), charge = 0, multiplicity = 1:

       Center              X                  Y                   Z               Mass
    ------------   -----------------  -----------------  -----------------  -----------------
         S           -1.250219735428    -0.392381731288    -0.315885909549    31.972071174400
         O           -1.692209735428     0.414148268712    -1.452557909549    15.994914619570
         O           -1.514009735428    -1.825657731288    -0.197120909549    15.994914619570
         N           -1.946031735428     0.297152568712     1.061867490451    14.003074004430
         C            0.510454264572    -0.158640731288    -0.164211909549    12.000000000000
         C            1.262969264572    -1.103859731288     0.539159090451    12.000000000000
         C            1.098282264572     0.993375268712    -0.693353909549    12.000000000000
         C            2.631657264572    -0.890940731288     0.703374090451    12.000000000000
         C            2.469128264572     1.193140268712    -0.519431909549    12.000000000000
         C            3.232822264572     0.259763268712     0.185223090451    12.000000000000
         C           -1.738413735428     1.734874268712     1.246368090451    12.000000000000
         H            0.785942264572    -2.007672731288     0.908930090451     1.007825032230
         H            0.495158264572     1.691319268712    -1.267293909549     1.007825032230
         H           -1.742392735428    -0.282843731288     1.859190090451     1.007825032230
         H            3.230682264572    -1.625281731288     1.236045090451     1.007825032230
         H            2.940663264572     2.079804268712    -0.935745909549     1.007825032230
         H            4.300235264572     0.419477268712     0.315445090451     1.007825032230
         H           -2.371020735428     2.039975268712     2.081595090451     1.007825032230
         H           -2.076473735428     2.250829268712     0.347723090451     1.007825032230
         H           -0.697912735428     2.011564268712     1.458199090451     1.007825032230

  Basis Set: AUG-CC-PVTZ
    Blend: AUG-CC-PVTZ
  Basis Set: (AUG-CC-PVTZ AUX)
    Blend: AUG-CC-PVTZ-JKFIT
	 Reference Energy          =    -872.1544430738533720 [Eh]
	 Singles Energy            =      -0.0000000000000000 [Eh]
	 Same-Spin Energy          =      -0.5645712430010650 [Eh]
	 Opposite-Spin Energy      =      -1.6949227875126240 [Eh]
	 Correlation Energy        =      -2.2594940305136890 [Eh]
	 Total Energy              =    -874.4139371043670508 [Eh]

	 ================> DF-SCS-MP2 Energies <==================
	-----------------------------------------------------------
	 SCS Same-Spin Scale       =       0.3333333333333333 [-]
	 SCS Opposite-Spin Scale   =       1.2000000000000000 [-]
	 SCS Same-Spin Energy      =      -0.1881904143336883 [Eh]
	 SCS Opposite-Spin Energy  =      -2.0339073450151486 [Eh]
	 SCS Correlation Energy    =      -2.2220977593488369 [Eh]
	 SCS Total Energy          =    -874.3765408332021707 [Eh]
	-----------------------------------------------------------

  Dipole Moment: [D]
     X:     3.8153      Y:     2.4873      Z:     3.5005     Total:     5.7443

*** Psi4 exiting successfully. Buy a developer a beer!
