                               Psi4 1.3.2 release

  ==> Input File <==

--------------------------------------------------------------------------
#psi4
#
memory 32 gb

molecule  {
0 1
  O       -1.5316190     1.0321650     0.0948010
  O        1.4540340    -1.7305240     0.0480640
  N        0.6983760     0.4234810    -0.0768570
  C       -0.6387160     0.0037620    -0.0484130
  C        0.9338190     1.8669200    -0.1039590
  C        1.7048000    -0.5240370     0.0213290
  C       -1.2931220    -1.2007390    -0.1216240
  C       -2.6835930    -0.8875750    -0.0182810
  C        3.1317020    -0.0168610     0.0830780
  C       -2.7843930     0.4654540     0.1083230
  H        0.3040530     2.3204240    -0.8701650
  H        1.9743570     2.0597570    -0.3491110
  H        0.6954160     2.3257170     0.8600750
  H       -0.8317010    -2.1668680    -0.2305290
  H       -3.4990646    -1.6021290     0.1109047
  H        3.2875770     0.6796840     0.9111130
  H        3.4247710     0.4818120    -0.8454740
  H        3.7649310    -0.8918910     0.2258400
  H       -3.6032960     1.1610050     0.2088840
units angstrom
no_reorient  #important for SAPT in psi4, default
symmetry c1  #important for SAPT in psi4, default
}

set PROPERTIES_ORIGIN ["COM"]
properties('MP2/aug-cc-pvtz', properties = ['dipole'])
--------------------------------------------------------------------------

    Molecular point group: c1
  Charge       = 0
  Multiplicity = 1
  Basis Set: AUG-CC-PVTZ
    Blend: AUG-CC-PVTZ
  Basis Set: (AUG-CC-PVTZ AUX)
    Blend: AUG-CC-PVTZ-JKFIT

    Orbital Energies [Eh]
    ---------------------

    Doubly Occupied:

       1A    -20.625072     2A    -20.528533     3A    -15.617426
       4A    -11.365612     5A    -11.332512     6A    -11.280960
       7A    -11.279077     8A    -11.246831     9A    -11.230137
      10A    -11.215514    11A     -1.462358    12A     -1.384956
      13A     -1.262709    14A     -1.080139    15A     -1.032024
      16A     -0.990668    17A     -0.955022    18A     -0.835925
      19A     -0.794486    20A     -0.750287    21A     -0.702766
      22A     -0.679958    23A     -0.672653    24A     -0.649217
      25A     -0.623178    26A     -0.593240    27A     -0.589143
      28A     -0.587844    29A     -0.565711    30A     -0.562848
      31A     -0.549870    32A     -0.540589    33A     -0.527045
      34A     -0.434684    35A     -0.431425    36A     -0.391458
      37A     -0.287737

  @DF-RHF Final Energy:  -474.63307816261590

   => Energetics <=

    Nuclear Repulsion Energy =            527.9533549721620602
    One-Electron Energy =               -1693.8536336071360893
    Two-Electron Energy =                 691.2672004723581267
    Total Energy =                       -474.6330781626159023
  Basis Set: (AUG-CC-PVTZ AUX)
    Blend: AUG-CC-PVTZ-RI
    Molecular point group: c1

    Geometry (in Angstrom), charge = 0, multiplicity = 1:

       Center              X                  Y                   Z               Mass
    ------------   -----------------  -----------------  -----------------  -----------------
         O           -1.492389562197     1.063484413449     0.092816138466    15.994914619570
         O            1.493263437803    -1.699204586551     0.046079138466    15.994914619570
         N            0.737605437803     0.454800413449    -0.078841861534    14.003074004430
         C           -0.599486562197     0.035081413449    -0.050397861534    12.000000000000
         C            0.973048437803     1.898239413449    -0.105943861534    12.000000000000
         C            1.744029437803    -0.492717586551     0.019344138466    12.000000000000
         C           -1.253892562197    -1.169419586551    -0.123608861534    12.000000000000
         C           -2.644363562197    -0.856255586551    -0.020265861534    12.000000000000
         C            3.170931437803     0.014458413449     0.081093138466    12.000000000000
         C           -2.745163562197     0.496773413449     0.106338138466    12.000000000000
         H            0.343282437803     2.351743413449    -0.872149861534     1.007825032230
         H            2.013586437803     2.091076413449    -0.351095861534     1.007825032230
         H            0.734645437803     2.357036413449     0.858090138466     1.007825032230
         H           -0.792471562197    -2.135548586551    -0.232513861534     1.007825032230
         H           -3.459835162197    -1.570809586551     0.108919838466     1.007825032230
         H            3.326806437803     0.711003413449     0.909128138466     1.007825032230
         H            3.464000437803     0.513131413449    -0.847458861534     1.007825032230
         H            3.804160437803    -0.860571586551     0.223855138466     1.007825032230
         H           -3.564066562197     1.192324413449     0.206899138466     1.007825032230

  Basis Set: AUG-CC-PVTZ
    Blend: AUG-CC-PVTZ
  Basis Set: (AUG-CC-PVTZ AUX)
    Blend: AUG-CC-PVTZ-JKFIT
	 Reference Energy          =    -474.6330781626159023 [Eh]
	 Singles Energy            =      -0.0000000000000000 [Eh]
	 Same-Spin Energy          =      -0.4919399772524393 [Eh]
	 Opposite-Spin Energy      =      -1.5283461621041501 [Eh]
	 Correlation Energy        =      -2.0202861393565894 [Eh]
	 Total Energy              =    -476.6533643019724877 [Eh]

	 ================> DF-SCS-MP2 Energies <==================
	-----------------------------------------------------------
	 SCS Same-Spin Scale       =       0.3333333333333333 [-]
	 SCS Opposite-Spin Scale   =       1.2000000000000000 [-]
	 SCS Same-Spin Energy      =      -0.1639799924174798 [Eh]
	 SCS Opposite-Spin Energy  =      -1.8340153945249800 [Eh]
	 SCS Correlation Energy    =      -1.9979953869424598 [Eh]
	 SCS Total Energy          =    -476.6310735495583799 [Eh]
	-----------------------------------------------------------

  Dipole Moment: [D]
     X:     0.6529      Y:     3.2884      Z:    -0.0158     Total:     3.3526

*** Psi4 exiting successfully. Buy a developer a beer!
