                               Psi4 1.3.2 release

  ==> Input File <==

--------------------------------------------------------------------------
#psi4
#
memory 32 gb

molecule  {
0 1
  O       -1.5316190     1.0321650     0.0948010
  O        1.4540340    -1.7305240     0.0480640
  N        0.6983760     0.4234810    -0.0768570
  C       -0.6387160     0.0037620    -0.0484130
  C        0.9338190     1.8669200    -0.1039590
  C        1.7048000    -0.5240370     0.0213290
  C       -1.2931220    -1.2007390    -0.1216240
  C       -2.6835930    -0.8875750    -0.0182810
  C        3.1464102    -0.0261646    -0.1663155
  C       -2.7843930     0.4654540     0.1083230
  H        0.3040530     2.3204240    -0.8701650
  H        1.9743570     2.0597570    -0.3491110
  H        0.6954160     2.3257170     0.8600750
  H       -0.8317010    -2.1668680    -0.2305290
  H       -3.5070380    -1.5886770    -0.0382780
  H        3.2875770     0.6796840     0.9111130
  H        3.4247710     0.4818120    -0.8454740
  H        3.7649310    -0.8918910     0.2258400
  H       -3.6032960     1.1610050     0.2088840
units angstrom
no_reorient  #important for SAPT in psi4, default
symmetry c1  #important for SAPT in psi4, default
}

set PROPERTIES_ORIGIN ["COM"]
properties('MP2/aug-cc-pvtz', properties = ['dipole'])
--------------------------------------------------------------------------

    Molecular point group: c1
  Charge       = 0
  Multiplicity = 1
  Basis Set: AUG-CC-PVTZ
    Blend: AUG-CC-PVTZ
  Basis Set: (AUG-CC-PVTZ AUX)
    Blend: AUG-CC-PVTZ-JKFIT

    Orbital Energies [Eh]
    ---------------------

    Doubly Occupied:

       1A    -20.625242     2A    -20.530875     3A    -15.618224
       4A    -11.371103     5A    -11.332935     6A    -11.281048
       7A    -11.278780     8A    -11.254716     9A    -11.229833
      10A    -11.216362    11A     -1.462568    12A     -1.386582
      13A     -1.263415    14A     -1.080788    15A     -1.034244
      16A     -0.992088    17A     -0.956891    18A     -0.839001
      19A     -0.798071    20A     -0.752920    21A     -0.716331
      22A     -0.695907    23A     -0.673437    24A     -0.648490
      25A     -0.624753    26A     -0.610217    27A     -0.589330
      28A     -0.581468    29A     -0.563980    30A     -0.555470
      31A     -0.545560    32A     -0.540579    33A     -0.496847
      34A     -0.436313    35A     -0.429038    36A     -0.392213
      37A     -0.287995

  @DF-RHF Final Energy:  -474.56439319295782

   => Energetics <=

    Nuclear Repulsion Energy =            527.6975489790620486
    One-Electron Energy =               -1693.1366532940207890
    Two-Electron Energy =                 690.8747111220009174
    Total Energy =                       -474.5643931929578230
  Basis Set: (AUG-CC-PVTZ AUX)
    Blend: AUG-CC-PVTZ-RI
    Molecular point group: c1

    Geometry (in Angstrom), charge = 0, multiplicity = 1:

       Center              X                  Y                   Z               Mass
    ------------   -----------------  -----------------  -----------------  -----------------
         O           -1.493600971485     1.064189746327     0.115417870300    15.994914619570
         O            1.492052028515    -1.698499253673     0.068680870300    15.994914619570
         N            0.736394028515     0.455505746327    -0.056240129700    14.003074004430
         C           -0.600697971485     0.035786746327    -0.027796129700    12.000000000000
         C            0.971837028515     1.898944746327    -0.083342129700    12.000000000000
         C            1.742818028515    -0.492012253673     0.041945870300    12.000000000000
         C           -1.255103971485    -1.168714253673    -0.101007129700    12.000000000000
         C           -2.645574971485    -0.855550253673     0.002335870300    12.000000000000
         C            3.184428228515     0.005860146327    -0.145698629700    12.000000000000
         C           -2.746374971485     0.497478746327     0.128939870300    12.000000000000
         H            0.342071028515     2.352448746327    -0.849548129700     1.007825032230
         H            2.012375028515     2.091781746327    -0.328494129700     1.007825032230
         H            0.733434028515     2.357741746327     0.880691870300     1.007825032230
         H           -0.793682971485    -2.134843253673    -0.209912129700     1.007825032230
         H           -3.469019971485    -1.556652253673    -0.017661129700     1.007825032230
         H            3.325595028515     0.711708746327     0.931729870300     1.007825032230
         H            3.462789028515     0.513836746327    -0.824857129700     1.007825032230
         H            3.802949028515    -0.859866253673     0.246456870300     1.007825032230
         H           -3.565277971485     1.193029746327     0.229500870300     1.007825032230

  Basis Set: AUG-CC-PVTZ
    Blend: AUG-CC-PVTZ
  Basis Set: (AUG-CC-PVTZ AUX)
    Blend: AUG-CC-PVTZ-JKFIT
	 Reference Energy          =    -474.5643931929578230 [Eh]
	 Singles Energy            =      -0.0000000000000000 [Eh]
	 Same-Spin Energy          =      -0.4928203479363436 [Eh]
	 Opposite-Spin Energy      =      -1.5313541095660197 [Eh]
	 Correlation Energy        =      -2.0241744575023635 [Eh]
	 Total Energy              =    -476.5885676504601633 [Eh]

	 ================> DF-SCS-MP2 Energies <==================
	-----------------------------------------------------------
	 SCS Same-Spin Scale       =       0.3333333333333333 [-]
	 SCS Opposite-Spin Scale   =       1.2000000000000000 [-]
	 SCS Same-Spin Energy      =      -0.1642734493121145 [Eh]
	 SCS Opposite-Spin Energy  =      -1.8376249314792235 [Eh]
	 SCS Correlation Energy    =      -2.0018983807913378 [Eh]
	 SCS Total Energy          =    -476.5662915737491403 [Eh]
	-----------------------------------------------------------

  Dipole Moment: [D]
     X:     0.5211      Y:     3.2122      Z:    -0.2002     Total:     3.2604

*** Psi4 exiting successfully. Buy a developer a beer!
