                               Psi4 1.3.2 release

  ==> Input File <==

--------------------------------------------------------------------------
#psi4
#
memory 32 gb

molecule  {
0 1
  O       -1.5316190     1.0321650     0.0948010
  O        1.4540340    -1.7305240     0.0480640
  N        0.6983760     0.4234810    -0.0768570
  C       -0.6387160     0.0037620    -0.0484130
  C        0.9338190     1.8669200    -0.1039590
  C        1.7048000    -0.5240370     0.0213290
  C       -1.2931220    -1.2007390    -0.1216240
  C       -2.6835930    -0.8875750    -0.0182810
  C        3.1375853    -0.0205825    -0.0166794
  C       -2.7843930     0.4654540     0.1083230
  H        0.3040530     2.3204240    -0.8701650
  H        1.9743570     2.0597570    -0.3491110
  H        0.6954160     2.3257170     0.8600750
  H       -0.8317010    -2.1668680    -0.2305290
  H       -3.5070380    -1.5886770    -0.0382780
  H        3.2875770     0.6796840     0.9111130
  H        3.4247710     0.4818120    -0.8454740
  H        3.7649310    -0.8918910     0.2258400
  H       -3.6032960     1.1610050     0.2088840
units angstrom
no_reorient  #important for SAPT in psi4, default
symmetry c1  #important for SAPT in psi4, default
}

set PROPERTIES_ORIGIN ["COM"]
properties('MP2/aug-cc-pvtz', properties = ['dipole'])
--------------------------------------------------------------------------

    Molecular point group: c1
  Charge       = 0
  Multiplicity = 1
  Basis Set: AUG-CC-PVTZ
    Blend: AUG-CC-PVTZ
  Basis Set: (AUG-CC-PVTZ AUX)
    Blend: AUG-CC-PVTZ-JKFIT

    Orbital Energies [Eh]
    ---------------------

    Doubly Occupied:

       1A    -20.624911     2A    -20.528901     3A    -15.617553
       4A    -11.366414     5A    -11.332516     6A    -11.280615
       7A    -11.279002     8A    -11.247883     9A    -11.229436
      10A    -11.215726    11A     -1.462215    12A     -1.385188
      13A     -1.262778    14A     -1.080337    15A     -1.032235
      16A     -0.990806    17A     -0.955235    18A     -0.836464
      19A     -0.795467    20A     -0.751096    21A     -0.703981
      22A     -0.683660    23A     -0.673951    24A     -0.648841
      25A     -0.623513    26A     -0.601097    27A     -0.589320
      28A     -0.585685    29A     -0.563184    30A     -0.560341
      31A     -0.549156    32A     -0.540333    33A     -0.522240
      34A     -0.435204    35A     -0.430859    36A     -0.391899
      37A     -0.287682

  @DF-RHF Final Energy:  -474.62379306895849

   => Energetics <=

    Nuclear Repulsion Energy =            527.9315912148769030
    One-Electron Energy =               -1693.7793252284839127
    Two-Electron Energy =                 691.2239409446483478
    Total Energy =                       -474.6237930689585482
  Basis Set: (AUG-CC-PVTZ AUX)
    Blend: AUG-CC-PVTZ-RI
    Molecular point group: c1

    Geometry (in Angstrom), charge = 0, multiplicity = 1:

       Center              X                  Y                   Z               Mass
    ------------   -----------------  -----------------  -----------------  -----------------
         O           -1.492839456562     1.063708057871     0.102505528715    15.994914619570
         O            1.492813543438    -1.698980942129     0.055768528715    15.994914619570
         N            0.737155543438     0.455024057871    -0.069152471285    14.003074004430
         C           -0.599936456562     0.035305057871    -0.040708471285    12.000000000000
         C            0.972598543438     1.898463057871    -0.096254471285    12.000000000000
         C            1.743579543438    -0.492493942129     0.029033528715    12.000000000000
         C           -1.254342456562    -1.169195942129    -0.113919471285    12.000000000000
         C           -2.644813456562    -0.856031942129    -0.010576471285    12.000000000000
         C            3.176364843438     0.010960557871    -0.008974871285    12.000000000000
         C           -2.745613456562     0.496997057871     0.116027528715    12.000000000000
         H            0.342832543438     2.351967057871    -0.862460471285     1.007825032230
         H            2.013136543438     2.091300057871    -0.341406471285     1.007825032230
         H            0.734195543438     2.357260057871     0.867779528715     1.007825032230
         H           -0.792921456562    -2.135324942129    -0.222824471285     1.007825032230
         H           -3.468258456562    -1.557133942129    -0.030573471285     1.007825032230
         H            3.326356543438     0.711227057871     0.918817528715     1.007825032230
         H            3.463550543438     0.513355057871    -0.837769471285     1.007825032230
         H            3.803710543438    -0.860347942129     0.233544528715     1.007825032230
         H           -3.564516456562     1.192548057871     0.216588528715     1.007825032230

  Basis Set: AUG-CC-PVTZ
    Blend: AUG-CC-PVTZ
  Basis Set: (AUG-CC-PVTZ AUX)
    Blend: AUG-CC-PVTZ-JKFIT
	 Reference Energy          =    -474.6237930689584914 [Eh]
	 Singles Energy            =      -0.0000000000000000 [Eh]
	 Same-Spin Energy          =      -0.4920179223308648 [Eh]
	 Opposite-Spin Energy      =      -1.5286964462714518 [Eh]
	 Correlation Energy        =      -2.0207143686023166 [Eh]
	 Total Energy              =    -476.6445074375608328 [Eh]

	 ================> DF-SCS-MP2 Energies <==================
	-----------------------------------------------------------
	 SCS Same-Spin Scale       =       0.3333333333333333 [-]
	 SCS Opposite-Spin Scale   =       1.2000000000000000 [-]
	 SCS Same-Spin Energy      =      -0.1640059741102882 [Eh]
	 SCS Opposite-Spin Energy  =      -1.8344357355257421 [Eh]
	 SCS Correlation Energy    =      -1.9984417096360303 [Eh]
	 SCS Total Energy          =    -476.6222347785945317 [Eh]
	-----------------------------------------------------------

  Dipole Moment: [D]
     X:     0.6078      Y:     3.2687      Z:    -0.1637     Total:     3.3288

*** Psi4 exiting successfully. Buy a developer a beer!
