                               Psi4 1.3.2 release

  ==> Input File <==

--------------------------------------------------------------------------
#psi4
#
memory 32 gb

molecule  {
0 1
  O       -1.5316190     1.0321650     0.0948010
  O        1.4540340    -1.7305240     0.0480640
  N        0.6983760     0.4234810    -0.0768570
  C       -0.6387160     0.0037620    -0.0484130
  C        0.9338190     1.8669200    -0.1039590
  C        1.7048000    -0.5240370     0.0213290
  C       -1.2931220    -1.2007390    -0.1216240
  C       -2.6835930    -0.8875750    -0.0182810
  C        3.1317020    -0.0168610     0.0830780
  C       -2.7843930     0.4654540     0.1083230
  H        0.3040530     2.3204240    -0.8701650
  H        1.9743570     2.0597570    -0.3491110
  H        0.6954160     2.3257170     0.8600750
  H       -0.8317010    -2.1668680    -0.2305290
  H       -3.5070380    -1.5886770    -0.0382780
  H        3.2875770     0.6796840     0.9111130
  H        3.4247710     0.4818120    -0.8454740
  H        3.7649310    -0.8918910     0.2258400
  H       -3.6082262     1.1698238     0.1093957
units angstrom
no_reorient  #important for SAPT in psi4, default
symmetry c1  #important for SAPT in psi4, default
}

set PROPERTIES_ORIGIN ["COM"]
properties('MP2/aug-cc-pvtz', properties = ['dipole'])
--------------------------------------------------------------------------

    Molecular point group: c1
  Charge       = 0
  Multiplicity = 1
  Basis Set: AUG-CC-PVTZ
    Blend: AUG-CC-PVTZ
  Basis Set: (AUG-CC-PVTZ AUX)
    Blend: AUG-CC-PVTZ-JKFIT

    Orbital Energies [Eh]
    ---------------------

    Doubly Occupied:

       1A    -20.624773     2A    -20.528574     3A    -15.617485
       4A    -11.365653     5A    -11.332609     6A    -11.280708
       7A    -11.279089     8A    -11.246849     9A    -11.229482
      10A    -11.215591    11A     -1.462113    12A     -1.384993
      13A     -1.262735    14A     -1.080291    15A     -1.031990
      16A     -0.990610    17A     -0.954873    18A     -0.836122
      19A     -0.794611    20A     -0.750843    21A     -0.702720
      22A     -0.680040    23A     -0.672656    24A     -0.648537
      25A     -0.622754    26A     -0.593069    27A     -0.589720
      28A     -0.588673    29A     -0.566172    30A     -0.562694
      31A     -0.550355    32A     -0.540431    33A     -0.526926
      34A     -0.434700    35A     -0.431382    36A     -0.391823
      37A     -0.287702

  @DF-RHF Final Energy:  -474.63390720119344

   => Energetics <=

    Nuclear Repulsion Energy =            527.9699539501416439
    One-Electron Energy =               -1693.8870228305177079
    Two-Electron Energy =                 691.2831616791826264
    Total Energy =                       -474.6339072011934377
  Basis Set: (AUG-CC-PVTZ AUX)
    Blend: AUG-CC-PVTZ-RI
    Molecular point group: c1

    Geometry (in Angstrom), charge = 0, multiplicity = 1:

       Center              X                  Y                   Z               Mass
    ------------   -----------------  -----------------  -----------------  -----------------
         O           -1.492296046737     1.063323011662     0.094618316375    15.994914619570
         O            1.493356953263    -1.699365988338     0.047881316375    15.994914619570
         N            0.737698953263     0.454639011662    -0.077039683625    14.003074004430
         C           -0.599393046737     0.034920011662    -0.048595683625    12.000000000000
         C            0.973141953263     1.898078011662    -0.104141683625    12.000000000000
         C            1.744122953263    -0.492878988338     0.021146316375    12.000000000000
         C           -1.253799046737    -1.169580988338    -0.121806683625    12.000000000000
         C           -2.644270046737    -0.856416988338    -0.018463683625    12.000000000000
         C            3.171024953263     0.014297011662     0.082895316375    12.000000000000
         C           -2.745070046737     0.496612011662     0.108140316375    12.000000000000
         H            0.343375953263     2.351582011662    -0.870347683625     1.007825032230
         H            2.013679953263     2.090915011662    -0.349293683625     1.007825032230
         H            0.734738953263     2.356875011662     0.859892316375     1.007825032230
         H           -0.792378046737    -2.135709988338    -0.230711683625     1.007825032230
         H           -3.467715046737    -1.557518988338    -0.038460683625     1.007825032230
         H            3.326899953263     0.710842011662     0.910930316375     1.007825032230
         H            3.464093953263     0.512970011662    -0.845656683625     1.007825032230
         H            3.804253953263    -0.860732988338     0.225657316375     1.007825032230
         H           -3.568903246737     1.200981811662     0.109213016375     1.007825032230

  Basis Set: AUG-CC-PVTZ
    Blend: AUG-CC-PVTZ
  Basis Set: (AUG-CC-PVTZ AUX)
    Blend: AUG-CC-PVTZ-JKFIT
	 Reference Energy          =    -474.6339072011934377 [Eh]
	 Singles Energy            =      -0.0000000000000000 [Eh]
	 Same-Spin Energy          =      -0.4919082871454673 [Eh]
	 Opposite-Spin Energy      =      -1.5282515086872008 [Eh]
	 Correlation Energy        =      -2.0201597958326682 [Eh]
	 Total Energy              =    -476.6540669970261206 [Eh]

	 ================> DF-SCS-MP2 Energies <==================
	-----------------------------------------------------------
	 SCS Same-Spin Scale       =       0.3333333333333333 [-]
	 SCS Opposite-Spin Scale   =       1.2000000000000000 [-]
	 SCS Same-Spin Energy      =      -0.1639694290484891 [Eh]
	 SCS Opposite-Spin Energy  =      -1.8339018104246410 [Eh]
	 SCS Correlation Energy    =      -1.9978712394731302 [Eh]
	 SCS Total Energy          =    -476.6317784406665510 [Eh]
	-----------------------------------------------------------

  Dipole Moment: [D]
     X:     0.6421      Y:     3.2834      Z:    -0.2208     Total:     3.3529

*** Psi4 exiting successfully. Buy a developer a beer!
