                               Psi4 1.3.2 release

  ==> Input File <==

--------------------------------------------------------------------------
#psi4
#
memory 32 gb

molecule  {
0 1
  O       -1.5316190     1.0321650     0.0948010
  O        1.4540340    -1.7305240     0.0480640
  N        0.6983760     0.4234810    -0.0768570
  C       -0.6387160     0.0037620    -0.0484130
  C        0.9338190     1.8669200    -0.1039590
  C        1.7048000    -0.5240370     0.0213290
  C       -1.2931220    -1.2007390    -0.1216240
  C       -2.6835930    -0.8875750    -0.0182810
  C        3.1317020    -0.0168610     0.0830780
  C       -2.7843930     0.4654540     0.1083230
  H        0.3040530     2.3204240    -0.8701650
  H        1.9743570     2.0597570    -0.3491110
  H        0.6954160     2.3257170     0.8600750
  H       -0.8157736    -2.1933204     0.0678777
  H       -3.5070380    -1.5886770    -0.0382780
  H        3.2875770     0.6796840     0.9111130
  H        3.4247710     0.4818120    -0.8454740
  H        3.7649310    -0.8918910     0.2258400
  H       -3.6032960     1.1610050     0.2088840
units angstrom
no_reorient  #important for SAPT in psi4, default
symmetry c1  #important for SAPT in psi4, default
}

set PROPERTIES_ORIGIN ["COM"]
properties('MP2/aug-cc-pvtz', properties = ['dipole'])
--------------------------------------------------------------------------

    Molecular point group: c1
  Charge       = 0
  Multiplicity = 1
  Basis Set: AUG-CC-PVTZ
    Blend: AUG-CC-PVTZ
  Basis Set: (AUG-CC-PVTZ AUX)
    Blend: AUG-CC-PVTZ-JKFIT

    Orbital Energies [Eh]
    ---------------------

    Doubly Occupied:

       1A    -20.625426     2A    -20.528959     3A    -15.618135
       4A    -11.366111     5A    -11.334015     6A    -11.280512
       7A    -11.279503     8A    -11.247129     9A    -11.229023
      10A    -11.217722    11A     -1.462794    12A     -1.385466
      13A     -1.263342    14A     -1.079696    15A     -1.032382
      16A     -0.990964    17A     -0.955176    18A     -0.835491
      19A     -0.794820    20A     -0.746435    21A     -0.703283
      22A     -0.679838    23A     -0.673912    24A     -0.648771
      25A     -0.623372    26A     -0.593217    27A     -0.590160
      28A     -0.588774    29A     -0.566467    30A     -0.554372
      31A     -0.550516    32A     -0.539237    33A     -0.527438
      34A     -0.434191    35A     -0.431873    36A     -0.390783
      37A     -0.287983

  @DF-RHF Final Energy:  -474.62866663874945

   => Energetics <=

    Nuclear Repulsion Energy =            527.8600144097971452
    One-Electron Energy =               -1693.6627873841555356
    Two-Electron Energy =                 691.1741063356090535
    Total Energy =                       -474.6286666387494506
  Basis Set: (AUG-CC-PVTZ AUX)
    Blend: AUG-CC-PVTZ-RI
    Molecular point group: c1

    Geometry (in Angstrom), charge = 0, multiplicity = 1:

       Center              X                  Y                   Z               Mass
    ------------   -----------------  -----------------  -----------------  -----------------
         O           -1.492447206727     1.063578630442     0.091734676630    15.994914619570
         O            1.493205793273    -1.699110369558     0.044997676630    15.994914619570
         N            0.737547793273     0.454894630442    -0.079923323370    14.003074004430
         C           -0.599544206727     0.035175630442    -0.051479323370    12.000000000000
         C            0.972990793273     1.898333630442    -0.107025323370    12.000000000000
         C            1.743971793273    -0.492623369558     0.018262676630    12.000000000000
         C           -1.253950206727    -1.169325369558    -0.124690323370    12.000000000000
         C           -2.644421206727    -0.856161369558    -0.021347323370    12.000000000000
         C            3.170873793273     0.014552630442     0.080011676630    12.000000000000
         C           -2.745221206727     0.496867630442     0.105256676630    12.000000000000
         H            0.343224793273     2.351837630442    -0.873231323370     1.007825032230
         H            2.013528793273     2.091170630442    -0.352177323370     1.007825032230
         H            0.734587793273     2.357130630442     0.857008676630     1.007825032230
         H           -0.776601806727    -2.161906769558     0.064811376630     1.007825032230
         H           -3.467866206727    -1.557263369558    -0.041344323370     1.007825032230
         H            3.326748793273     0.711097630442     0.908046676630     1.007825032230
         H            3.463942793273     0.513225630442    -0.848540323370     1.007825032230
         H            3.804102793273    -0.860477369558     0.222773676630     1.007825032230
         H           -3.564124206727     1.192418630442     0.205817676630     1.007825032230

  Basis Set: AUG-CC-PVTZ
    Blend: AUG-CC-PVTZ
  Basis Set: (AUG-CC-PVTZ AUX)
    Blend: AUG-CC-PVTZ-JKFIT
	 Reference Energy          =    -474.6286666387494506 [Eh]
	 Singles Energy            =      -0.0000000000000000 [Eh]
	 Same-Spin Energy          =      -0.4921459219068550 [Eh]
	 Opposite-Spin Energy      =      -1.5287969891326356 [Eh]
	 Correlation Energy        =      -2.0209429110394908 [Eh]
	 Total Energy              =    -476.6496095497889200 [Eh]

	 ================> DF-SCS-MP2 Energies <==================
	-----------------------------------------------------------
	 SCS Same-Spin Scale       =       0.3333333333333333 [-]
	 SCS Opposite-Spin Scale   =       1.2000000000000000 [-]
	 SCS Same-Spin Energy      =      -0.1640486406356183 [Eh]
	 SCS Opposite-Spin Energy  =      -1.8345563869591626 [Eh]
	 SCS Correlation Energy    =      -1.9986050275947809 [Eh]
	 SCS Total Energy          =    -476.6272716663442566 [Eh]
	-----------------------------------------------------------

  Dipole Moment: [D]
     X:     0.6569      Y:     3.3217      Z:     0.1150     Total:     3.3880

*** Psi4 exiting successfully. Buy a developer a beer!
