                               Psi4 1.3.2 release

  ==> Input File <==

--------------------------------------------------------------------------
#psi4
#
memory 32 gb

molecule  {
0 1
  O       -1.5316190     1.0321650     0.0948010
  O        1.4540340    -1.7305240     0.0480640
  N        0.6983760     0.4234810    -0.0768570
  C       -0.6387160     0.0037620    -0.0484130
  C        0.9338190     1.8669200    -0.1039590
  C        1.7048000    -0.5240370     0.0213290
  C       -1.2931220    -1.2007390    -0.1216240
  C       -2.6835930    -0.8875750    -0.0182810
  C        3.1346436    -0.0187217     0.0331993
  C       -2.7843930     0.4654540     0.1083230
  H        0.3040530     2.3204240    -0.8701650
  H        1.9743570     2.0597570    -0.3491110
  H        0.6954160     2.3257170     0.8600750
  H       -0.8317010    -2.1668680    -0.2305290
  H       -3.5070380    -1.5886770    -0.0382780
  H        3.2875770     0.6796840     0.9111130
  H        3.4247710     0.4818120    -0.8454740
  H        3.7649310    -0.8918910     0.2258400
  H       -3.6032960     1.1610050     0.2088840
units angstrom
no_reorient  #important for SAPT in psi4, default
symmetry c1  #important for SAPT in psi4, default
}

set PROPERTIES_ORIGIN ["COM"]
properties('MP2/aug-cc-pvtz', properties = ['dipole'])
--------------------------------------------------------------------------

    Molecular point group: c1
  Charge       = 0
  Multiplicity = 1
  Basis Set: AUG-CC-PVTZ
    Blend: AUG-CC-PVTZ
  Basis Set: (AUG-CC-PVTZ AUX)
    Blend: AUG-CC-PVTZ-JKFIT

    Orbital Energies [Eh]
    ---------------------

    Doubly Occupied:

       1A    -20.624862     2A    -20.528605     3A    -15.617446
       4A    -11.365764     5A    -11.332473     6A    -11.280530
       7A    -11.279036     8A    -11.246994     9A    -11.229365
      10A    -11.215596    11A     -1.462161    12A     -1.384986
      13A     -1.262690    14A     -1.080255    15A     -1.032028
      16A     -0.990672    17A     -0.955015    18A     -0.836186
      19A     -0.795138    20A     -0.750890    21A     -0.703109
      22A     -0.680223    23A     -0.673846    24A     -0.648976
      25A     -0.623018    26A     -0.596426    27A     -0.589311
      28A     -0.587503    29A     -0.563848    30A     -0.562732
      31A     -0.549820    32A     -0.540424    33A     -0.526288
      34A     -0.434908    35A     -0.431164    36A     -0.391852
      37A     -0.287620

  @DF-RHF Final Energy:  -474.63177967070044

   => Energetics <=

    Nuclear Repulsion Energy =            527.9707675451709292
    One-Electron Energy =               -1693.8815749895647969
    Two-Electron Energy =                 691.2790277736934286
    Total Energy =                       -474.6317796707004391
  Basis Set: (AUG-CC-PVTZ AUX)
    Blend: AUG-CC-PVTZ-RI
    Molecular point group: c1

    Geometry (in Angstrom), charge = 0, multiplicity = 1:

       Center              X                  Y                   Z               Mass
    ------------   -----------------  -----------------  -----------------  -----------------
         O           -1.492585612501     1.063547486423     0.098201414853    15.994914619570
         O            1.493067387499    -1.699141513577     0.051464414853    15.994914619570
         N            0.737409387499     0.454863486423    -0.073456585147    14.003074004430
         C           -0.599682612501     0.035144486423    -0.045012585147    12.000000000000
         C            0.972852387499     1.898302486423    -0.100558585147    12.000000000000
         C            1.743833387499    -0.492654513577     0.024729414853    12.000000000000
         C           -1.254088612501    -1.169356513577    -0.118223585147    12.000000000000
         C           -2.644559612501    -0.856192513577    -0.014880585147    12.000000000000
         C            3.173676987499     0.012660786423     0.036599714853    12.000000000000
         C           -2.745359612501     0.496836486423     0.111723414853    12.000000000000
         H            0.343086387499     2.351806486423    -0.866764585147     1.007825032230
         H            2.013390387499     2.091139486423    -0.345710585147     1.007825032230
         H            0.734449387499     2.357099486423     0.863475414853     1.007825032230
         H           -0.792667612501    -2.135485513577    -0.227128585147     1.007825032230
         H           -3.468004612501    -1.557294513577    -0.034877585147     1.007825032230
         H            3.326610387499     0.711066486423     0.914513414853     1.007825032230
         H            3.463804387499     0.513194486423    -0.842073585147     1.007825032230
         H            3.803964387499    -0.860508513577     0.229240414853     1.007825032230
         H           -3.564262612501     1.192387486423     0.212284414853     1.007825032230

  Basis Set: AUG-CC-PVTZ
    Blend: AUG-CC-PVTZ
  Basis Set: (AUG-CC-PVTZ AUX)
    Blend: AUG-CC-PVTZ-JKFIT
	 Reference Energy          =    -474.6317796707004391 [Eh]
	 Singles Energy            =      -0.0000000000000000 [Eh]
	 Same-Spin Energy          =      -0.4919059548417100 [Eh]
	 Opposite-Spin Energy      =      -1.5283223283596576 [Eh]
	 Correlation Energy        =      -2.0202282832013676 [Eh]
	 Total Energy              =    -476.6520079539018298 [Eh]

	 ================> DF-SCS-MP2 Energies <==================
	-----------------------------------------------------------
	 SCS Same-Spin Scale       =       0.3333333333333333 [-]
	 SCS Opposite-Spin Scale   =       1.2000000000000000 [-]
	 SCS Same-Spin Energy      =      -0.1639686516139033 [Eh]
	 SCS Opposite-Spin Energy  =      -1.8339867940315890 [Eh]
	 SCS Correlation Energy    =      -1.9979554456454924 [Eh]
	 SCS Total Energy          =    -476.6297351163459552 [Eh]
	-----------------------------------------------------------

  Dipole Moment: [D]
     X:     0.6238      Y:     3.2791      Z:    -0.1477     Total:     3.3412

*** Psi4 exiting successfully. Buy a developer a beer!
