                               Psi4 1.3.2 release

  ==> Input File <==

--------------------------------------------------------------------------
#psi4
#
memory 32 gb

molecule  {
0 1
  O       -1.5316190     1.0321650     0.0948010
  O        1.4540340    -1.7305240     0.0480640
  N        0.6983760     0.4234810    -0.0768570
  C       -0.6387160     0.0037620    -0.0484130
  C        0.9338190     1.8669200    -0.1039590
  C        1.7048000    -0.5240370     0.0213290
  C       -1.2931220    -1.2007390    -0.1216240
  C       -2.6835930    -0.8875750    -0.0182810
  C        3.1317020    -0.0168610     0.0830780
  C       -2.7843930     0.4654540     0.1083230
  H        0.3040530     2.3204240    -0.8701650
  H        1.9743570     2.0597570    -0.3491110
  H        0.6954160     2.3257170     0.8600750
  H       -0.8317010    -2.1668680    -0.2305290
  H       -3.5043802    -1.5931610     0.0114496
  H        3.2875770     0.6796840     0.9111130
  H        3.4247710     0.4818120    -0.8454740
  H        3.7649310    -0.8918910     0.2258400
  H       -3.6032960     1.1610050     0.2088840
units angstrom
no_reorient  #important for SAPT in psi4, default
symmetry c1  #important for SAPT in psi4, default
}

set PROPERTIES_ORIGIN ["COM"]
properties('MP2/aug-cc-pvtz', properties = ['dipole'])
--------------------------------------------------------------------------

    Molecular point group: c1
  Charge       = 0
  Multiplicity = 1
  Basis Set: AUG-CC-PVTZ
    Blend: AUG-CC-PVTZ
  Basis Set: (AUG-CC-PVTZ AUX)
    Blend: AUG-CC-PVTZ-JKFIT

    Orbital Energies [Eh]
    ---------------------

    Doubly Occupied:

       1A    -20.624869     2A    -20.528498     3A    -15.617397
       4A    -11.365581     5A    -11.332478     6A    -11.280537
       7A    -11.279044     8A    -11.246803     9A    -11.229408
      10A    -11.215500    11A     -1.462164    12A     -1.384922
      13A     -1.262665    14A     -1.080197    15A     -1.031986
      16A     -0.990650    17A     -0.954952    18A     -0.836085
      19A     -0.794957    20A     -0.750750    21A     -0.702852
      22A     -0.679866    23A     -0.672804    24A     -0.649086
      25A     -0.622890    26A     -0.593070    27A     -0.589738
      28A     -0.588393    29A     -0.566103    30A     -0.562801
      31A     -0.550353    32A     -0.540566    33A     -0.527045
      34A     -0.434636    35A     -0.431395    36A     -0.391769
      37A     -0.287604

  @DF-RHF Final Energy:  -474.63427647649746

   => Energetics <=

    Nuclear Repulsion Energy =            527.9857192665704133
    One-Electron Energy =               -1693.9191660032277014
    Two-Electron Energy =                 691.2991702601598263
    Total Energy =                       -474.6342764764974618
  Basis Set: (AUG-CC-PVTZ AUX)
    Blend: AUG-CC-PVTZ-RI
    Molecular point group: c1

    Geometry (in Angstrom), charge = 0, multiplicity = 1:

       Center              X                  Y                   Z               Mass
    ------------   -----------------  -----------------  -----------------  -----------------
         O           -1.492351038779     1.063419420219     0.093536913241    15.994914619570
         O            1.493301961221    -1.699269579781     0.046799913241    15.994914619570
         N            0.737643961221     0.454735420219    -0.078121086759    14.003074004430
         C           -0.599448038779     0.035016420219    -0.049677086759    12.000000000000
         C            0.973086961221     1.898174420219    -0.105223086759    12.000000000000
         C            1.744067961221    -0.492782579781     0.020064913241    12.000000000000
         C           -1.253854038779    -1.169484579781    -0.122888086759    12.000000000000
         C           -2.644325038779    -0.856320579781    -0.019545086759    12.000000000000
         C            3.170969961221     0.014393420219     0.081813913241    12.000000000000
         C           -2.745125038779     0.496708420219     0.107058913241    12.000000000000
         H            0.343320961221     2.351678420219    -0.871429086759     1.007825032230
         H            2.013624961221     2.091011420219    -0.350375086759     1.007825032230
         H            0.734683961221     2.356971420219     0.858810913241     1.007825032230
         H           -0.792433038779    -2.135613579781    -0.231793086759     1.007825032230
         H           -3.465112238779    -1.561906579781     0.010185513241     1.007825032230
         H            3.326844961221     0.710938420219     0.909848913241     1.007825032230
         H            3.464038961221     0.513066420219    -0.846738086759     1.007825032230
         H            3.804198961221    -0.860636579781     0.224575913241     1.007825032230
         H           -3.564028038779     1.192259420219     0.207619913241     1.007825032230

  Basis Set: AUG-CC-PVTZ
    Blend: AUG-CC-PVTZ
  Basis Set: (AUG-CC-PVTZ AUX)
    Blend: AUG-CC-PVTZ-JKFIT
	 Reference Energy          =    -474.6342764764974618 [Eh]
	 Singles Energy            =      -0.0000000000000000 [Eh]
	 Same-Spin Energy          =      -0.4918762489986705 [Eh]
	 Opposite-Spin Energy      =      -1.5281953242075534 [Eh]
	 Correlation Energy        =      -2.0200715732062240 [Eh]
	 Total Energy              =    -476.6543480497036853 [Eh]

	 ================> DF-SCS-MP2 Energies <==================
	-----------------------------------------------------------
	 SCS Same-Spin Scale       =       0.3333333333333333 [-]
	 SCS Opposite-Spin Scale   =       1.2000000000000000 [-]
	 SCS Same-Spin Energy      =      -0.1639587496662235 [Eh]
	 SCS Opposite-Spin Energy  =      -1.8338343890490640 [Eh]
	 SCS Correlation Energy    =      -1.9977931387152874 [Eh]
	 SCS Total Energy          =    -476.6320696152127425 [Eh]
	-----------------------------------------------------------

  Dipole Moment: [D]
     X:     0.6369      Y:     3.2828      Z:    -0.0923     Total:     3.3452

*** Psi4 exiting successfully. Buy a developer a beer!
