                               Psi4 1.3.2 release

  ==> Input File <==

--------------------------------------------------------------------------
#psi4
#
memory 32 gb

molecule  {
0 1
  O       -1.5316190     1.0321650     0.0948010
  O        1.4540340    -1.7305240     0.0480640
  N        0.6983760     0.4234810    -0.0768570
  C       -0.6387160     0.0037620    -0.0484130
  C        0.9338190     1.8669200    -0.1039590
  C        1.7048000    -0.5240370     0.0213290
  C       -1.2931220    -1.2007390    -0.1216240
  C       -2.6835930    -0.8875750    -0.0182810
  C        3.1317020    -0.0168610     0.0830780
  C       -2.7843930     0.4654540     0.1083230
  H        0.3040530     2.3204240    -0.8701650
  H        1.9743570     2.0597570    -0.3491110
  H        0.6954160     2.3257170     0.8600750
  H       -0.8290464    -2.1712767    -0.1807945
  H       -3.5070380    -1.5886770    -0.0382780
  H        3.2875770     0.6796840     0.9111130
  H        3.4247710     0.4818120    -0.8454740
  H        3.7649310    -0.8918910     0.2258400
  H       -3.6032960     1.1610050     0.2088840
units angstrom
no_reorient  #important for SAPT in psi4, default
symmetry c1  #important for SAPT in psi4, default
}

set PROPERTIES_ORIGIN ["COM"]
properties('MP2/aug-cc-pvtz', properties = ['dipole'])
--------------------------------------------------------------------------

    Molecular point group: c1
  Charge       = 0
  Multiplicity = 1
  Basis Set: AUG-CC-PVTZ
    Blend: AUG-CC-PVTZ
  Basis Set: (AUG-CC-PVTZ AUX)
    Blend: AUG-CC-PVTZ-JKFIT

    Orbital Energies [Eh]
    ---------------------

    Doubly Occupied:

       1A    -20.624878     2A    -20.528570     3A    -15.617431
       4A    -11.365648     5A    -11.332545     6A    -11.280471
       7A    -11.279070     8A    -11.246833     9A    -11.229294
      10A    -11.215489    11A     -1.462172    12A     -1.385003
      13A     -1.262707    14A     -1.080176    15A     -1.032019
      16A     -0.990668    17A     -0.954961    18A     -0.836093
      19A     -0.795010    20A     -0.750666    21A     -0.702909
      22A     -0.679777    23A     -0.673020    24A     -0.649073
      25A     -0.622847    26A     -0.592936    27A     -0.590056
      28A     -0.588508    29A     -0.566178    30A     -0.562471
      31A     -0.550376    32A     -0.540483    33A     -0.527138
      34A     -0.434397    35A     -0.431648    36A     -0.391841
      37A     -0.287613

  @DF-RHF Final Energy:  -474.63430217200158

   => Energetics <=

    Nuclear Repulsion Energy =            527.9916082385979053
    One-Electron Energy =               -1693.9298715241029640
    Two-Electron Energy =                 691.3039611135034193
    Total Energy =                       -474.6343021720015258
  Basis Set: (AUG-CC-PVTZ AUX)
    Blend: AUG-CC-PVTZ-RI
    Molecular point group: c1

    Geometry (in Angstrom), charge = 0, multiplicity = 1:

       Center              X                  Y                   Z               Mass
    ------------   -----------------  -----------------  -----------------  -----------------
         O           -1.492351015588     1.063418874502     0.093536863236    15.994914619570
         O            1.493301984412    -1.699270125498     0.046799863236    15.994914619570
         N            0.737643984412     0.454734874502    -0.078121136764    14.003074004430
         C           -0.599448015588     0.035015874502    -0.049677136764    12.000000000000
         C            0.973086984412     1.898173874502    -0.105223136764    12.000000000000
         C            1.744067984412    -0.492783125498     0.020064863236    12.000000000000
         C           -1.253854015588    -1.169485125498    -0.122888136764    12.000000000000
         C           -2.644325015588    -0.856321125498    -0.019545136764    12.000000000000
         C            3.170969984412     0.014392874502     0.081813863236    12.000000000000
         C           -2.745125015588     0.496707874502     0.107058863236    12.000000000000
         H            0.343320984412     2.351677874502    -0.871429136764     1.007825032230
         H            2.013624984412     2.091010874502    -0.350375136764     1.007825032230
         H            0.734683984412     2.356970874502     0.858810863236     1.007825032230
         H           -0.789778415588    -2.140022825498    -0.182058636764     1.007825032230
         H           -3.467770015588    -1.557423125498    -0.039542136764     1.007825032230
         H            3.326844984412     0.710937874502     0.909848863236     1.007825032230
         H            3.464038984412     0.513065874502    -0.846738136764     1.007825032230
         H            3.804198984412    -0.860637125498     0.224575863236     1.007825032230
         H           -3.564028015588     1.192258874502     0.207619863236     1.007825032230

  Basis Set: AUG-CC-PVTZ
    Blend: AUG-CC-PVTZ
  Basis Set: (AUG-CC-PVTZ AUX)
    Blend: AUG-CC-PVTZ-JKFIT
	 Reference Energy          =    -474.6343021720015827 [Eh]
	 Singles Energy            =      -0.0000000000000000 [Eh]
	 Same-Spin Energy          =      -0.4918726604442673 [Eh]
	 Opposite-Spin Energy      =      -1.5281846453933614 [Eh]
	 Correlation Energy        =      -2.0200573058376285 [Eh]
	 Total Energy              =    -476.6543594778391935 [Eh]

	 ================> DF-SCS-MP2 Energies <==================
	-----------------------------------------------------------
	 SCS Same-Spin Scale       =       0.3333333333333333 [-]
	 SCS Opposite-Spin Scale   =       1.2000000000000000 [-]
	 SCS Same-Spin Energy      =      -0.1639575534814224 [Eh]
	 SCS Opposite-Spin Energy  =      -1.8338215744720336 [Eh]
	 SCS Correlation Energy    =      -1.9977791279534560 [Eh]
	 SCS Total Energy          =    -476.6320812999550185 [Eh]
	-----------------------------------------------------------

  Dipole Moment: [D]
     X:     0.6365      Y:     3.2841      Z:    -0.0899     Total:     3.3464

*** Psi4 exiting successfully. Buy a developer a beer!
