                               Psi4 1.3.2 release

  ==> Input File <==

--------------------------------------------------------------------------
#psi4
#
memory 32 gb

molecule  {
0 1
  O       -1.5316190     1.0321650     0.0948010
  O        1.4540340    -1.7305240     0.0480640
  N        0.6983760     0.4234810    -0.0768570
  C       -0.6387160     0.0037620    -0.0484130
  C        0.9338190     1.8669200    -0.1039590
  C        1.7048000    -0.5240370     0.0213290
  C       -1.2931220    -1.2007390    -0.1216240
  C       -2.6835930    -0.8875750    -0.0182810
  C        3.1317020    -0.0168610     0.0830780
  C       -2.7843930     0.4654540     0.1083230
  H        0.3040530     2.3204240    -0.8701650
  H        1.9743570     2.0597570    -0.3491110
  H        0.6954160     2.3257170     0.8600750
  H       -0.8317010    -2.1668680    -0.2305290
  H       -3.5070380    -1.5886770    -0.0382780
  H        3.2875770     0.6796840     0.9111130
  H        3.4247710     0.4818120    -0.8454740
  H        3.7649310    -0.8918910     0.2258400
  H       -3.6057611     1.1654144     0.1591398
units angstrom
no_reorient  #important for SAPT in psi4, default
symmetry c1  #important for SAPT in psi4, default
}

set PROPERTIES_ORIGIN ["COM"]
properties('MP2/aug-cc-pvtz', properties = ['dipole'])
--------------------------------------------------------------------------

    Molecular point group: c1
  Charge       = 0
  Multiplicity = 1
  Basis Set: AUG-CC-PVTZ
    Blend: AUG-CC-PVTZ
  Basis Set: (AUG-CC-PVTZ AUX)
    Blend: AUG-CC-PVTZ-JKFIT

    Orbital Energies [Eh]
    ---------------------

    Doubly Occupied:

       1A    -20.624816     2A    -20.528514     3A    -15.617420
       4A    -11.365597     5A    -11.332504     6A    -11.280528
       7A    -11.279057     8A    -11.246812     9A    -11.229366
      10A    -11.215529    11A     -1.462125    12A     -1.384937
      13A     -1.262680    14A     -1.080227    15A     -1.031982
      16A     -0.990638    17A     -0.954924    18A     -0.836111
      19A     -0.794911    20A     -0.750816    21A     -0.702817
      22A     -0.679908    23A     -0.672750    24A     -0.648957
      25A     -0.622806    26A     -0.592991    27A     -0.589854
      28A     -0.588578    29A     -0.566157    30A     -0.562756
      31A     -0.550343    32A     -0.540569    33A     -0.526987
      34A     -0.434652    35A     -0.431372    36A     -0.391823
      37A     -0.287624

  @DF-RHF Final Energy:  -474.63428795756721

   => Energetics <=

    Nuclear Repulsion Energy =            527.9839981382501719
    One-Electron Energy =               -1693.9156988851923415
    Two-Electron Energy =                 691.2974127893749028
    Total Energy =                       -474.6342879575672669
  Basis Set: (AUG-CC-PVTZ AUX)
    Blend: AUG-CC-PVTZ-RI
    Molecular point group: c1

    Geometry (in Angstrom), charge = 0, multiplicity = 1:

       Center              X                  Y                   Z               Mass
    ------------   -----------------  -----------------  -----------------  -----------------
         O           -1.492313911903     1.063354967633     0.094257809046    15.994914619570
         O            1.493339088097    -1.699334032367     0.047520809046    15.994914619570
         N            0.737681088097     0.454670967633    -0.077400190954    14.003074004430
         C           -0.599410911903     0.034951967633    -0.048956190954    12.000000000000
         C            0.973124088097     1.898109967633    -0.104502190954    12.000000000000
         C            1.744105088097    -0.492847032367     0.020785809046    12.000000000000
         C           -1.253816911903    -1.169549032367    -0.122167190954    12.000000000000
         C           -2.644287911903    -0.856385032367    -0.018824190954    12.000000000000
         C            3.171007088097     0.014328967633     0.082534809046    12.000000000000
         C           -2.745087911903     0.496643967633     0.107779809046    12.000000000000
         H            0.343358088097     2.351613967633    -0.870708190954     1.007825032230
         H            2.013662088097     2.090946967633    -0.349654190954     1.007825032230
         H            0.734721088097     2.356906967633     0.859531809046     1.007825032230
         H           -0.792395911903    -2.135678032367    -0.231072190954     1.007825032230
         H           -3.467732911903    -1.557487032367    -0.038821190954     1.007825032230
         H            3.326882088097     0.710873967633     0.910569809046     1.007825032230
         H            3.464076088097     0.513001967633    -0.846017190954     1.007825032230
         H            3.804236088097    -0.860701032367     0.225296809046     1.007825032230
         H           -3.566456011903     1.196604367633     0.158596609046     1.007825032230

  Basis Set: AUG-CC-PVTZ
    Blend: AUG-CC-PVTZ
  Basis Set: (AUG-CC-PVTZ AUX)
    Blend: AUG-CC-PVTZ-JKFIT
	 Reference Energy          =    -474.6342879575672100 [Eh]
	 Singles Energy            =      -0.0000000000000000 [Eh]
	 Same-Spin Energy          =      -0.4918794903744695 [Eh]
	 Opposite-Spin Energy      =      -1.5281950031289648 [Eh]
	 Correlation Energy        =      -2.0200744935034343 [Eh]
	 Total Energy              =    -476.6543624510706536 [Eh]

	 ================> DF-SCS-MP2 Energies <==================
	-----------------------------------------------------------
	 SCS Same-Spin Scale       =       0.3333333333333333 [-]
	 SCS Opposite-Spin Scale   =       1.2000000000000000 [-]
	 SCS Same-Spin Energy      =      -0.1639598301248232 [Eh]
	 SCS Opposite-Spin Energy  =      -1.8338340037547578 [Eh]
	 SCS Correlation Energy    =      -1.9977938338795811 [Eh]
	 SCS Total Energy          =    -476.6320817914468080 [Eh]
	-----------------------------------------------------------

  Dipole Moment: [D]
     X:     0.6353      Y:     3.2856      Z:    -0.1756     Total:     3.3511

*** Psi4 exiting successfully. Buy a developer a beer!
