                               Psi4 1.3.2 release

  ==> Input File <==

--------------------------------------------------------------------------
#psi4
#
memory 32 gb

molecule  {
0 1
  O       -1.5316190     1.0321650     0.0948010
  O        1.4540340    -1.7305240     0.0480640
  N        0.6983760     0.4234810    -0.0768570
  C       -0.6387160     0.0037620    -0.0484130
  C        0.9338190     1.8669200    -0.1039590
  C        1.7048000    -0.5240370     0.0213290
  C       -1.2931220    -1.2007390    -0.1216240
  C       -2.6835930    -0.8875750    -0.0182810
  C        3.1317020    -0.0168610     0.0830780
  C       -2.7843930     0.4654540     0.1083230
  H        0.3040530     2.3204240    -0.8701650
  H        1.9743570     2.0597570    -0.3491110
  H        0.6954160     2.3257170     0.8600750
  H       -0.8317010    -2.1668680    -0.2305290
  H       -3.5070380    -1.5886770    -0.0382780
  H        3.2875770     0.6796840     0.9111130
  H        3.4247710     0.4818120    -0.8454740
  H        3.7649310    -0.8918910     0.2258400
  H       -3.6180865     1.1874613    -0.0895809
units angstrom
no_reorient  #important for SAPT in psi4, default
symmetry c1  #important for SAPT in psi4, default
}

set PROPERTIES_ORIGIN ["COM"]
properties('MP2/aug-cc-pvtz', properties = ['dipole'])
--------------------------------------------------------------------------

    Molecular point group: c1
  Charge       = 0
  Multiplicity = 1
  Basis Set: AUG-CC-PVTZ
    Blend: AUG-CC-PVTZ
  Basis Set: (AUG-CC-PVTZ AUX)
    Blend: AUG-CC-PVTZ-JKFIT

    Orbital Energies [Eh]
    ---------------------

    Doubly Occupied:

       1A    -20.624485     2A    -20.529153     3A    -15.618141
       4A    -11.366218     5A    -11.333792     6A    -11.282663
       7A    -11.279408     8A    -11.247226     9A    -11.230648
      10A    -11.216220    11A     -1.462108    12A     -1.385555
      13A     -1.263299    14A     -1.080964    15A     -1.032106
      16A     -0.990384    17A     -0.954422    18A     -0.836295
      19A     -0.791793    20A     -0.751152    21A     -0.701949
      22A     -0.680740    23A     -0.672810    24A     -0.644164
      25A     -0.622107    26A     -0.593648    27A     -0.589541
      28A     -0.588560    29A     -0.566383    30A     -0.562205
      31A     -0.550652    32A     -0.538123    33A     -0.526562
      34A     -0.435144    35A     -0.431700    36A     -0.391946
      37A     -0.288335

  @DF-RHF Final Energy:  -474.62923416960911

   => Energetics <=

    Nuclear Repulsion Energy =            527.8293787519638727
    One-Electron Energy =               -1693.5960260616645883
    Two-Electron Energy =                 691.1374131400914393
    Total Energy =                       -474.6292341696091626
  Basis Set: (AUG-CC-PVTZ AUX)
    Blend: AUG-CC-PVTZ-RI
    Molecular point group: c1

    Geometry (in Angstrom), charge = 0, multiplicity = 1:

       Center              X                  Y                   Z               Mass
    ------------   -----------------  -----------------  -----------------  -----------------
         O           -1.492224586797     1.063195188503     0.096060347142    15.994914619570
         O            1.493428413203    -1.699493811497     0.049323347142    15.994914619570
         N            0.737770413203     0.454511188503    -0.075597652858    14.003074004430
         C           -0.599321586797     0.034792188503    -0.047153652858    12.000000000000
         C            0.973213413203     1.897950188503    -0.102699652858    12.000000000000
         C            1.744194413203    -0.493006811497     0.022588347142    12.000000000000
         C           -1.253727586797    -1.169708811497    -0.120364652858    12.000000000000
         C           -2.644198586797    -0.856544811497    -0.017021652858    12.000000000000
         C            3.171096413203     0.014169188503     0.084337347142    12.000000000000
         C           -2.744998586797     0.496484188503     0.109582347142    12.000000000000
         H            0.343447413203     2.351454188503    -0.868905652858     1.007825032230
         H            2.013751413203     2.090787188503    -0.347851652858     1.007825032230
         H            0.734810413203     2.356747188503     0.861334347142     1.007825032230
         H           -0.792306586797    -2.135837811497    -0.229269652858     1.007825032230
         H           -3.467643586797    -1.557646811497    -0.037018652858     1.007825032230
         H            3.326971413203     0.710714188503     0.912372347142     1.007825032230
         H            3.464165413203     0.512842188503    -0.844214652858     1.007825032230
         H            3.804325413203    -0.860860811497     0.227099347142     1.007825032230
         H           -3.578692086797     1.218491488503    -0.088321552858     1.007825032230

  Basis Set: AUG-CC-PVTZ
    Blend: AUG-CC-PVTZ
  Basis Set: (AUG-CC-PVTZ AUX)
    Blend: AUG-CC-PVTZ-JKFIT
	 Reference Energy          =    -474.6292341696091057 [Eh]
	 Singles Energy            =      -0.0000000000000000 [Eh]
	 Same-Spin Energy          =      -0.4921896962736831 [Eh]
	 Opposite-Spin Energy      =      -1.5289270125979226 [Eh]
	 Correlation Energy        =      -2.0211167088716060 [Eh]
	 Total Energy              =    -476.6503508784807082 [Eh]

	 ================> DF-SCS-MP2 Energies <==================
	-----------------------------------------------------------
	 SCS Same-Spin Scale       =       0.3333333333333333 [-]
	 SCS Opposite-Spin Scale   =       1.2000000000000000 [-]
	 SCS Same-Spin Energy      =      -0.1640632320912277 [Eh]
	 SCS Opposite-Spin Energy  =      -1.8347124151175072 [Eh]
	 SCS Correlation Energy    =      -1.9987756472087348 [Eh]
	 SCS Total Energy          =    -476.6280098168178370 [Eh]
	-----------------------------------------------------------

  Dipole Moment: [D]
     X:     0.7169      Y:     3.2428      Z:    -0.3997     Total:     3.3451

*** Psi4 exiting successfully. Buy a developer a beer!
