                               Psi4 1.3.2 release

  ==> Input File <==

--------------------------------------------------------------------------
#psi4
#
memory 32 gb

molecule  {
0 1
  O       -1.5316190     1.0321650     0.0948010
  O        1.4540340    -1.7305240     0.0480640
  N        0.6983760     0.4234810    -0.0768570
  C       -0.6387160     0.0037620    -0.0484130
  C        0.9338190     1.8669200    -0.1039590
  C        1.7048000    -0.5240370     0.0213290
  C       -1.2931220    -1.2007390    -0.1216240
  C       -2.6835930    -0.8875750    -0.0182810
  C        3.1317020    -0.0168610     0.0830780
  C       -2.7843930     0.4654540     0.1083230
  H        0.3040530     2.3204240    -0.8701650
  H        1.9743570     2.0597570    -0.3491110
  H        0.6954160     2.3257170     0.8600750
  H       -0.8317010    -2.1668680    -0.2305290
  H       -3.4910913    -1.6155811     0.2600873
  H        3.2875770     0.6796840     0.9111130
  H        3.4247710     0.4818120    -0.8454740
  H        3.7649310    -0.8918910     0.2258400
  H       -3.6032960     1.1610050     0.2088840
units angstrom
no_reorient  #important for SAPT in psi4, default
symmetry c1  #important for SAPT in psi4, default
}

set PROPERTIES_ORIGIN ["COM"]
properties('MP2/aug-cc-pvtz', properties = ['dipole'])
--------------------------------------------------------------------------

    Molecular point group: c1
  Charge       = 0
  Multiplicity = 1
  Basis Set: AUG-CC-PVTZ
    Blend: AUG-CC-PVTZ
  Basis Set: (AUG-CC-PVTZ AUX)
    Blend: AUG-CC-PVTZ-JKFIT

    Orbital Energies [Eh]
    ---------------------

    Doubly Occupied:

       1A    -20.625736     2A    -20.528640     3A    -15.617538
       4A    -11.365713     5A    -11.332663     6A    -11.282312
       7A    -11.279219     8A    -11.246921     9A    -11.232565
      10A    -11.215619    11A     -1.462993    12A     -1.385067
      13A     -1.262868    14A     -1.079989    15A     -1.032156
      16A     -0.990755    17A     -0.955269    18A     -0.835517
      19A     -0.793110    20A     -0.748818    21A     -0.702496
      22A     -0.680000    23A     -0.672538    24A     -0.649658
      25A     -0.623846    26A     -0.593375    27A     -0.589003
      28A     -0.585521    29A     -0.564571    30A     -0.562924
      31A     -0.547624    32A     -0.540406    33A     -0.527074
      34A     -0.434845    35A     -0.431533    36A     -0.390584
      37A     -0.288130

  @DF-RHF Final Energy:  -474.62851688821274

   => Energetics <=

    Nuclear Repulsion Energy =            527.8449318684512264
    One-Electron Energy =               -1693.6317107288032275
    Two-Electron Energy =                 691.1582619721393712
    Total Energy =                       -474.6285168882127437
  Basis Set: (AUG-CC-PVTZ AUX)
    Blend: AUG-CC-PVTZ-RI
    Molecular point group: c1

    Geometry (in Angstrom), charge = 0, multiplicity = 1:

       Center              X                  Y                   Z               Mass
    ------------   -----------------  -----------------  -----------------  -----------------
         O           -1.492447346599     1.063581904019     0.091734976666    15.994914619570
         O            1.493205653401    -1.699107095981     0.044997976666    15.994914619570
         N            0.737547653401     0.454897904019    -0.079923023334    14.003074004430
         C           -0.599544346599     0.035178904019    -0.051479023334    12.000000000000
         C            0.972990653401     1.898336904019    -0.107025023334    12.000000000000
         C            1.743971653401    -0.492620095981     0.018262976666    12.000000000000
         C           -1.253950346599    -1.169322095981    -0.124690023334    12.000000000000
         C           -2.644421346599    -0.856158095981    -0.021347023334    12.000000000000
         C            3.170873653401     0.014555904019     0.080011976666    12.000000000000
         C           -2.745221346599     0.496870904019     0.105256976666    12.000000000000
         H            0.343224653401     2.351840904019    -0.873231023334     1.007825032230
         H            2.013528653401     2.091173904019    -0.352177023334     1.007825032230
         H            0.734587653401     2.357133904019     0.857008976666     1.007825032230
         H           -0.792529346599    -2.135451095981    -0.233595023334     1.007825032230
         H           -3.451919646599    -1.584164195981     0.257021276666     1.007825032230
         H            3.326748653401     0.711100904019     0.908046976666     1.007825032230
         H            3.463942653401     0.513228904019    -0.848540023334     1.007825032230
         H            3.804102653401    -0.860474095981     0.222773976666     1.007825032230
         H           -3.564124346599     1.192421904019     0.205817976666     1.007825032230

  Basis Set: AUG-CC-PVTZ
    Blend: AUG-CC-PVTZ
  Basis Set: (AUG-CC-PVTZ AUX)
    Blend: AUG-CC-PVTZ-JKFIT
	 Reference Energy          =    -474.6285168882127437 [Eh]
	 Singles Energy            =      -0.0000000000000000 [Eh]
	 Same-Spin Energy          =      -0.4921496781863736 [Eh]
	 Opposite-Spin Energy      =      -1.5289036153353552 [Eh]
	 Correlation Energy        =      -2.0210532935217289 [Eh]
	 Total Energy              =    -476.6495701817344752 [Eh]

	 ================> DF-SCS-MP2 Energies <==================
	-----------------------------------------------------------
	 SCS Same-Spin Scale       =       0.3333333333333333 [-]
	 SCS Opposite-Spin Scale   =       1.2000000000000000 [-]
	 SCS Same-Spin Energy      =      -0.1640498927287912 [Eh]
	 SCS Opposite-Spin Energy  =      -1.8346843384024263 [Eh]
	 SCS Correlation Energy    =      -1.9987342311312175 [Eh]
	 SCS Total Energy          =    -476.6272511193439527 [Eh]
	-----------------------------------------------------------

  Dipole Moment: [D]
     X:     0.6997      Y:     3.3178      Z:     0.0965     Total:     3.3922

*** Psi4 exiting successfully. Buy a developer a beer!
