                               Psi4 1.3.2 release

  ==> Input File <==

--------------------------------------------------------------------------
#psi4
#
memory 32 gb

molecule  {
0 1
  O       -1.5316190     1.0321650     0.0948010
  O        1.4540340    -1.7305240     0.0480640
  N        0.6983760     0.4234810    -0.0768570
  C       -0.6387160     0.0037620    -0.0484130
  C        0.9338190     1.8669200    -0.1039590
  C        1.7048000    -0.5240370     0.0213290
  C       -1.2931220    -1.2007390    -0.1216240
  C       -2.6835930    -0.8875750    -0.0182810
  C        3.1434686    -0.0243039    -0.1164368
  C       -2.7843930     0.4654540     0.1083230
  H        0.3040530     2.3204240    -0.8701650
  H        1.9743570     2.0597570    -0.3491110
  H        0.6954160     2.3257170     0.8600750
  H       -0.8317010    -2.1668680    -0.2305290
  H       -3.5070380    -1.5886770    -0.0382780
  H        3.2875770     0.6796840     0.9111130
  H        3.4247710     0.4818120    -0.8454740
  H        3.7649310    -0.8918910     0.2258400
  H       -3.6032960     1.1610050     0.2088840
units angstrom
no_reorient  #important for SAPT in psi4, default
symmetry c1  #important for SAPT in psi4, default
}

set PROPERTIES_ORIGIN ["COM"]
properties('MP2/aug-cc-pvtz', properties = ['dipole'])
--------------------------------------------------------------------------

    Molecular point group: c1
  Charge       = 0
  Multiplicity = 1
  Basis Set: AUG-CC-PVTZ
    Blend: AUG-CC-PVTZ
  Basis Set: (AUG-CC-PVTZ AUX)
    Blend: AUG-CC-PVTZ-JKFIT

    Orbital Energies [Eh]
    ---------------------

    Doubly Occupied:

       1A    -20.625100     2A    -20.530037     3A    -15.617940
       4A    -11.369093     5A    -11.332745     6A    -11.280873
       7A    -11.278868     8A    -11.251741     9A    -11.229670
      10A    -11.216109    11A     -1.462417    12A     -1.385988
      13A     -1.263140    14A     -1.080603    15A     -1.033278
      16A     -0.991487    17A     -0.956163    18A     -0.837805
      19A     -0.796894    20A     -0.752043    21A     -0.710096
      22A     -0.693138    23A     -0.673548    24A     -0.648567
      25A     -0.624555    26A     -0.608039    27A     -0.589304
      28A     -0.582838    29A     -0.563644    30A     -0.556308
      31A     -0.547078    32A     -0.540446    33A     -0.506476
      34A     -0.435892    35A     -0.429868    36A     -0.392080
      37A     -0.287869

  @DF-RHF Final Energy:  -474.59049509783182

   => Energetics <=

    Nuclear Repulsion Energy =            527.7939977984015059
    One-Electron Energy =               -1693.4055064055319235
    Two-Electron Energy =                 691.0210135092985411
    Total Energy =                       -474.5904950978318766
  Basis Set: (AUG-CC-PVTZ AUX)
    Blend: AUG-CC-PVTZ-RI
    Molecular point group: c1

    Geometry (in Angstrom), charge = 0, multiplicity = 1:

       Center              X                  Y                   Z               Mass
    ------------   -----------------  -----------------  -----------------  -----------------
         O           -1.493347136054     1.064029183508     0.111113756438    15.994914619570
         O            1.492305863946    -1.698659816492     0.064376756438    15.994914619570
         N            0.736647863946     0.455345183508    -0.060544243562    14.003074004430
         C           -0.600444136054     0.035626183508    -0.032100243562    12.000000000000
         C            0.972090863946     1.898784183508    -0.087646243562    12.000000000000
         C            1.743071863946    -0.492172816492     0.037641756438    12.000000000000
         C           -1.254850136054    -1.168874816492    -0.105311243562    12.000000000000
         C           -2.645321136054    -0.855710816492    -0.001968243562    12.000000000000
         C            3.181740463946     0.007560283508    -0.100124043562    12.000000000000
         C           -2.746121136054     0.497318183508     0.124635756438    12.000000000000
         H            0.342324863946     2.352288183508    -0.853852243562     1.007825032230
         H            2.012628863946     2.091621183508    -0.332798243562     1.007825032230
         H            0.733687863946     2.357581183508     0.876387756438     1.007825032230
         H           -0.793429136054    -2.135003816492    -0.214216243562     1.007825032230
         H           -3.468766136054    -1.556812816492    -0.021965243562     1.007825032230
         H            3.325848863946     0.711548183508     0.927425756438     1.007825032230
         H            3.463042863946     0.513676183508    -0.829161243562     1.007825032230
         H            3.803202863946    -0.860026816492     0.242152756438     1.007825032230
         H           -3.565024136054     1.192869183508     0.225196756438     1.007825032230

  Basis Set: AUG-CC-PVTZ
    Blend: AUG-CC-PVTZ
  Basis Set: (AUG-CC-PVTZ AUX)
    Blend: AUG-CC-PVTZ-JKFIT
	 Reference Energy          =    -474.5904950978318197 [Eh]
	 Singles Energy            =      -0.0000000000000000 [Eh]
	 Same-Spin Energy          =      -0.4924727805402919 [Eh]
	 Opposite-Spin Energy      =      -1.5301966823413604 [Eh]
	 Correlation Energy        =      -2.0226694628816522 [Eh]
	 Total Energy              =    -476.6131645607134715 [Eh]

	 ================> DF-SCS-MP2 Energies <==================
	-----------------------------------------------------------
	 SCS Same-Spin Scale       =       0.3333333333333333 [-]
	 SCS Opposite-Spin Scale   =       1.2000000000000000 [-]
	 SCS Same-Spin Energy      =      -0.1641575935134306 [Eh]
	 SCS Opposite-Spin Energy  =      -1.8362360188096325 [Eh]
	 SCS Correlation Energy    =      -2.0003936123230632 [Eh]
	 SCS Total Energy          =    -476.5908887101548999 [Eh]
	-----------------------------------------------------------

  Dipole Moment: [D]
     X:     0.5565      Y:     3.2344      Z:    -0.1906     Total:     3.2875

*** Psi4 exiting successfully. Buy a developer a beer!
