                               Psi4 1.3.2 release

  ==> Input File <==

--------------------------------------------------------------------------
#psi4
#
memory 32 gb

molecule  {
0 1
  O       -1.5316190     1.0321650     0.0948010
  O        1.4540340    -1.7305240     0.0480640
  N        0.6983760     0.4234810    -0.0768570
  C       -0.6387160     0.0037620    -0.0484130
  C        0.9338190     1.8669200    -0.1039590
  C        1.7048000    -0.5240370     0.0213290
  C       -1.3034725    -1.1825658    -0.3205275
  C       -2.6835930    -0.8875750    -0.0182810
  C        3.1317020    -0.0168610     0.0830780
  C       -2.7843930     0.4654540     0.1083230
  H        0.3040530     2.3204240    -0.8701650
  H        1.9743570     2.0597570    -0.3491110
  H        0.6954160     2.3257170     0.8600750
  H       -0.8317010    -2.1668680    -0.2305290
  H       -3.5070380    -1.5886770    -0.0382780
  H        3.2875770     0.6796840     0.9111130
  H        3.4247710     0.4818120    -0.8454740
  H        3.7649310    -0.8918910     0.2258400
  H       -3.6032960     1.1610050     0.2088840
units angstrom
no_reorient  #important for SAPT in psi4, default
symmetry c1  #important for SAPT in psi4, default
}

set PROPERTIES_ORIGIN ["COM"]
properties('MP2/aug-cc-pvtz', properties = ['dipole'])
--------------------------------------------------------------------------

    Molecular point group: c1
  Charge       = 0
  Multiplicity = 1
  Basis Set: AUG-CC-PVTZ
    Blend: AUG-CC-PVTZ
  Basis Set: (AUG-CC-PVTZ AUX)
    Blend: AUG-CC-PVTZ-JKFIT

    Orbital Energies [Eh]
    ---------------------

    Doubly Occupied:

       1A    -20.626023     2A    -20.529555     3A    -15.618706
       4A    -11.366804     5A    -11.337637     6A    -11.280545
       7A    -11.279793     8A    -11.247606     9A    -11.230426
      10A    -11.218499    11A     -1.463248    12A     -1.385879
      13A     -1.264042    14A     -1.076806    15A     -1.032737
      16A     -0.990934    17A     -0.955500    18A     -0.836193
      19A     -0.794014    20A     -0.747368    21A     -0.703409
      22A     -0.681465    23A     -0.672964    24A     -0.648837
      25A     -0.624027    26A     -0.593858    27A     -0.590033
      28A     -0.589185    29A     -0.566503    30A     -0.554156
      31A     -0.550743    32A     -0.538094    33A     -0.525983
      34A     -0.434965    35A     -0.431493    36A     -0.390327
      37A     -0.288595

  @DF-RHF Final Energy:  -474.62387522872706

   => Energetics <=

    Nuclear Repulsion Energy =            527.3903062832827118
    One-Electron Energy =               -1692.6944520253841802
    Two-Electron Energy =                 690.6802705133743530
    Total Energy =                       -474.6238752287270017
  Basis Set: (AUG-CC-PVTZ AUX)
    Blend: AUG-CC-PVTZ-RI
    Molecular point group: c1

    Geometry (in Angstrom), charge = 0, multiplicity = 1:

       Center              X                  Y                   Z               Mass
    ------------   -----------------  -----------------  -----------------  -----------------
         O           -1.491438615650     1.061818728723     0.111061006371    15.994914619570
         O            1.494214384350    -1.700870271277     0.064324006371    15.994914619570
         N            0.738556384350     0.453134728723    -0.060596993629    14.003074004430
         C           -0.598535615650     0.033415728723    -0.032152993629    12.000000000000
         C            0.973999384350     1.896573728723    -0.087698993629    12.000000000000
         C            1.744980384350    -0.494383271277     0.037589006371    12.000000000000
         C           -1.263292115650    -1.152912071277    -0.304267493629    12.000000000000
         C           -2.643412615650    -0.857921271277    -0.002020993629    12.000000000000
         C            3.171882384350     0.012792728723     0.099338006371    12.000000000000
         C           -2.744212615650     0.495107728723     0.124583006371    12.000000000000
         H            0.344233384350     2.350077728723    -0.853904993629     1.007825032230
         H            2.014537384350     2.089410728723    -0.332850993629     1.007825032230
         H            0.735596384350     2.355370728723     0.876335006371     1.007825032230
         H           -0.791520615650    -2.137214271277    -0.214268993629     1.007825032230
         H           -3.466857615650    -1.559023271277    -0.022017993629     1.007825032230
         H            3.327757384350     0.709337728723     0.927373006371     1.007825032230
         H            3.464951384350     0.511465728723    -0.829213993629     1.007825032230
         H            3.805111384350    -0.862237271277     0.242100006371     1.007825032230
         H           -3.563115615650     1.190658728723     0.225144006371     1.007825032230

  Basis Set: AUG-CC-PVTZ
    Blend: AUG-CC-PVTZ
  Basis Set: (AUG-CC-PVTZ AUX)
    Blend: AUG-CC-PVTZ-JKFIT
	 Reference Energy          =    -474.6238752287270586 [Eh]
	 Singles Energy            =      -0.0000000000000000 [Eh]
	 Same-Spin Energy          =      -0.4922381646896994 [Eh]
	 Opposite-Spin Energy      =      -1.5294870712879056 [Eh]
	 Correlation Energy        =      -2.0217252359776050 [Eh]
	 Total Energy              =    -476.6456004647046711 [Eh]

	 ================> DF-SCS-MP2 Energies <==================
	-----------------------------------------------------------
	 SCS Same-Spin Scale       =       0.3333333333333333 [-]
	 SCS Opposite-Spin Scale   =       1.2000000000000000 [-]
	 SCS Same-Spin Energy      =      -0.1640793882298998 [Eh]
	 SCS Opposite-Spin Energy  =      -1.8353844855454866 [Eh]
	 SCS Correlation Energy    =      -1.9994638737753865 [Eh]
	 SCS Total Energy          =    -476.6233391025024275 [Eh]
	-----------------------------------------------------------

  Dipole Moment: [D]
     X:     0.6774      Y:     3.3421      Z:     0.0508     Total:     3.4104

*** Psi4 exiting successfully. Buy a developer a beer!
