                               Psi4 1.3.2 release

  ==> Input File <==

--------------------------------------------------------------------------
#psi4
#
memory 32 gb

molecule  {
0 1
  O       -1.5316190     1.0321650     0.0948010
  O        1.4540340    -1.7305240     0.0480640
  N        0.6983760     0.4234810    -0.0768570
  C       -0.6387160     0.0037620    -0.0484130
  C        0.9338190     1.8669200    -0.1039590
  C        1.7048000    -0.5240370     0.0213290
  C       -1.2931220    -1.2007390    -0.1216240
  C       -2.6835930    -0.8875750    -0.0182810
  C        3.1317020    -0.0168610     0.0830780
  C       -2.7843930     0.4654540     0.1083230
  H        0.3040530     2.3204240    -0.8701650
  H        1.9743570     2.0597570    -0.3491110
  H        0.6954160     2.3257170     0.8600750
  H       -0.8237373    -2.1800942    -0.0813256
  H       -3.5070380    -1.5886770    -0.0382780
  H        3.2875770     0.6796840     0.9111130
  H        3.4247710     0.4818120    -0.8454740
  H        3.7649310    -0.8918910     0.2258400
  H       -3.6032960     1.1610050     0.2088840
units angstrom
no_reorient  #important for SAPT in psi4, default
symmetry c1  #important for SAPT in psi4, default
}

set PROPERTIES_ORIGIN ["COM"]
properties('MP2/aug-cc-pvtz', properties = ['dipole'])
--------------------------------------------------------------------------

    Molecular point group: c1
  Charge       = 0
  Multiplicity = 1
  Basis Set: AUG-CC-PVTZ
    Blend: AUG-CC-PVTZ
  Basis Set: (AUG-CC-PVTZ AUX)
    Blend: AUG-CC-PVTZ-JKFIT

    Orbital Energies [Eh]
    ---------------------

    Doubly Occupied:

       1A    -20.625025     2A    -20.528729     3A    -15.617613
       4A    -11.365814     5A    -11.332911     6A    -11.280473
       7A    -11.279184     8A    -11.246928     9A    -11.229205
      10A    -11.215928    11A     -1.462330    12A     -1.385185
      13A     -1.262884    14A     -1.080043    15A     -1.032131
      16A     -0.990746    17A     -0.955020    18A     -0.835938
      19A     -0.794958    20A     -0.749620    21A     -0.703034
      22A     -0.679767    23A     -0.673330    24A     -0.649006
      25A     -0.622994    26A     -0.592984    27A     -0.590134
      28A     -0.588599    29A     -0.566264    30A     -0.560420
      31A     -0.550449    32A     -0.540228    33A     -0.527291
      34A     -0.434060    35A     -0.432020    36A     -0.391631
      37A     -0.287721

  @DF-RHF Final Energy:  -474.63316470989582

   => Energetics <=

    Nuclear Repulsion Energy =            527.9669858540214591
    One-Electron Energy =               -1693.8791040718945169
    Two-Electron Energy =                 691.2789535079772349
    Total Energy =                       -474.6331647098958229
  Basis Set: (AUG-CC-PVTZ AUX)
    Blend: AUG-CC-PVTZ-RI
    Molecular point group: c1

    Geometry (in Angstrom), charge = 0, multiplicity = 1:

       Center              X                  Y                   Z               Mass
    ------------   -----------------  -----------------  -----------------  -----------------
         O           -1.492389491899     1.063482777023     0.092815988448    15.994914619570
         O            1.493263508101    -1.699206222977     0.046078988448    15.994914619570
         N            0.737605508101     0.454798777023    -0.078842011552    14.003074004430
         C           -0.599486491899     0.035079777023    -0.050398011552    12.000000000000
         C            0.973048508101     1.898237777023    -0.105944011552    12.000000000000
         C            1.744029508101    -0.492719222977     0.019343988448    12.000000000000
         C           -1.253892491899    -1.169421222977    -0.123609011552    12.000000000000
         C           -2.644363491899    -0.856257222977    -0.020266011552    12.000000000000
         C            3.170931508101     0.014456777023     0.081092988448    12.000000000000
         C           -2.745163491899     0.496771777023     0.106337988448    12.000000000000
         H            0.343282508101     2.351741777023    -0.872150011552     1.007825032230
         H            2.013586508101     2.091074777023    -0.351096011552     1.007825032230
         H            0.734645508101     2.357034777023     0.858089988448     1.007825032230
         H           -0.784507791899    -2.148776422977    -0.083310611552     1.007825032230
         H           -3.467808491899    -1.557359222977    -0.040263011552     1.007825032230
         H            3.326806508101     0.711001777023     0.909127988448     1.007825032230
         H            3.464000508101     0.513129777023    -0.847459011552     1.007825032230
         H            3.804160508101    -0.860573222977     0.223854988448     1.007825032230
         H           -3.564066491899     1.192322777023     0.206898988448     1.007825032230

  Basis Set: AUG-CC-PVTZ
    Blend: AUG-CC-PVTZ
  Basis Set: (AUG-CC-PVTZ AUX)
    Blend: AUG-CC-PVTZ-JKFIT
	 Reference Energy          =    -474.6331647098958229 [Eh]
	 Singles Energy            =      -0.0000000000000000 [Eh]
	 Same-Spin Energy          =      -0.4919325547924416 [Eh]
	 Opposite-Spin Energy      =      -1.5283028762016575 [Eh]
	 Correlation Energy        =      -2.0202354309940991 [Eh]
	 Total Energy              =    -476.6534001408899144 [Eh]

	 ================> DF-SCS-MP2 Energies <==================
	-----------------------------------------------------------
	 SCS Same-Spin Scale       =       0.3333333333333333 [-]
	 SCS Opposite-Spin Scale   =       1.2000000000000000 [-]
	 SCS Same-Spin Energy      =      -0.1639775182641472 [Eh]
	 SCS Opposite-Spin Energy  =      -1.8339634514419889 [Eh]
	 SCS Correlation Energy    =      -1.9979409697061361 [Eh]
	 SCS Total Energy          =    -476.6311056796019443 [Eh]
	-----------------------------------------------------------

  Dipole Moment: [D]
     X:     0.6437      Y:     3.2915      Z:    -0.0079     Total:     3.3539

*** Psi4 exiting successfully. Buy a developer a beer!
