                               Psi4 1.3.2 release

  ==> Input File <==

--------------------------------------------------------------------------
#psi4
#
memory 32 gb

molecule  {
0 1
  O       -1.5316190     1.0321650     0.0948010
  O        1.4540340    -1.7305240     0.0480640
  N        0.6983760     0.4234810    -0.0768570
  C       -0.6387160     0.0037620    -0.0484130
  C        0.9338190     1.8669200    -0.1039590
  C        1.7048000    -0.5240370     0.0213290
  C       -1.2982973    -1.1916524    -0.2210757
  C       -2.6835930    -0.8875750    -0.0182810
  C        3.1317020    -0.0168610     0.0830780
  C       -2.7843930     0.4654540     0.1083230
  H        0.3040530     2.3204240    -0.8701650
  H        1.9743570     2.0597570    -0.3491110
  H        0.6954160     2.3257170     0.8600750
  H       -0.8317010    -2.1668680    -0.2305290
  H       -3.5070380    -1.5886770    -0.0382780
  H        3.2875770     0.6796840     0.9111130
  H        3.4247710     0.4818120    -0.8454740
  H        3.7649310    -0.8918910     0.2258400
  H       -3.6032960     1.1610050     0.2088840
units angstrom
no_reorient  #important for SAPT in psi4, default
symmetry c1  #important for SAPT in psi4, default
}

set PROPERTIES_ORIGIN ["COM"]
properties('MP2/aug-cc-pvtz', properties = ['dipole'])
--------------------------------------------------------------------------

    Molecular point group: c1
  Charge       = 0
  Multiplicity = 1
  Basis Set: AUG-CC-PVTZ
    Blend: AUG-CC-PVTZ
  Basis Set: (AUG-CC-PVTZ AUX)
    Blend: AUG-CC-PVTZ-JKFIT

    Orbital Energies [Eh]
    ---------------------

    Doubly Occupied:

       1A    -20.625146     2A    -20.528780     3A    -15.617654
       4A    -11.365942     5A    -11.333774     6A    -11.280533
       7A    -11.279200     8A    -11.247024     9A    -11.229641
      10A    -11.216273    11A     -1.462426    12A     -1.385173
      13A     -1.262991    14A     -1.079361    15A     -1.032185
      16A     -0.990707    17A     -0.955117    18A     -0.836102
      19A     -0.794802    20A     -0.749885    21A     -0.702986
      22A     -0.680406    23A     -0.672735    24A     -0.649022
      25A     -0.623187    26A     -0.593197    27A     -0.589975
      28A     -0.588635    29A     -0.566241    30A     -0.560493
      31A     -0.550509    32A     -0.540161    33A     -0.526647
      34A     -0.434701    35A     -0.431372    36A     -0.391469
      37A     -0.287978

  @DF-RHF Final Energy:  -474.63184683949675

   => Energetics <=

    Nuclear Repulsion Energy =            527.8089749585818709
    One-Electron Energy =               -1693.5567806046005899
    Two-Electron Energy =                 691.1159588065218031
    Total Energy =                       -474.6318468394968022
  Basis Set: (AUG-CC-PVTZ AUX)
    Blend: AUG-CC-PVTZ-RI
    Molecular point group: c1

    Geometry (in Angstrom), charge = 0, multiplicity = 1:

       Center              X                  Y                   Z               Mass
    ------------   -----------------  -----------------  -----------------  -----------------
         O           -1.491885192045     1.062602826164     0.102479149366    15.994914619570
         O            1.493767807955    -1.700086173836     0.055742149366    15.994914619570
         N            0.738109807955     0.453918826164    -0.069178850634    14.003074004430
         C           -0.598982192045     0.034199826164    -0.040734850634    12.000000000000
         C            0.973552807955     1.897357826164    -0.096280850634    12.000000000000
         C            1.744533807955    -0.493599173836     0.029007149366    12.000000000000
         C           -1.258563492045    -1.161214573836    -0.213397550634    12.000000000000
         C           -2.643859192045    -0.857137173836    -0.010602850634    12.000000000000
         C            3.171435807955     0.013576826164     0.090756149366    12.000000000000
         C           -2.744659192045     0.495891826164     0.116001149366    12.000000000000
         H            0.343786807955     2.350861826164    -0.862486850634     1.007825032230
         H            2.014090807955     2.090194826164    -0.341432850634     1.007825032230
         H            0.735149807955     2.356154826164     0.867753149366     1.007825032230
         H           -0.791967192045    -2.136430173836    -0.222850850634     1.007825032230
         H           -3.467304192045    -1.558239173836    -0.030599850634     1.007825032230
         H            3.327310807955     0.710121826164     0.918791149366     1.007825032230
         H            3.464504807955     0.512249826164    -0.837795850634     1.007825032230
         H            3.804664807955    -0.861453173836     0.233518149366     1.007825032230
         H           -3.563562192045     1.191442826164     0.216562149366     1.007825032230

  Basis Set: AUG-CC-PVTZ
    Blend: AUG-CC-PVTZ
  Basis Set: (AUG-CC-PVTZ AUX)
    Blend: AUG-CC-PVTZ-JKFIT
	 Reference Energy          =    -474.6318468394967454 [Eh]
	 Singles Energy            =      -0.0000000000000000 [Eh]
	 Same-Spin Energy          =      -0.4919309052531409 [Eh]
	 Opposite-Spin Energy      =      -1.5284005225488908 [Eh]
	 Correlation Energy        =      -2.0203314278020317 [Eh]
	 Total Energy              =    -476.6521782672987797 [Eh]

	 ================> DF-SCS-MP2 Energies <==================
	-----------------------------------------------------------
	 SCS Same-Spin Scale       =       0.3333333333333333 [-]
	 SCS Opposite-Spin Scale   =       1.2000000000000000 [-]
	 SCS Same-Spin Energy      =      -0.1639769684177136 [Eh]
	 SCS Opposite-Spin Energy  =      -1.8340806270586689 [Eh]
	 SCS Correlation Energy    =      -1.9980575954763826 [Eh]
	 SCS Total Energy          =    -476.6299044349731275 [Eh]
	-----------------------------------------------------------

  Dipole Moment: [D]
     X:     0.6453      Y:     3.2956      Z:    -0.0435     Total:     3.3584

*** Psi4 exiting successfully. Buy a developer a beer!
