                               Psi4 1.3.2 release

  ==> Input File <==

--------------------------------------------------------------------------
#psi4
#
memory 32 gb

molecule  {
0 1
  O       -1.5316190     1.0321650     0.0948010
  O        1.4540340    -1.7305240     0.0480640
  N        0.6983760     0.4234810    -0.0768570
  C       -0.6387160     0.0037620    -0.0484130
  C        0.9338190     1.8669200    -0.1039590
  C        1.7048000    -0.5240370     0.0213290
  C       -1.2931220    -1.2007390    -0.1216240
  C       -2.6835930    -0.8875750    -0.0182810
  C        3.1317020    -0.0168610     0.0830780
  C       -2.7843930     0.4654540     0.1083230
  H        0.3040530     2.3204240    -0.8701650
  H        1.9743570     2.0597570    -0.3491110
  H        0.6954160     2.3257170     0.8600750
  H       -0.8263919    -2.1756855    -0.1310601
  H       -3.5070380    -1.5886770    -0.0382780
  H        3.2875770     0.6796840     0.9111130
  H        3.4247710     0.4818120    -0.8454740
  H        3.7649310    -0.8918910     0.2258400
  H       -3.6032960     1.1610050     0.2088840
units angstrom
no_reorient  #important for SAPT in psi4, default
symmetry c1  #important for SAPT in psi4, default
}

set PROPERTIES_ORIGIN ["COM"]
properties('MP2/aug-cc-pvtz', properties = ['dipole'])
--------------------------------------------------------------------------

    Molecular point group: c1
  Charge       = 0
  Multiplicity = 1
  Basis Set: AUG-CC-PVTZ
    Blend: AUG-CC-PVTZ
  Basis Set: (AUG-CC-PVTZ AUX)
    Blend: AUG-CC-PVTZ-JKFIT

    Orbital Energies [Eh]
    ---------------------

    Doubly Occupied:

       1A    -20.624940     2A    -20.528649     3A    -15.617504
       4A    -11.365727     5A    -11.332690     6A    -11.280470
       7A    -11.279117     8A    -11.246876     9A    -11.229255
      10A    -11.215631    11A     -1.462236    12A     -1.385093
      13A     -1.262782    14A     -1.080121    15A     -1.032070
      16A     -0.990700    17A     -0.954986    18A     -0.836035
      19A     -0.794991    20A     -0.750265    21A     -0.702967
      22A     -0.679767    23A     -0.673165    24A     -0.649051
      25A     -0.622908    26A     -0.592948    27A     -0.590107
      28A     -0.588550    29A     -0.566216    30A     -0.561675
      31A     -0.550409    32A     -0.540378    33A     -0.527217
      34A     -0.434199    35A     -0.431866    36A     -0.391773
      37A     -0.287661

  @DF-RHF Final Energy:  -474.63389193615285

   => Energetics <=

    Nuclear Repulsion Energy =            527.9841987322920431
    One-Electron Energy =               -1693.9141930024441081
    Two-Electron Energy =                 691.2961023339992153
    Total Energy =                       -474.6338919361528497
  Basis Set: (AUG-CC-PVTZ AUX)
    Blend: AUG-CC-PVTZ-RI
    Molecular point group: c1

    Geometry (in Angstrom), charge = 0, multiplicity = 1:

       Center              X                  Y                   Z               Mass
    ------------   -----------------  -----------------  -----------------  -----------------
         O           -1.492370253381     1.063450826125     0.093176426204    15.994914619570
         O            1.493282746619    -1.699238173875     0.046439426204    15.994914619570
         N            0.737624746619     0.454766826125    -0.078481573796    14.003074004430
         C           -0.599467253381     0.035047826125    -0.050037573796    12.000000000000
         C            0.973067746619     1.898205826125    -0.105583573796    12.000000000000
         C            1.744048746619    -0.492751173875     0.019704426204    12.000000000000
         C           -1.253873253381    -1.169453173875    -0.123248573796    12.000000000000
         C           -2.644344253381    -0.856289173875    -0.019905573796    12.000000000000
         C            3.170950746619     0.014424826125     0.081453426204    12.000000000000
         C           -2.745144253381     0.496739826125     0.106698426204    12.000000000000
         H            0.343301746619     2.351709826125    -0.871789573796     1.007825032230
         H            2.013605746619     2.091042826125    -0.350735573796     1.007825032230
         H            0.734664746619     2.357002826125     0.858450426204     1.007825032230
         H           -0.787143153381    -2.144399673875    -0.132684673796     1.007825032230
         H           -3.467789253381    -1.557391173875    -0.039902573796     1.007825032230
         H            3.326825746619     0.710969826125     0.909488426204     1.007825032230
         H            3.464019746619     0.513097826125    -0.847098573796     1.007825032230
         H            3.804179746619    -0.860605173875     0.224215426204     1.007825032230
         H           -3.564047253381     1.192290826125     0.207259426204     1.007825032230

  Basis Set: AUG-CC-PVTZ
    Blend: AUG-CC-PVTZ
  Basis Set: (AUG-CC-PVTZ AUX)
    Blend: AUG-CC-PVTZ-JKFIT
	 Reference Energy          =    -474.6338919361528497 [Eh]
	 Singles Energy            =      -0.0000000000000000 [Eh]
	 Same-Spin Energy          =      -0.4918941399787590 [Eh]
	 Opposite-Spin Energy      =      -1.5282250902590886 [Eh]
	 Correlation Energy        =      -2.0201192302378477 [Eh]
	 Total Energy              =    -476.6540111663907169 [Eh]

	 ================> DF-SCS-MP2 Energies <==================
	-----------------------------------------------------------
	 SCS Same-Spin Scale       =       0.3333333333333333 [-]
	 SCS Opposite-Spin Scale   =       1.2000000000000000 [-]
	 SCS Same-Spin Energy      =      -0.1639647133262530 [Eh]
	 SCS Opposite-Spin Energy  =      -1.8338701083109061 [Eh]
	 SCS Correlation Energy    =      -1.9978348216371591 [Eh]
	 SCS Total Energy          =    -476.6317267577900338 [Eh]
	-----------------------------------------------------------

  Dipole Moment: [D]
     X:     0.6399      Y:     3.2865      Z:    -0.0490     Total:     3.3486

*** Psi4 exiting successfully. Buy a developer a beer!
