                               Psi4 1.3.2 release

  ==> Input File <==

--------------------------------------------------------------------------
#psi4
#
memory 32 gb

molecule  {
0 1
  O       -1.5316190     1.0321650     0.0948010
  O        1.4540340    -1.7305240     0.0480640
  N        0.6983760     0.4234810    -0.0768570
  C       -0.6387160     0.0037620    -0.0484130
  C        0.9338190     1.8669200    -0.1039590
  C        1.7048000    -0.5240370     0.0213290
  C       -1.2931220    -1.2007390    -0.1216240
  C       -2.6835930    -0.8875750    -0.0182810
  C        3.1405269    -0.0224432    -0.0665581
  C       -2.7843930     0.4654540     0.1083230
  H        0.3040530     2.3204240    -0.8701650
  H        1.9743570     2.0597570    -0.3491110
  H        0.6954160     2.3257170     0.8600750
  H       -0.8317010    -2.1668680    -0.2305290
  H       -3.5070380    -1.5886770    -0.0382780
  H        3.2875770     0.6796840     0.9111130
  H        3.4247710     0.4818120    -0.8454740
  H        3.7649310    -0.8918910     0.2258400
  H       -3.6032960     1.1610050     0.2088840
units angstrom
no_reorient  #important for SAPT in psi4, default
symmetry c1  #important for SAPT in psi4, default
}

set PROPERTIES_ORIGIN ["COM"]
properties('MP2/aug-cc-pvtz', properties = ['dipole'])
--------------------------------------------------------------------------

    Molecular point group: c1
  Charge       = 0
  Multiplicity = 1
  Basis Set: AUG-CC-PVTZ
    Blend: AUG-CC-PVTZ
  Basis Set: (AUG-CC-PVTZ AUX)
    Blend: AUG-CC-PVTZ-JKFIT

    Orbital Energies [Eh]
    ---------------------

    Doubly Occupied:

       1A    -20.624990     2A    -20.529378     3A    -15.617717
       4A    -11.367526     5A    -11.332606     6A    -11.280729
       7A    -11.278944     8A    -11.249465     9A    -11.229538
      10A    -11.215897    11A     -1.462300    12A     -1.385522
      13A     -1.262928    14A     -1.080452    15A     -1.032634
      16A     -0.991069    17A     -0.955613    18A     -0.836983
      19A     -0.796039    20A     -0.751462    21A     -0.706002
      22A     -0.688659    23A     -0.673737    24A     -0.648693
      25A     -0.624097    26A     -0.605063    27A     -0.589306
      28A     -0.584205    29A     -0.563371    30A     -0.557851
      31A     -0.548270    32A     -0.540347    33A     -0.515295
      34A     -0.435527    35A     -0.430447    36A     -0.391975
      37A     -0.287765

  @DF-RHF Final Energy:  -474.61015581184614

   => Energetics <=

    Nuclear Repulsion Energy =            527.8723504743894637
    One-Electron Energy =               -1693.6202087311908144
    Two-Electron Energy =                 691.1377024449552664
    Total Energy =                       -474.6101558118461980
  Basis Set: (AUG-CC-PVTZ AUX)
    Blend: AUG-CC-PVTZ-RI
    Molecular point group: c1

    Geometry (in Angstrom), charge = 0, multiplicity = 1:

       Center              X                  Y                   Z               Mass
    ------------   -----------------  -----------------  -----------------  -----------------
         O           -1.493093291993     1.063868620690     0.106809642577    15.994914619570
         O            1.492559708007    -1.698820379310     0.060072642577    15.994914619570
         N            0.736901708007     0.455184620690    -0.064848357423    14.003074004430
         C           -0.600190291993     0.035465620690    -0.036404357423    12.000000000000
         C            0.972344708007     1.898623620690    -0.091950357423    12.000000000000
         C            1.743325708007    -0.492333379310     0.033337642577    12.000000000000
         C           -1.254596291993    -1.169035379310    -0.109615357423    12.000000000000
         C           -2.645067291993    -0.855871379310    -0.006272357423    12.000000000000
         C            3.179052608007     0.009260420690    -0.054549457423    12.000000000000
         C           -2.745867291993     0.497157620690     0.120331642577    12.000000000000
         H            0.342578708007     2.352127620690    -0.858156357423     1.007825032230
         H            2.012882708007     2.091460620690    -0.337102357423     1.007825032230
         H            0.733941708007     2.357420620690     0.872083642577     1.007825032230
         H           -0.793175291993    -2.135164379310    -0.218520357423     1.007825032230
         H           -3.468512291993    -1.556973379310    -0.026269357423     1.007825032230
         H            3.326102708007     0.711387620690     0.923121642577     1.007825032230
         H            3.463296708007     0.513515620690    -0.833465357423     1.007825032230
         H            3.803456708007    -0.860187379310     0.237848642577     1.007825032230
         H           -3.564770291993     1.192708620690     0.220892642577     1.007825032230

  Basis Set: AUG-CC-PVTZ
    Blend: AUG-CC-PVTZ
  Basis Set: (AUG-CC-PVTZ AUX)
    Blend: AUG-CC-PVTZ-JKFIT
	 Reference Energy          =    -474.6101558118461412 [Eh]
	 Singles Energy            =      -0.0000000000000000 [Eh]
	 Same-Spin Energy          =      -0.4922060892722083 [Eh]
	 Opposite-Spin Energy      =      -1.5293154211931350 [Eh]
	 Correlation Energy        =      -2.0215215104653432 [Eh]
	 Total Energy              =    -476.6316773223114751 [Eh]

	 ================> DF-SCS-MP2 Energies <==================
	-----------------------------------------------------------
	 SCS Same-Spin Scale       =       0.3333333333333333 [-]
	 SCS Opposite-Spin Scale   =       1.2000000000000000 [-]
	 SCS Same-Spin Energy      =      -0.1640686964240694 [Eh]
	 SCS Opposite-Spin Energy  =      -1.8351785054317620 [Eh]
	 SCS Correlation Energy    =      -1.9992472018558314 [Eh]
	 SCS Total Energy          =    -476.6094030137019786 [Eh]
	-----------------------------------------------------------

  Dipole Moment: [D]
     X:     0.5854      Y:     3.2536      Z:    -0.1782     Total:     3.3106

*** Psi4 exiting successfully. Buy a developer a beer!
