                               Psi4 1.3.2 release

  ==> Input File <==

--------------------------------------------------------------------------
#psi4
#
memory 32 gb

molecule  {
0 1
  O       -1.5316190     1.0321650     0.0948010
  O        1.4540340    -1.7305240     0.0480640
  N        0.6983760     0.4234810    -0.0768570
  C       -0.6387160     0.0037620    -0.0484130
  C        0.9338190     1.8669200    -0.1039590
  C        1.7048000    -0.5240370     0.0213290
  C       -1.2931220    -1.2007390    -0.1216240
  C       -2.6835930    -0.8875750    -0.0182810
  C        3.1317020    -0.0168610     0.0830780
  C       -2.7843930     0.4654540     0.1083230
  H        0.3040530     2.3204240    -0.8701650
  H        1.9743570     2.0597570    -0.3491110
  H        0.6954160     2.3257170     0.8600750
  H       -0.8317010    -2.1668680    -0.2305290
  H       -3.4964069    -1.6066130     0.1606322
  H        3.2875770     0.6796840     0.9111130
  H        3.4247710     0.4818120    -0.8454740
  H        3.7649310    -0.8918910     0.2258400
  H       -3.6032960     1.1610050     0.2088840
units angstrom
no_reorient  #important for SAPT in psi4, default
symmetry c1  #important for SAPT in psi4, default
}

set PROPERTIES_ORIGIN ["COM"]
properties('MP2/aug-cc-pvtz', properties = ['dipole'])
--------------------------------------------------------------------------

    Molecular point group: c1
  Charge       = 0
  Multiplicity = 1
  Basis Set: AUG-CC-PVTZ
    Blend: AUG-CC-PVTZ
  Basis Set: (AUG-CC-PVTZ AUX)
    Blend: AUG-CC-PVTZ-JKFIT

    Orbital Energies [Eh]
    ---------------------

    Doubly Occupied:

       1A    -20.625246     2A    -20.528561     3A    -15.617454
       4A    -11.365638     5A    -11.332548     6A    -11.281318
       7A    -11.279112     8A    -11.246854     9A    -11.230775
      10A    -11.215536    11A     -1.462525    12A     -1.384985
      13A     -1.262749    14A     -1.080094    15A     -1.032057
      16A     -0.990688    17A     -0.955086    18A     -0.835802
      19A     -0.794096    20A     -0.749893    21A     -0.702692
      22A     -0.679983    23A     -0.672599    24A     -0.649331
      25A     -0.623377    26A     -0.593292    27A     -0.589016
      28A     -0.587209    29A     -0.565380    30A     -0.562883
      31A     -0.549346    32A     -0.540585    33A     -0.527052
      34A     -0.434726    35A     -0.431452    36A     -0.391218
      37A     -0.287842

  @DF-RHF Final Energy:  -474.63196768032918

   => Energetics <=

    Nuclear Repulsion Energy =            527.9247974506961327
    One-Electron Energy =               -1693.7955272535189124
    Two-Electron Energy =                 691.2387621224936538
    Total Energy =                       -474.6319676803291259
  Basis Set: (AUG-CC-PVTZ AUX)
    Blend: AUG-CC-PVTZ-RI
    Molecular point group: c1

    Geometry (in Angstrom), charge = 0, multiplicity = 1:

       Center              X                  Y                   Z               Mass
    ------------   -----------------  -----------------  -----------------  -----------------
         O           -1.492408823181     1.063516910064     0.092455751441    15.994914619570
         O            1.493244176819    -1.699172089936     0.045718751441    15.994914619570
         N            0.737586176819     0.454832910064    -0.079202248559    14.003074004430
         C           -0.599505823181     0.035113910064    -0.050758248559    12.000000000000
         C            0.973029176819     1.898271910064    -0.106304248559    12.000000000000
         C            1.744010176819    -0.492685089936     0.018983751441    12.000000000000
         C           -1.253911823181    -1.169387089936    -0.123969248559    12.000000000000
         C           -2.644382823181    -0.856223089936    -0.020626248559    12.000000000000
         C            3.170912176819     0.014490910064     0.080732751441    12.000000000000
         C           -2.745182823181     0.496805910064     0.105977751441    12.000000000000
         H            0.343263176819     2.351775910064    -0.872510248559     1.007825032230
         H            2.013567176819     2.091108910064    -0.351456248559     1.007825032230
         H            0.734626176819     2.357068910064     0.857729751441     1.007825032230
         H           -0.792490823181    -2.135516089936    -0.232874248559     1.007825032230
         H           -3.457196723181    -1.575261089936     0.158286951441     1.007825032230
         H            3.326787176819     0.711035910064     0.908767751441     1.007825032230
         H            3.463981176819     0.513163910064    -0.847819248559     1.007825032230
         H            3.804141176819    -0.860539089936     0.223494751441     1.007825032230
         H           -3.564085823181     1.192356910064     0.206538751441     1.007825032230

  Basis Set: AUG-CC-PVTZ
    Blend: AUG-CC-PVTZ
  Basis Set: (AUG-CC-PVTZ AUX)
    Blend: AUG-CC-PVTZ-JKFIT
	 Reference Energy          =    -474.6319676803291827 [Eh]
	 Singles Energy            =      -0.0000000000000000 [Eh]
	 Same-Spin Energy          =      -0.4919951756423858 [Eh]
	 Opposite-Spin Energy      =      -1.5284856637738855 [Eh]
	 Correlation Energy        =      -2.0204808394162712 [Eh]
	 Total Energy              =    -476.6524485197454624 [Eh]

	 ================> DF-SCS-MP2 Energies <==================
	-----------------------------------------------------------
	 SCS Same-Spin Scale       =       0.3333333333333333 [-]
	 SCS Opposite-Spin Scale   =       1.2000000000000000 [-]
	 SCS Same-Spin Energy      =      -0.1639983918807953 [Eh]
	 SCS Opposite-Spin Energy  =      -1.8341827965286626 [Eh]
	 SCS Correlation Energy    =      -1.9981811884094578 [Eh]
	 SCS Total Energy          =    -476.6301488687386154 [Eh]
	-----------------------------------------------------------

  Dipole Moment: [D]
     X:     0.6656      Y:     3.2955      Z:     0.0221     Total:     3.3621

*** Psi4 exiting successfully. Buy a developer a beer!
