                               Psi4 1.3.2 release

  ==> Input File <==

--------------------------------------------------------------------------
#psi4
#
memory 32 gb

molecule  {
0 1
  O       -1.5316190     1.0321650     0.0948010
  O        1.4540340    -1.7305240     0.0480640
  N        0.6983760     0.4234810    -0.0768570
  C       -0.6387160     0.0037620    -0.0484130
  C        0.9338190     1.8669200    -0.1039590
  C        1.7048000    -0.5240370     0.0213290
  C       -1.2957096    -1.1961957    -0.1713499
  C       -2.6835930    -0.8875750    -0.0182810
  C        3.1317020    -0.0168610     0.0830780
  C       -2.7843930     0.4654540     0.1083230
  H        0.3040530     2.3204240    -0.8701650
  H        1.9743570     2.0597570    -0.3491110
  H        0.6954160     2.3257170     0.8600750
  H       -0.8317010    -2.1668680    -0.2305290
  H       -3.5070380    -1.5886770    -0.0382780
  H        3.2875770     0.6796840     0.9111130
  H        3.4247710     0.4818120    -0.8454740
  H        3.7649310    -0.8918910     0.2258400
  H       -3.6032960     1.1610050     0.2088840
units angstrom
no_reorient  #important for SAPT in psi4, default
symmetry c1  #important for SAPT in psi4, default
}

set PROPERTIES_ORIGIN ["COM"]
properties('MP2/aug-cc-pvtz', properties = ['dipole'])
--------------------------------------------------------------------------

    Molecular point group: c1
  Charge       = 0
  Multiplicity = 1
  Basis Set: AUG-CC-PVTZ
    Blend: AUG-CC-PVTZ
  Basis Set: (AUG-CC-PVTZ AUX)
    Blend: AUG-CC-PVTZ-JKFIT

    Orbital Energies [Eh]
    ---------------------

    Doubly Occupied:

       1A    -20.624924     2A    -20.528575     3A    -15.617425
       4A    -11.365698     5A    -11.332798     6A    -11.280514
       7A    -11.279067     8A    -11.246867     9A    -11.229421
      10A    -11.215704    11A     -1.462216    12A     -1.384989
      13A     -1.262735    14A     -1.080000    15A     -1.032040
      16A     -0.990659    17A     -0.955003    18A     -0.836092
      19A     -0.794988    20A     -0.750566    21A     -0.702888
      22A     -0.680048    23A     -0.672762    24A     -0.649069
      25A     -0.622932    26A     -0.593020    27A     -0.589976
      28A     -0.588507    29A     -0.566180    30A     -0.562189
      31A     -0.550416    32A     -0.540568    33A     -0.526855
      34A     -0.434645    35A     -0.431361    36A     -0.391756
      37A     -0.287755

  @DF-RHF Final Energy:  -474.63379661641500

   => Energetics <=

    Nuclear Repulsion Energy =            527.9293780152522686
    One-Electron Energy =               -1693.8039352276261980
    Two-Electron Energy =                 691.2407605959589318
    Total Energy =                       -474.6337966164149975
  Basis Set: (AUG-CC-PVTZ AUX)
    Blend: AUG-CC-PVTZ-RI
    Molecular point group: c1

    Geometry (in Angstrom), charge = 0, multiplicity = 1:

       Center              X                  Y                   Z               Mass
    ------------   -----------------  -----------------  -----------------  -----------------
         O           -1.492108488872     1.062994874884     0.098188229493    15.994914619570
         O            1.493544511128    -1.699694125116     0.051451229493    15.994914619570
         N            0.737886511128     0.454310874884    -0.073469770507    14.003074004430
         C           -0.599205488872     0.034591874884    -0.045025770507    12.000000000000
         C            0.973329511128     1.897749874884    -0.100571770507    12.000000000000
         C            1.744310511128    -0.493207125116     0.024716229493    12.000000000000
         C           -1.256199088872    -1.165365825116    -0.167962670507    12.000000000000
         C           -2.644082488872    -0.856745125116    -0.014893770507    12.000000000000
         C            3.171212511128     0.013968874884     0.086465229493    12.000000000000
         C           -2.744882488872     0.496283874884     0.111710229493    12.000000000000
         H            0.343563511128     2.351253874884    -0.866777770507     1.007825032230
         H            2.013867511128     2.090586874884    -0.345723770507     1.007825032230
         H            0.734926511128     2.356546874884     0.863462229493     1.007825032230
         H           -0.792190488872    -2.136038125116    -0.227141770507     1.007825032230
         H           -3.467527488872    -1.557847125116    -0.034890770507     1.007825032230
         H            3.327087511128     0.710513874884     0.914500229493     1.007825032230
         H            3.464281511128     0.512641874884    -0.842086770507     1.007825032230
         H            3.804441511128    -0.861061125116     0.229227229493     1.007825032230
         H           -3.563785488872     1.191834874884     0.212271229493     1.007825032230

  Basis Set: AUG-CC-PVTZ
    Blend: AUG-CC-PVTZ
  Basis Set: (AUG-CC-PVTZ AUX)
    Blend: AUG-CC-PVTZ-JKFIT
	 Reference Energy          =    -474.6337966164149975 [Eh]
	 Singles Energy            =      -0.0000000000000000 [Eh]
	 Same-Spin Energy          =      -0.4918677067988106 [Eh]
	 Opposite-Spin Energy      =      -1.5281930546009703 [Eh]
	 Correlation Energy        =      -2.0200607613997810 [Eh]
	 Total Energy              =    -476.6538573778148020 [Eh]

	 ================> DF-SCS-MP2 Energies <==================
	-----------------------------------------------------------
	 SCS Same-Spin Scale       =       0.3333333333333333 [-]
	 SCS Opposite-Spin Scale   =       1.2000000000000000 [-]
	 SCS Same-Spin Energy      =      -0.1639559022662702 [Eh]
	 SCS Opposite-Spin Energy  =      -1.8338316655211644 [Eh]
	 SCS Correlation Energy    =      -1.9977875677874346 [Eh]
	 SCS Total Energy          =    -476.6315841842024383 [Eh]
	-----------------------------------------------------------

  Dipole Moment: [D]
     X:     0.6368      Y:     3.2854      Z:    -0.0879     Total:     3.3477

*** Psi4 exiting successfully. Buy a developer a beer!
