                               Psi4 1.3.2 release

  ==> Input File <==

--------------------------------------------------------------------------
#psi4
#
memory 32 gb

molecule  {
0 1
  O       -1.5316190     1.0321650     0.0948010
  O        1.4540340    -1.7305240     0.0480640
  N        0.6983760     0.4234810    -0.0768570
  C       -0.6387160     0.0037620    -0.0484130
  C        0.9338190     1.8669200    -0.1039590
  C        1.7048000    -0.5240370     0.0213290
  C       -1.2931220    -1.2007390    -0.1216240
  C       -2.6835930    -0.8875750    -0.0182810
  C        3.1317020    -0.0168610     0.0830780
  C       -2.7843930     0.4654540     0.1083230
  H        0.3040530     2.3204240    -0.8701650
  H        1.9743570     2.0597570    -0.3491110
  H        0.6954160     2.3257170     0.8600750
  H       -0.8184282    -2.1889117     0.0181433
  H       -3.5070380    -1.5886770    -0.0382780
  H        3.2875770     0.6796840     0.9111130
  H        3.4247710     0.4818120    -0.8454740
  H        3.7649310    -0.8918910     0.2258400
  H       -3.6032960     1.1610050     0.2088840
units angstrom
no_reorient  #important for SAPT in psi4, default
symmetry c1  #important for SAPT in psi4, default
}

set PROPERTIES_ORIGIN ["COM"]
properties('MP2/aug-cc-pvtz', properties = ['dipole'])
--------------------------------------------------------------------------

    Molecular point group: c1
  Charge       = 0
  Multiplicity = 1
  Basis Set: AUG-CC-PVTZ
    Blend: AUG-CC-PVTZ
  Basis Set: (AUG-CC-PVTZ AUX)
    Blend: AUG-CC-PVTZ-JKFIT

    Orbital Energies [Eh]
    ---------------------

    Doubly Occupied:

       1A    -20.625268     2A    -20.528885     3A    -15.617930
       4A    -11.366007     5A    -11.333576     6A    -11.280493
       7A    -11.279378     8A    -11.247055     9A    -11.229086
      10A    -11.216979    11A     -1.462610    12A     -1.385372
      13A     -1.263165    14A     -1.079827    15A     -1.032288
      16A     -0.990878    17A     -0.955115    18A     -0.835656
      19A     -0.794868    20A     -0.747677    21A     -0.703193
      22A     -0.679802    23A     -0.673707    24A     -0.648862
      25A     -0.623229    26A     -0.593121    27A     -0.590152
      28A     -0.588713    29A     -0.566390    30A     -0.556678
      31A     -0.550526    32A     -0.539706    33A     -0.527408
      34A     -0.434059    35A     -0.432024    36A     -0.391133
      37A     -0.287882

  @DF-RHF Final Energy:  -474.63060011865718

   => Energetics <=

    Nuclear Repulsion Energy =            527.9044445728162600
    One-Electron Energy =               -1693.7526900677162303
    Two-Electron Energy =                 691.2176453762426718
    Total Energy =                       -474.6306001186571848
  Basis Set: (AUG-CC-PVTZ AUX)
    Blend: AUG-CC-PVTZ-RI
    Molecular point group: c1

    Geometry (in Angstrom), charge = 0, multiplicity = 1:

       Center              X                  Y                   Z               Mass
    ------------   -----------------  -----------------  -----------------  -----------------
         O           -1.492427968210     1.063546679544     0.092095113661    15.994914619570
         O            1.493225031790    -1.699142320456     0.045358113661    15.994914619570
         N            0.737567031790     0.454862679544    -0.079562886339    14.003074004430
         C           -0.599524968210     0.035143679544    -0.051118886339    12.000000000000
         C            0.973010031790     1.898301679544    -0.106664886339    12.000000000000
         C            1.743991031790    -0.492655320456     0.018623113661    12.000000000000
         C           -1.253930968210    -1.169357320456    -0.124329886339    12.000000000000
         C           -2.644401968210    -0.856193320456    -0.020986886339    12.000000000000
         C            3.170893031790     0.014520679544     0.080372113661    12.000000000000
         C           -2.745201968210     0.496835679544     0.105617113661    12.000000000000
         H            0.343244031790     2.351805679544    -0.872870886339     1.007825032230
         H            2.013548031790     2.091138679544    -0.351816886339     1.007825032230
         H            0.734607031790     2.357098679544     0.857369113661     1.007825032230
         H           -0.779237168210    -2.157530020456     0.015437413661     1.007825032230
         H           -3.467846968210    -1.557295320456    -0.040983886339     1.007825032230
         H            3.326768031790     0.711065679544     0.908407113661     1.007825032230
         H            3.463962031790     0.513193679544    -0.848179886339     1.007825032230
         H            3.804122031790    -0.860509320456     0.223134113661     1.007825032230
         H           -3.564104968210     1.192386679544     0.206178113661     1.007825032230

  Basis Set: AUG-CC-PVTZ
    Blend: AUG-CC-PVTZ
  Basis Set: (AUG-CC-PVTZ AUX)
    Blend: AUG-CC-PVTZ-JKFIT
	 Reference Energy          =    -474.6306001186571848 [Eh]
	 Singles Energy            =      -0.0000000000000000 [Eh]
	 Same-Spin Energy          =      -0.4920591028487548 [Eh]
	 Opposite-Spin Energy      =      -1.5285862853617147 [Eh]
	 Correlation Energy        =      -2.0206453882104696 [Eh]
	 Total Energy              =    -476.6512455068676672 [Eh]

	 ================> DF-SCS-MP2 Energies <==================
	-----------------------------------------------------------
	 SCS Same-Spin Scale       =       0.3333333333333333 [-]
	 SCS Opposite-Spin Scale   =       1.2000000000000000 [-]
	 SCS Same-Spin Energy      =      -0.1640197009495849 [Eh]
	 SCS Opposite-Spin Energy  =      -1.8343035424340575 [Eh]
	 SCS Correlation Energy    =      -1.9983232433836424 [Eh]
	 SCS Total Energy          =    -476.6289233620408368 [Eh]
	-----------------------------------------------------------

  Dipole Moment: [D]
     X:     0.6523      Y:     3.3092      Z:     0.0742     Total:     3.3737

*** Psi4 exiting successfully. Buy a developer a beer!
