                               Psi4 1.3.2 release

  ==> Input File <==

--------------------------------------------------------------------------
#psi4
#
memory 32 gb

molecule  {
0 1
  O       -1.5316190     1.0321650     0.0948010
  O        1.4540340    -1.7305240     0.0480640
  N        0.6983760     0.4234810    -0.0768570
  C       -0.6387160     0.0037620    -0.0484130
  C        0.9338190     1.8669200    -0.1039590
  C        1.7048000    -0.5240370     0.0213290
  C       -1.3008849    -1.1871091    -0.2708016
  C       -2.6835930    -0.8875750    -0.0182810
  C        3.1317020    -0.0168610     0.0830780
  C       -2.7843930     0.4654540     0.1083230
  H        0.3040530     2.3204240    -0.8701650
  H        1.9743570     2.0597570    -0.3491110
  H        0.6954160     2.3257170     0.8600750
  H       -0.8317010    -2.1668680    -0.2305290
  H       -3.5070380    -1.5886770    -0.0382780
  H        3.2875770     0.6796840     0.9111130
  H        3.4247710     0.4818120    -0.8454740
  H        3.7649310    -0.8918910     0.2258400
  H       -3.6032960     1.1610050     0.2088840
units angstrom
no_reorient  #important for SAPT in psi4, default
symmetry c1  #important for SAPT in psi4, default
}

set PROPERTIES_ORIGIN ["COM"]
properties('MP2/aug-cc-pvtz', properties = ['dipole'])
--------------------------------------------------------------------------

    Molecular point group: c1
  Charge       = 0
  Multiplicity = 1
  Basis Set: AUG-CC-PVTZ
    Blend: AUG-CC-PVTZ
  Basis Set: (AUG-CC-PVTZ AUX)
    Blend: AUG-CC-PVTZ-JKFIT

    Orbital Energies [Eh]
    ---------------------

    Doubly Occupied:

       1A    -20.625512     2A    -20.529108     3A    -15.618081
       4A    -11.366311     5A    -11.335395     6A    -11.280540
       7A    -11.279442     8A    -11.247271     9A    -11.229981
      10A    -11.217208    11A     -1.462769    12A     -1.385470
      13A     -1.263427    14A     -1.078294    15A     -1.032416
      16A     -0.990798    17A     -0.955284    18A     -0.836136
      19A     -0.794472    20A     -0.748802    21A     -0.703158
      22A     -0.680877    23A     -0.672805    24A     -0.648940
      25A     -0.623559    26A     -0.593478    27A     -0.589987
      28A     -0.588861    29A     -0.566345    30A     -0.557767
      31A     -0.550633    32A     -0.539336    33A     -0.526386
      34A     -0.434806    35A     -0.431419    36A     -0.390987
      37A     -0.288255

  @DF-RHF Final Energy:  -474.62854974932793

   => Energetics <=

    Nuclear Repulsion Energy =            527.6287829689293858
    One-Electron Energy =               -1693.1860271041355190
    Two-Electron Energy =                 690.9286943858780887
    Total Energy =                       -474.6285497493279308
  Basis Set: (AUG-CC-PVTZ AUX)
    Blend: AUG-CC-PVTZ-RI
    Molecular point group: c1

    Geometry (in Angstrom), charge = 0, multiplicity = 1:

       Center              X                  Y                   Z               Mass
    ------------   -----------------  -----------------  -----------------  -----------------
         O           -1.491661903847     1.062210777443     0.106770077869    15.994914619570
         O            1.493991096153    -1.700478222557     0.060033077869    15.994914619570
         N            0.738333096153     0.453526777443    -0.064887922131    14.003074004430
         C           -0.598758903847     0.033807777443    -0.036443922131    12.000000000000
         C            0.973776096153     1.896965777443    -0.091989922131    12.000000000000
         C            1.744757096153    -0.493991222557     0.033298077869    12.000000000000
         C           -1.260927803847    -1.157063322557    -0.258832522131    12.000000000000
         C           -2.643635903847    -0.857529222557    -0.006311922131    12.000000000000
         C            3.171659096153     0.013184777443     0.095047077869    12.000000000000
         C           -2.744435903847     0.495499777443     0.120292077869    12.000000000000
         H            0.344010096153     2.350469777443    -0.858195922131     1.007825032230
         H            2.014314096153     2.089802777443    -0.337141922131     1.007825032230
         H            0.735373096153     2.355762777443     0.872044077869     1.007825032230
         H           -0.791743903847    -2.136822222557    -0.218559922131     1.007825032230
         H           -3.467080903847    -1.558631222557    -0.026308922131     1.007825032230
         H            3.327534096153     0.709729777443     0.923082077869     1.007825032230
         H            3.464728096153     0.511857777443    -0.833504922131     1.007825032230
         H            3.804888096153    -0.861845222557     0.237809077869     1.007825032230
         H           -3.563338903847     1.191050777443     0.220853077869     1.007825032230

  Basis Set: AUG-CC-PVTZ
    Blend: AUG-CC-PVTZ
  Basis Set: (AUG-CC-PVTZ AUX)
    Blend: AUG-CC-PVTZ-JKFIT
	 Reference Energy          =    -474.6285497493279308 [Eh]
	 Singles Energy            =      -0.0000000000000000 [Eh]
	 Same-Spin Energy          =      -0.4920557857657692 [Eh]
	 Opposite-Spin Energy      =      -1.5288307089335087 [Eh]
	 Correlation Energy        =      -2.0208864946992779 [Eh]
	 Total Energy              =    -476.6494362440271857 [Eh]

	 ================> DF-SCS-MP2 Energies <==================
	-----------------------------------------------------------
	 SCS Same-Spin Scale       =       0.3333333333333333 [-]
	 SCS Opposite-Spin Scale   =       1.2000000000000000 [-]
	 SCS Same-Spin Energy      =      -0.1640185952552564 [Eh]
	 SCS Opposite-Spin Energy  =      -1.8345968507202104 [Eh]
	 SCS Correlation Energy    =      -1.9986154459754668 [Eh]
	 SCS Total Energy          =    -476.6271651953034052 [Eh]
	-----------------------------------------------------------

  Dipole Moment: [D]
     X:     0.6589      Y:     3.3146      Z:     0.0026     Total:     3.3795

*** Psi4 exiting successfully. Buy a developer a beer!
