                               Psi4 1.3.2 release

  ==> Input File <==

--------------------------------------------------------------------------
#psi4
#
memory 32 gb

molecule  {
0 1
  O       -1.5316190     1.0321650     0.0948010
  O        1.4540340    -1.7305240     0.0480640
  N        0.6983760     0.4234810    -0.0768570
  C       -0.6387160     0.0037620    -0.0484130
  C        0.9338190     1.8669200    -0.1039590
  C        1.7048000    -0.5240370     0.0213290
  C       -1.2931220    -1.2007390    -0.1216240
  C       -2.6835930    -0.8875750    -0.0182810
  C        3.1317020    -0.0168610     0.0830780
  C       -2.7843930     0.4654540     0.1083230
  H        0.3040530     2.3204240    -0.8701650
  H        1.9743570     2.0597570    -0.3491110
  H        0.6954160     2.3257170     0.8600750
  H       -0.8317010    -2.1668680    -0.2305290
  H       -3.4937491    -1.6110970     0.2103598
  H        3.2875770     0.6796840     0.9111130
  H        3.4247710     0.4818120    -0.8454740
  H        3.7649310    -0.8918910     0.2258400
  H       -3.6032960     1.1610050     0.2088840
units angstrom
no_reorient  #important for SAPT in psi4, default
symmetry c1  #important for SAPT in psi4, default
}

set PROPERTIES_ORIGIN ["COM"]
properties('MP2/aug-cc-pvtz', properties = ['dipole'])
--------------------------------------------------------------------------

    Molecular point group: c1
  Charge       = 0
  Multiplicity = 1
  Basis Set: AUG-CC-PVTZ
    Blend: AUG-CC-PVTZ
  Basis Set: (AUG-CC-PVTZ AUX)
    Blend: AUG-CC-PVTZ-JKFIT

    Orbital Energies [Eh]
    ---------------------

    Doubly Occupied:

       1A    -20.625468     2A    -20.528597     3A    -15.617491
       4A    -11.365671     5A    -11.332598     6A    -11.281770
       7A    -11.279159     8A    -11.246884     9A    -11.231587
      10A    -11.215570    11A     -1.462737    12A     -1.385022
      13A     -1.262802    14A     -1.080044    15A     -1.032101
      16A     -0.990716    17A     -0.955168    18A     -0.835662
      19A     -0.793630    20A     -0.749400    21A     -0.702600
      22A     -0.679996    23A     -0.672561    24A     -0.649478
      25A     -0.623602    26A     -0.593335    27A     -0.588984
      28A     -0.586404    29A     -0.564984    30A     -0.562916
      31A     -0.548601    32A     -0.540542    33A     -0.527063
      34A     -0.434779    35A     -0.431488    36A     -0.390925
      37A     -0.287973

  @DF-RHF Final Energy:  -474.63046261719376

   => Energetics <=

    Nuclear Repulsion Energy =            527.8884943682295443
    One-Electron Energy =               -1693.7212981223342467
    Two-Electron Energy =                 691.2023411369108317
    Total Energy =                       -474.6304626171937571
  Basis Set: (AUG-CC-PVTZ AUX)
    Blend: AUG-CC-PVTZ-RI
    Molecular point group: c1

    Geometry (in Angstrom), charge = 0, multiplicity = 1:

       Center              X                  Y                   Z               Mass
    ------------   -----------------  -----------------  -----------------  -----------------
         O           -1.492428084890     1.063549406679     0.092095363691    15.994914619570
         O            1.493224915110    -1.699139593321     0.045358363691    15.994914619570
         N            0.737566915110     0.454865406679    -0.079562636309    14.003074004430
         C           -0.599525084890     0.035146406679    -0.051118636309    12.000000000000
         C            0.973009915110     1.898304406679    -0.106664636309    12.000000000000
         C            1.743990915110    -0.492652593321     0.018623363691    12.000000000000
         C           -1.253931084890    -1.169354593321    -0.124329636309    12.000000000000
         C           -2.644402084890    -0.856190593321    -0.020986636309    12.000000000000
         C            3.170892915110     0.014523406679     0.080372363691    12.000000000000
         C           -2.745202084890     0.496838406679     0.105617363691    12.000000000000
         H            0.343243915110     2.351808406679    -0.872870636309     1.007825032230
         H            2.013547915110     2.091141406679    -0.351816636309     1.007825032230
         H            0.734606915110     2.357101406679     0.857369363691     1.007825032230
         H           -0.792510084890    -2.135483593321    -0.233234636309     1.007825032230
         H           -3.454558184890    -1.579712593321     0.207654163691     1.007825032230
         H            3.326767915110     0.711068406679     0.908407363691     1.007825032230
         H            3.463961915110     0.513196406679    -0.848179636309     1.007825032230
         H            3.804121915110    -0.860506593321     0.223134363691     1.007825032230
         H           -3.564105084890     1.192389406679     0.206178363691     1.007825032230

  Basis Set: AUG-CC-PVTZ
    Blend: AUG-CC-PVTZ
  Basis Set: (AUG-CC-PVTZ AUX)
    Blend: AUG-CC-PVTZ-JKFIT
	 Reference Energy          =    -474.6304626171937571 [Eh]
	 Singles Energy            =      -0.0000000000000000 [Eh]
	 Same-Spin Energy          =      -0.4920653304497861 [Eh]
	 Opposite-Spin Energy      =      -1.5286711351129885 [Eh]
	 Correlation Energy        =      -2.0207364655627744 [Eh]
	 Total Energy              =    -476.6511990827565342 [Eh]

	 ================> DF-SCS-MP2 Energies <==================
	-----------------------------------------------------------
	 SCS Same-Spin Scale       =       0.3333333333333333 [-]
	 SCS Opposite-Spin Scale   =       1.2000000000000000 [-]
	 SCS Same-Spin Energy      =      -0.1640217768165954 [Eh]
	 SCS Opposite-Spin Energy  =      -1.8344053621355860 [Eh]
	 SCS Correlation Energy    =      -1.9984271389521813 [Eh]
	 SCS Total Energy          =    -476.6288897561459521 [Eh]
	-----------------------------------------------------------

  Dipole Moment: [D]
     X:     0.6812      Y:     3.3054      Z:     0.0596     Total:     3.3754

*** Psi4 exiting successfully. Buy a developer a beer!
