                               Psi4 1.3.2 release

  ==> Input File <==

--------------------------------------------------------------------------
#psi4
#
memory 32 gb

molecule  {
0 1
  O       -1.5316190     1.0321650     0.0948010
  O        1.4540340    -1.7305240     0.0480640
  N        0.6983760     0.4234810    -0.0768570
  C       -0.6387160     0.0037620    -0.0484130
  C        0.9338190     1.8669200    -0.1039590
  C        1.7048000    -0.5240370     0.0213290
  C       -1.2931220    -1.2007390    -0.1216240
  C       -2.6835930    -0.8875750    -0.0182810
  C        3.1317020    -0.0168610     0.0830780
  C       -2.7843930     0.4654540     0.1083230
  H        0.3040530     2.3204240    -0.8701650
  H        1.9743570     2.0597570    -0.3491110
  H        0.6954160     2.3257170     0.8600750
  H       -0.8317010    -2.1668680    -0.2305290
  H       -3.5070380    -1.5886770    -0.0382780
  H        3.2875770     0.6796840     0.9111130
  H        3.4247710     0.4818120    -0.8454740
  H        3.7649310    -0.8918910     0.2258400
  H       -3.6131563     1.1786426     0.0099074
units angstrom
no_reorient  #important for SAPT in psi4, default
symmetry c1  #important for SAPT in psi4, default
}

set PROPERTIES_ORIGIN ["COM"]
properties('MP2/aug-cc-pvtz', properties = ['dipole'])
--------------------------------------------------------------------------

    Molecular point group: c1
  Charge       = 0
  Multiplicity = 1
  Basis Set: AUG-CC-PVTZ
    Blend: AUG-CC-PVTZ
  Basis Set: (AUG-CC-PVTZ AUX)
    Blend: AUG-CC-PVTZ-JKFIT

    Orbital Energies [Eh]
    ---------------------

    Doubly Occupied:

       1A    -20.624645     2A    -20.528797     3A    -15.617737
       4A    -11.365870     5A    -11.333053     6A    -11.281443
       7A    -11.279211     8A    -11.246993     9A    -11.229928
      10A    -11.215831    11A     -1.462098    12A     -1.385209
      13A     -1.262949    14A     -1.080546    15A     -1.032027
      16A     -0.990511    17A     -0.954689    18A     -0.836175
      19A     -0.793481    20A     -0.750956    21A     -0.702389
      22A     -0.680361    23A     -0.672633    24A     -0.646829
      25A     -0.622519    26A     -0.593313    27A     -0.589485
      28A     -0.588781    29A     -0.566242    30A     -0.562492
      31A     -0.550450    32A     -0.539658    33A     -0.526797
      34A     -0.434873    35A     -0.431487    36A     -0.391858
      37A     -0.287956

  @DF-RHF Final Energy:  -474.63228873452732

   => Energetics <=

    Nuclear Repulsion Energy =            527.9157635744579693
    One-Electron Energy =               -1693.7755591219640792
    Two-Electron Energy =                 691.2275068129788451
    Total Energy =                       -474.6322887345272648
  Basis Set: (AUG-CC-PVTZ AUX)
    Blend: AUG-CC-PVTZ-RI
    Molecular point group: c1

    Geometry (in Angstrom), charge = 0, multiplicity = 1:

       Center              X                  Y                   Z               Mass
    ------------   -----------------  -----------------  -----------------  -----------------
         O           -1.492260317129     1.063259099720     0.095339331758    15.994914619570
         O            1.493392682871    -1.699429900280     0.048602331758    15.994914619570
         N            0.737734682871     0.454575099720    -0.076318668242    14.003074004430
         C           -0.599357317129     0.034856099720    -0.047874668242    12.000000000000
         C            0.973177682871     1.898014099720    -0.103420668242    12.000000000000
         C            1.744158682871    -0.492942900280     0.021867331758    12.000000000000
         C           -1.253763317129    -1.169644900280    -0.121085668242    12.000000000000
         C           -2.644234317129    -0.856480900280    -0.017742668242    12.000000000000
         C            3.171060682871     0.014233099720     0.083616331758    12.000000000000
         C           -2.745034317129     0.496548099720     0.108861331758    12.000000000000
         H            0.343411682871     2.351518099720    -0.869626668242     1.007825032230
         H            2.013715682871     2.090851099720    -0.348572668242     1.007825032230
         H            0.734774682871     2.356811099720     0.860613331758     1.007825032230
         H           -0.792342317129    -2.135773900280    -0.229990668242     1.007825032230
         H           -3.467679317129    -1.557582900280    -0.037739668242     1.007825032230
         H            3.326935682871     0.710778099720     0.911651331758     1.007825032230
         H            3.464129682871     0.512906099720    -0.844935668242     1.007825032230
         H            3.804289682871    -0.860796900280     0.226378331758     1.007825032230
         H           -3.573797617129     1.209736699720     0.010445731758     1.007825032230

  Basis Set: AUG-CC-PVTZ
    Blend: AUG-CC-PVTZ
  Basis Set: (AUG-CC-PVTZ AUX)
    Blend: AUG-CC-PVTZ-JKFIT
	 Reference Energy          =    -474.6322887345273216 [Eh]
	 Singles Energy            =      -0.0000000000000000 [Eh]
	 Same-Spin Energy          =      -0.4920170031640925 [Eh]
	 Opposite-Spin Energy      =      -1.5284963782828123 [Eh]
	 Correlation Energy        =      -2.0205133814469045 [Eh]
	 Total Energy              =    -476.6528021159742252 [Eh]

	 ================> DF-SCS-MP2 Energies <==================
	-----------------------------------------------------------
	 SCS Same-Spin Scale       =       0.3333333333333333 [-]
	 SCS Opposite-Spin Scale   =       1.2000000000000000 [-]
	 SCS Same-Spin Energy      =      -0.1640056677213642 [Eh]
	 SCS Opposite-Spin Energy  =      -1.8341956539393747 [Eh]
	 SCS Correlation Energy    =      -1.9982013216607388 [Eh]
	 SCS Total Energy          =    -476.6304900561880800 [Eh]
	-----------------------------------------------------------

  Dipole Moment: [D]
     X:     0.6702      Y:     3.2692      Z:    -0.3111     Total:     3.3517

*** Psi4 exiting successfully. Buy a developer a beer!
