                               Psi4 1.3.2 release

  ==> Input File <==

--------------------------------------------------------------------------
#psi4
#
memory 32 gb

molecule  {
0 1
  O       -1.5316190     1.0321650     0.0948010
  O        1.4540340    -1.7305240     0.0480640
  N        0.6983760     0.4234810    -0.0768570
  C       -0.6387160     0.0037620    -0.0484130
  C        0.9338190     1.8669200    -0.1039590
  C        1.7048000    -0.5240370     0.0213290
  C       -1.3086478    -1.1734791    -0.4199792
  C       -2.6835930    -0.8875750    -0.0182810
  C        3.1317020    -0.0168610     0.0830780
  C       -2.7843930     0.4654540     0.1083230
  H        0.3040530     2.3204240    -0.8701650
  H        1.9743570     2.0597570    -0.3491110
  H        0.6954160     2.3257170     0.8600750
  H       -0.8317010    -2.1668680    -0.2305290
  H       -3.5070380    -1.5886770    -0.0382780
  H        3.2875770     0.6796840     0.9111130
  H        3.4247710     0.4818120    -0.8454740
  H        3.7649310    -0.8918910     0.2258400
  H       -3.6032960     1.1610050     0.2088840
units angstrom
no_reorient  #important for SAPT in psi4, default
symmetry c1  #important for SAPT in psi4, default
}

set PROPERTIES_ORIGIN ["COM"]
properties('MP2/aug-cc-pvtz', properties = ['dipole'])
--------------------------------------------------------------------------

    Molecular point group: c1
  Charge       = 0
  Multiplicity = 1
  Basis Set: AUG-CC-PVTZ
    Blend: AUG-CC-PVTZ
  Basis Set: (AUG-CC-PVTZ AUX)
    Blend: AUG-CC-PVTZ-JKFIT

    Orbital Energies [Eh]
    ---------------------

    Doubly Occupied:

       1A    -20.627474     2A    -20.530802     3A    -15.620536
       4A    -11.368156     5A    -11.343836     6A    -11.280814
       7A    -11.280597     8A    -11.248536     9A    -11.231546
      10A    -11.222078    11A     -1.464609    12A     -1.387029
      13A     -1.265788    14A     -1.072601    15A     -1.033646
      16A     -0.991361    17A     -0.956045    18A     -0.836355
      19A     -0.792807    20A     -0.743712    21A     -0.704169
      22A     -0.682992    23A     -0.673497    24A     -0.648639
      25A     -0.625161    26A     -0.594902    27A     -0.590372
      28A     -0.590054    29A     -0.567023    30A     -0.551597
      31A     -0.544452    32A     -0.534465    33A     -0.523945
      34A     -0.435447    35A     -0.431685    36A     -0.388566
      37A     -0.289522

  @DF-RHF Final Energy:  -474.61026199884259

   => Energetics <=

    Nuclear Repulsion Energy =            526.7469737877503348
    One-Electron Energy =               -1691.3648365562676190
    Two-Electron Energy =                 690.0076007696745819
    Total Energy =                       -474.6102619988425886
  Basis Set: (AUG-CC-PVTZ AUX)
    Blend: AUG-CC-PVTZ-RI
    Molecular point group: c1

    Geometry (in Angstrom), charge = 0, multiplicity = 1:

       Center              X                  Y                   Z               Mass
    ------------   -----------------  -----------------  -----------------  -----------------
         O           -1.490992030625     1.061034622653     0.119642854746    15.994914619570
         O            1.494660969375    -1.701654377347     0.072905854746    15.994914619570
         N            0.739002969375     0.452350622653    -0.052015145254    14.003074004430
         C           -0.598089030625     0.032631622653    -0.023571145254    12.000000000000
         C            0.974445969375     1.895789622653    -0.079117145254    12.000000000000
         C            1.745426969375    -0.495167377347     0.046170854746    12.000000000000
         C           -1.268020830625    -1.144609477347    -0.395137345254    12.000000000000
         C           -2.642966030625    -0.858705377347     0.006560854746    12.000000000000
         C            3.172328969375     0.012008622653     0.107919854746    12.000000000000
         C           -2.743766030625     0.494323622653     0.133164854746    12.000000000000
         H            0.344679969375     2.349293622653    -0.845323145254     1.007825032230
         H            2.014983969375     2.088626622653    -0.324269145254     1.007825032230
         H            0.736042969375     2.354586622653     0.884916854746     1.007825032230
         H           -0.791074030625    -2.137998377347    -0.205687145254     1.007825032230
         H           -3.466411030625    -1.559807377347    -0.013436145254     1.007825032230
         H            3.328203969375     0.708553622653     0.935954854746     1.007825032230
         H            3.465397969375     0.510681622653    -0.820632145254     1.007825032230
         H            3.805557969375    -0.863021377347     0.250681854746     1.007825032230
         H           -3.562669030625     1.189874622653     0.233725854746     1.007825032230

  Basis Set: AUG-CC-PVTZ
    Blend: AUG-CC-PVTZ
  Basis Set: (AUG-CC-PVTZ AUX)
    Blend: AUG-CC-PVTZ-JKFIT
	 Reference Energy          =    -474.6102619988425886 [Eh]
	 Singles Energy            =      -0.0000000000000000 [Eh]
	 Same-Spin Energy          =      -0.4927535744472142 [Eh]
	 Opposite-Spin Energy      =      -1.5314228404838741 [Eh]
	 Correlation Energy        =      -2.0241764149310884 [Eh]
	 Total Energy              =    -476.6344384137736938 [Eh]

	 ================> DF-SCS-MP2 Energies <==================
	-----------------------------------------------------------
	 SCS Same-Spin Scale       =       0.3333333333333333 [-]
	 SCS Opposite-Spin Scale   =       1.2000000000000000 [-]
	 SCS Same-Spin Energy      =      -0.1642511914824047 [Eh]
	 SCS Opposite-Spin Energy  =      -1.8377074085806488 [Eh]
	 SCS Correlation Energy    =      -2.0019586000630536 [Eh]
	 SCS Total Energy          =    -476.6122205989056511 [Eh]
	-----------------------------------------------------------

  Dipole Moment: [D]
     X:     0.7283      Y:     3.4194      Z:     0.1523     Total:     3.4995

*** Psi4 exiting successfully. Buy a developer a beer!
