                               Psi4 1.3.2 release

  ==> Input File <==

--------------------------------------------------------------------------
#psi4
#
memory 32 gb

molecule  {
0 1
  O       -1.5316190     1.0321650     0.0948010
  O        1.4540340    -1.7305240     0.0480640
  N        0.6983760     0.4234810    -0.0768570
  C       -0.6387160     0.0037620    -0.0484130
  C        0.9338190     1.8669200    -0.1039590
  C        1.7048000    -0.5240370     0.0213290
  C       -1.3060602    -1.1780224    -0.3702534
  C       -2.6835930    -0.8875750    -0.0182810
  C        3.1317020    -0.0168610     0.0830780
  C       -2.7843930     0.4654540     0.1083230
  H        0.3040530     2.3204240    -0.8701650
  H        1.9743570     2.0597570    -0.3491110
  H        0.6954160     2.3257170     0.8600750
  H       -0.8317010    -2.1668680    -0.2305290
  H       -3.5070380    -1.5886770    -0.0382780
  H        3.2875770     0.6796840     0.9111130
  H        3.4247710     0.4818120    -0.8454740
  H        3.7649310    -0.8918910     0.2258400
  H       -3.6032960     1.1610050     0.2088840
units angstrom
no_reorient  #important for SAPT in psi4, default
symmetry c1  #important for SAPT in psi4, default
}

set PROPERTIES_ORIGIN ["COM"]
properties('MP2/aug-cc-pvtz', properties = ['dipole'])
--------------------------------------------------------------------------

    Molecular point group: c1
  Charge       = 0
  Multiplicity = 1
  Basis Set: AUG-CC-PVTZ
    Blend: AUG-CC-PVTZ
  Basis Set: (AUG-CC-PVTZ AUX)
    Blend: AUG-CC-PVTZ-JKFIT

    Orbital Energies [Eh]
    ---------------------

    Doubly Occupied:

       1A    -20.626677     2A    -20.530121     3A    -15.619526
       4A    -11.367420     5A    -11.340465     6A    -11.280560
       7A    -11.280251     8A    -11.248028     9A    -11.230955
      10A    -11.220128    11A     -1.463862    12A     -1.386400
      13A     -1.264830    14A     -1.074904    15A     -1.033146
      16A     -0.991120    17A     -0.955757    18A     -0.836269
      19A     -0.793450    20A     -0.745647    21A     -0.703744
      22A     -0.682170    23A     -0.673198    24A     -0.648730
      25A     -0.624568    26A     -0.594335    27A     -0.590141
      28A     -0.589597    29A     -0.566726    30A     -0.551460
      31A     -0.549213    32A     -0.536463    33A     -0.525272
      34A     -0.435180    35A     -0.431585    36A     -0.389511
      37A     -0.289012

  @DF-RHF Final Energy:  -474.61778965355973

   => Energetics <=

    Nuclear Repulsion Energy =            527.0955539223971300
    One-Electron Energy =               -1692.0858359104790907
    Two-Electron Energy =                 690.3724923345222351
    Total Energy =                       -474.6177896535597256
  Basis Set: (AUG-CC-PVTZ AUX)
    Blend: AUG-CC-PVTZ-RI
    Molecular point group: c1

    Geometry (in Angstrom), charge = 0, multiplicity = 1:

       Center              X                  Y                   Z               Mass
    ------------   -----------------  -----------------  -----------------  -----------------
         O           -1.491215318823     1.061426671374     0.115351934873    15.994914619570
         O            1.494437681177    -1.701262328626     0.068614934873    15.994914619570
         N            0.738779681177     0.452742671374    -0.056306065127    14.003074004430
         C           -0.598312318823     0.033023671374    -0.027862065127    12.000000000000
         C            0.974222681177     1.896181671374    -0.083408065127    12.000000000000
         C            1.745203681177    -0.494775328626     0.041879934873    12.000000000000
         C           -1.265656518823    -1.148760728626    -0.349702465127    12.000000000000
         C           -2.643189318823    -0.858313328626     0.002269934873    12.000000000000
         C            3.172105681177     0.012400671374     0.103628934873    12.000000000000
         C           -2.743989318823     0.494715671374     0.128873934873    12.000000000000
         H            0.344456681177     2.349685671374    -0.849614065127     1.007825032230
         H            2.014760681177     2.089018671374    -0.328560065127     1.007825032230
         H            0.735819681177     2.354978671374     0.880625934873     1.007825032230
         H           -0.791297318823    -2.137606328626    -0.209978065127     1.007825032230
         H           -3.466634318823    -1.559415328626    -0.017727065127     1.007825032230
         H            3.327980681177     0.708945671374     0.931663934873     1.007825032230
         H            3.465174681177     0.511073671374    -0.824923065127     1.007825032230
         H            3.805334681177    -0.862629328626     0.246390934873     1.007825032230
         H           -3.562892318823     1.190266671374     0.229434934873     1.007825032230

  Basis Set: AUG-CC-PVTZ
    Blend: AUG-CC-PVTZ
  Basis Set: (AUG-CC-PVTZ AUX)
    Blend: AUG-CC-PVTZ-JKFIT
	 Reference Energy          =    -474.6177896535597256 [Eh]
	 Singles Energy            =      -0.0000000000000000 [Eh]
	 Same-Spin Energy          =      -0.4924728933319223 [Eh]
	 Opposite-Spin Energy      =      -1.5303585265641713 [Eh]
	 Correlation Energy        =      -2.0228314198960935 [Eh]
	 Total Energy              =    -476.6406210734558044 [Eh]

	 ================> DF-SCS-MP2 Energies <==================
	-----------------------------------------------------------
	 SCS Same-Spin Scale       =       0.3333333333333333 [-]
	 SCS Opposite-Spin Scale   =       1.2000000000000000 [-]
	 SCS Same-Spin Energy      =      -0.1641576311106408 [Eh]
	 SCS Opposite-Spin Energy  =      -1.8364302318770054 [Eh]
	 SCS Correlation Energy    =      -2.0005878629876461 [Eh]
	 SCS Total Energy          =    -476.6183775165473548 [Eh]
	-----------------------------------------------------------

  Dipole Moment: [D]
     X:     0.7006      Y:     3.3773      Z:     0.1008     Total:     3.4506

*** Psi4 exiting successfully. Buy a developer a beer!
