                               Psi4 1.3.2 release

  ==> Input File <==

--------------------------------------------------------------------------
#psi4
#
memory 32 gb

molecule  {
0 1
  O       -1.5316190     1.0321650     0.0948010
  O        1.4540340    -1.7305240     0.0480640
  N        0.6983760     0.4234810    -0.0768570
  C       -0.6387160     0.0037620    -0.0484130
  C        0.9338190     1.8669200    -0.1039590
  C        1.7048000    -0.5240370     0.0213290
  C       -1.2931220    -1.2007390    -0.1216240
  C       -2.6835930    -0.8875750    -0.0182810
  C        3.1317020    -0.0168610     0.0830780
  C       -2.7843930     0.4654540     0.1083230
  H        0.3040530     2.3204240    -0.8701650
  H        1.9743570     2.0597570    -0.3491110
  H        0.6954160     2.3257170     0.8600750
  H       -0.8317010    -2.1668680    -0.2305290
  H       -3.5017224    -1.5976450     0.0611771
  H        3.2875770     0.6796840     0.9111130
  H        3.4247710     0.4818120    -0.8454740
  H        3.7649310    -0.8918910     0.2258400
  H       -3.6032960     1.1610050     0.2088840
units angstrom
no_reorient  #important for SAPT in psi4, default
symmetry c1  #important for SAPT in psi4, default
}

set PROPERTIES_ORIGIN ["COM"]
properties('MP2/aug-cc-pvtz', properties = ['dipole'])
--------------------------------------------------------------------------

    Molecular point group: c1
  Charge       = 0
  Multiplicity = 1
  Basis Set: AUG-CC-PVTZ
    Blend: AUG-CC-PVTZ
  Basis Set: (AUG-CC-PVTZ AUX)
    Blend: AUG-CC-PVTZ-JKFIT

    Orbital Energies [Eh]
    ---------------------

    Doubly Occupied:

       1A    -20.624946     2A    -20.528513     3A    -15.617407
       4A    -11.365593     5A    -11.332489     6A    -11.280699
       7A    -11.279054     8A    -11.246814     9A    -11.229681
      10A    -11.215502    11A     -1.462238    12A     -1.384935
      13A     -1.262681    14A     -1.080173    15A     -1.032000
      16A     -0.990656    17A     -0.954978    18A     -0.836022
      19A     -0.794778    20A     -0.750574    21A     -0.702820
      22A     -0.679919    23A     -0.672722    24A     -0.649135
      25A     -0.623014    26A     -0.593169    27A     -0.589411
      28A     -0.588222    29A     -0.565955    30A     -0.562819
      31A     -0.550198    32A     -0.540579    33A     -0.527042
      34A     -0.434654    35A     -0.431406    36A     -0.391643
      37A     -0.287658

  @DF-RHF Final Energy:  -474.63383641096522

   => Energetics <=

    Nuclear Repulsion Energy =            527.9737628021364344
    One-Electron Energy =               -1693.8949964575710965
    Two-Electron Energy =                 691.2873972444693891
    Total Energy =                       -474.6338364109652730
  Basis Set: (AUG-CC-PVTZ AUX)
    Blend: AUG-CC-PVTZ-RI
    Molecular point group: c1

    Geometry (in Angstrom), charge = 0, multiplicity = 1:

       Center              X                  Y                   Z               Mass
    ------------   -----------------  -----------------  -----------------  -----------------
         O           -1.492370300488     1.063451916834     0.093176526216    15.994914619570
         O            1.493282699512    -1.699237083166     0.046439526216    15.994914619570
         N            0.737624699512     0.454767916834    -0.078481473784    14.003074004430
         C           -0.599467300488     0.035048916834    -0.050037473784    12.000000000000
         C            0.973067699512     1.898206916834    -0.105583473784    12.000000000000
         C            1.744048699512    -0.492750083166     0.019704526216    12.000000000000
         C           -1.253873300488    -1.169452083166    -0.123248473784    12.000000000000
         C           -2.644344300488    -0.856288083166    -0.019905473784    12.000000000000
         C            3.170950699512     0.014425916834     0.081453526216    12.000000000000
         C           -2.745144300488     0.496740916834     0.106698526216    12.000000000000
         H            0.343301699512     2.351710916834    -0.871789473784     1.007825032230
         H            2.013605699512     2.091043916834    -0.350735473784     1.007825032230
         H            0.734664699512     2.357003916834     0.858450526216     1.007825032230
         H           -0.792452300488    -2.135581083166    -0.232153473784     1.007825032230
         H           -3.462473700488    -1.566358083166     0.059552626216     1.007825032230
         H            3.326825699512     0.710970916834     0.909488526216     1.007825032230
         H            3.464019699512     0.513098916834    -0.847098473784     1.007825032230
         H            3.804179699512    -0.860604083166     0.224215526216     1.007825032230
         H           -3.564047300488     1.192291916834     0.207259526216     1.007825032230

  Basis Set: AUG-CC-PVTZ
    Blend: AUG-CC-PVTZ
  Basis Set: (AUG-CC-PVTZ AUX)
    Blend: AUG-CC-PVTZ-JKFIT
	 Reference Energy          =    -474.6338364109652161 [Eh]
	 Singles Energy            =      -0.0000000000000000 [Eh]
	 Same-Spin Energy          =      -0.4919002534536470 [Eh]
	 Opposite-Spin Energy      =      -1.5282504272212405 [Eh]
	 Correlation Energy        =      -2.0201506806748872 [Eh]
	 Total Energy              =    -476.6539870916400901 [Eh]

	 ================> DF-SCS-MP2 Energies <==================
	-----------------------------------------------------------
	 SCS Same-Spin Scale       =       0.3333333333333333 [-]
	 SCS Opposite-Spin Scale   =       1.2000000000000000 [-]
	 SCS Same-Spin Energy      =      -0.1639667511512156 [Eh]
	 SCS Opposite-Spin Energy  =      -1.8339005126654886 [Eh]
	 SCS Correlation Energy    =      -1.9978672638167043 [Eh]
	 SCS Total Energy          =    -476.6317036747819316 [Eh]
	-----------------------------------------------------------

  Dipole Moment: [D]
     X:     0.6433      Y:     3.2841      Z:    -0.0540     Total:     3.3470

*** Psi4 exiting successfully. Buy a developer a beer!
