                               Psi4 1.3.2 release

  ==> Input File <==

--------------------------------------------------------------------------
#psi4
#
memory 32 gb

molecule  {
0 1
  O       -1.5316190     1.0321650     0.0948010
  O        1.4540340    -1.7305240     0.0480640
  N        0.6983760     0.4234810    -0.0768570
  C       -0.6387160     0.0037620    -0.0484130
  C        0.9338190     1.8669200    -0.1039590
  C        1.7048000    -0.5240370     0.0213290
  C       -1.2931220    -1.2007390    -0.1216240
  C       -2.6835930    -0.8875750    -0.0182810
  C        3.1317020    -0.0168610     0.0830780
  C       -2.7843930     0.4654540     0.1083230
  H        0.3040530     2.3204240    -0.8701650
  H        1.9743570     2.0597570    -0.3491110
  H        0.6954160     2.3257170     0.8600750
  H       -0.8317010    -2.1668680    -0.2305290
  H       -3.5070380    -1.5886770    -0.0382780
  H        3.2875770     0.6796840     0.9111130
  H        3.4247710     0.4818120    -0.8454740
  H        3.7649310    -0.8918910     0.2258400
  H       -3.6106912     1.1742332     0.0596515
units angstrom
no_reorient  #important for SAPT in psi4, default
symmetry c1  #important for SAPT in psi4, default
}

set PROPERTIES_ORIGIN ["COM"]
properties('MP2/aug-cc-pvtz', properties = ['dipole'])
--------------------------------------------------------------------------

    Molecular point group: c1
  Charge       = 0
  Multiplicity = 1
  Basis Set: AUG-CC-PVTZ
    Blend: AUG-CC-PVTZ
  Basis Set: (AUG-CC-PVTZ AUX)
    Blend: AUG-CC-PVTZ-JKFIT

    Orbital Energies [Eh]
    ---------------------

    Doubly Occupied:

       1A    -20.624715     2A    -20.528668     3A    -15.617591
       4A    -11.365744     5A    -11.332793     6A    -11.281013
       7A    -11.279141     8A    -11.246909     9A    -11.229669
      10A    -11.215692    11A     -1.462104    12A     -1.385084
      13A     -1.262825    14A     -1.080398    15A     -1.032004
      16A     -0.990567    17A     -0.954794    18A     -0.836142
      19A     -0.794129    20A     -0.750890    21A     -0.702574
      22A     -0.680192    23A     -0.672617    24A     -0.647820
      25A     -0.622659    26A     -0.593178    27A     -0.589587
      28A     -0.588750    29A     -0.566200    30A     -0.562605
      31A     -0.550390    32A     -0.540132    33A     -0.526866
      34A     -0.434774    35A     -0.431421    36A     -0.391834
      37A     -0.287813

  @DF-RHF Final Energy:  -474.63325341784281

   => Energetics <=

    Nuclear Repulsion Energy =            527.9471039302430881
    One-Electron Energy =               -1693.8401471505662812
    Two-Electron Energy =                 691.2597898024805545
    Total Energy =                       -474.6332534178427522
  Basis Set: (AUG-CC-PVTZ AUX)
    Blend: AUG-CC-PVTZ-RI
    Molecular point group: c1

    Geometry (in Angstrom), charge = 0, multiplicity = 1:

       Center              X                  Y                   Z               Mass
    ------------   -----------------  -----------------  -----------------  -----------------
         O           -1.492278182296     1.063291055691     0.094978824429    15.994914619570
         O            1.493374817704    -1.699397944309     0.048241824429    15.994914619570
         N            0.737716817704     0.454607055691    -0.076679175571    14.003074004430
         C           -0.599375182296     0.034888055691    -0.048235175571    12.000000000000
         C            0.973159817704     1.898046055691    -0.103781175571    12.000000000000
         C            1.744140817704    -0.492910944309     0.021506824429    12.000000000000
         C           -1.253781182296    -1.169612944309    -0.121446175571    12.000000000000
         C           -2.644252182296    -0.856448944309    -0.018103175571    12.000000000000
         C            3.171042817704     0.014265055691     0.083255824429    12.000000000000
         C           -2.745052182296     0.496580055691     0.108500824429    12.000000000000
         H            0.343393817704     2.351550055691    -0.869987175571     1.007825032230
         H            2.013697817704     2.090883055691    -0.348933175571     1.007825032230
         H            0.734756817704     2.356843055691     0.860252824429     1.007825032230
         H           -0.792360182296    -2.135741944309    -0.230351175571     1.007825032230
         H           -3.467697182296    -1.557550944309    -0.038100175571     1.007825032230
         H            3.326917817704     0.710810055691     0.911290824429     1.007825032230
         H            3.464111817704     0.512938055691    -0.845296175571     1.007825032230
         H            3.804271817704    -0.860764944309     0.226017824429     1.007825032230
         H           -3.571350382296     1.205359255691     0.059829324429     1.007825032230

  Basis Set: AUG-CC-PVTZ
    Blend: AUG-CC-PVTZ
  Basis Set: (AUG-CC-PVTZ AUX)
    Blend: AUG-CC-PVTZ-JKFIT
	 Reference Energy          =    -474.6332534178428091 [Eh]
	 Singles Energy            =      -0.0000000000000000 [Eh]
	 Same-Spin Energy          =      -0.4919542620734147 [Eh]
	 Opposite-Spin Energy      =      -1.5283510549660240 [Eh]
	 Correlation Energy        =      -2.0203053170394387 [Eh]
	 Total Energy              =    -476.6535587348822673 [Eh]

	 ================> DF-SCS-MP2 Energies <==================
	-----------------------------------------------------------
	 SCS Same-Spin Scale       =       0.3333333333333333 [-]
	 SCS Opposite-Spin Scale   =       1.2000000000000000 [-]
	 SCS Same-Spin Energy      =      -0.1639847540244716 [Eh]
	 SCS Opposite-Spin Energy  =      -1.8340212659592288 [Eh]
	 SCS Correlation Energy    =      -1.9980060199837004 [Eh]
	 SCS Total Energy          =    -476.6312594378264862 [Eh]
	-----------------------------------------------------------

  Dipole Moment: [D]
     X:     0.6538      Y:     3.2779      Z:    -0.2661     Total:     3.3530

*** Psi4 exiting successfully. Buy a developer a beer!
