                               Psi4 1.3.2 release

  ==> Input File <==

--------------------------------------------------------------------------
#psi4
#
memory 32 gb

molecule  {
0 1
  O       -1.5316190     1.0321650     0.0948010
  O        1.4540340    -1.7305240     0.0480640
  N        0.6983760     0.4234810    -0.0768570
  C       -0.6387160     0.0037620    -0.0484130
  C        0.9338190     1.8669200    -0.1039590
  C        1.7048000    -0.5240370     0.0213290
  C       -1.2931220    -1.2007390    -0.1216240
  C       -2.6835930    -0.8875750    -0.0182810
  C        3.1317020    -0.0168610     0.0830780
  C       -2.7843930     0.4654540     0.1083230
  H        0.3040530     2.3204240    -0.8701650
  H        1.9743570     2.0597570    -0.3491110
  H        0.6954160     2.3257170     0.8600750
  H       -0.8210827    -2.1845029    -0.0315912
  H       -3.5070380    -1.5886770    -0.0382780
  H        3.2875770     0.6796840     0.9111130
  H        3.4247710     0.4818120    -0.8454740
  H        3.7649310    -0.8918910     0.2258400
  H       -3.6032960     1.1610050     0.2088840
units angstrom
no_reorient  #important for SAPT in psi4, default
symmetry c1  #important for SAPT in psi4, default
}

set PROPERTIES_ORIGIN ["COM"]
properties('MP2/aug-cc-pvtz', properties = ['dipole'])
--------------------------------------------------------------------------

    Molecular point group: c1
  Charge       = 0
  Multiplicity = 1
  Basis Set: AUG-CC-PVTZ
    Blend: AUG-CC-PVTZ
  Basis Set: (AUG-CC-PVTZ AUX)
    Blend: AUG-CC-PVTZ-JKFIT

    Orbital Energies [Eh]
    ---------------------

    Doubly Occupied:

       1A    -20.625134     2A    -20.528808     3A    -15.617755
       4A    -11.365908     5A    -11.333207     6A    -11.280480
       7A    -11.279272     8A    -11.246988     9A    -11.229148
      10A    -11.216380    11A     -1.462455    12A     -1.385279
      13A     -1.263012    14A     -1.079944    15A     -1.032205
      16A     -0.990805    17A     -0.955062    18A     -0.835808
      19A     -0.794916    20A     -0.748749    21A     -0.703109
      22A     -0.679779    23A     -0.673512    24A     -0.648942
      25A     -0.623102    26A     -0.593042    27A     -0.590146
      28A     -0.588654    29A     -0.566323    30A     -0.558735
      31A     -0.550492    32A     -0.540015    33A     -0.527356
      34A     -0.434009    35A     -0.432078    36A     -0.391417
      37A     -0.287795

  @DF-RHF Final Energy:  -474.63208283359427

   => Energetics <=

    Nuclear Repulsion Energy =            527.9402664283835520
    One-Electron Energy =               -1693.8250589302751905
    Two-Electron Energy =                 691.2527096682974843
    Total Energy =                       -474.6320828335942679
  Basis Set: (AUG-CC-PVTZ AUX)
    Blend: AUG-CC-PVTZ-RI
    Molecular point group: c1

    Geometry (in Angstrom), charge = 0, multiplicity = 1:

       Center              X                  Y                   Z               Mass
    ------------   -----------------  -----------------  -----------------  -----------------
         O           -1.492408730416     1.063514727921     0.092455551417    15.994914619570
         O            1.493244269584    -1.699174272079     0.045718551417    15.994914619570
         N            0.737586269584     0.454830727921    -0.079202448583    14.003074004430
         C           -0.599505730416     0.035111727921    -0.050758448583    12.000000000000
         C            0.973029269584     1.898269727921    -0.106304448583    12.000000000000
         C            1.744010269584    -0.492687272079     0.018983551417    12.000000000000
         C           -1.253911730416    -1.169389272079    -0.123969448583    12.000000000000
         C           -2.644382730416    -0.856225272079    -0.020626448583    12.000000000000
         C            3.170912269584     0.014488727921     0.080732551417    12.000000000000
         C           -2.745182730416     0.496803727921     0.105977551417    12.000000000000
         H            0.343263269584     2.351773727921    -0.872510448583     1.007825032230
         H            2.013567269584     2.091106727921    -0.351456448583     1.007825032230
         H            0.734626269584     2.357066727921     0.857729551417     1.007825032230
         H           -0.781872430416    -2.153153172079    -0.033936648583     1.007825032230
         H           -3.467827730416    -1.557327272079    -0.040623448583     1.007825032230
         H            3.326787269584     0.711033727921     0.908767551417     1.007825032230
         H            3.463981269584     0.513161727921    -0.847819448583     1.007825032230
         H            3.804141269584    -0.860541272079     0.223494551417     1.007825032230
         H           -3.564085730416     1.192354727921     0.206538551417     1.007825032230

  Basis Set: AUG-CC-PVTZ
    Blend: AUG-CC-PVTZ
  Basis Set: (AUG-CC-PVTZ AUX)
    Blend: AUG-CC-PVTZ-JKFIT
	 Reference Energy          =    -474.6320828335942679 [Eh]
	 Singles Energy            =      -0.0000000000000000 [Eh]
	 Same-Spin Energy          =      -0.4919877176147672 [Eh]
	 Opposite-Spin Energy      =      -1.5284222150872877 [Eh]
	 Correlation Energy        =      -2.0204099327020550 [Eh]
	 Total Energy              =    -476.6524927662963478 [Eh]

	 ================> DF-SCS-MP2 Energies <==================
	-----------------------------------------------------------
	 SCS Same-Spin Scale       =       0.3333333333333333 [-]
	 SCS Opposite-Spin Scale   =       1.2000000000000000 [-]
	 SCS Same-Spin Energy      =      -0.1639959058715891 [Eh]
	 SCS Opposite-Spin Energy  =      -1.8341066581047452 [Eh]
	 SCS Correlation Energy    =      -1.9981025639763343 [Eh]
	 SCS Total Energy          =    -476.6301853975705853 [Eh]
	-----------------------------------------------------------

  Dipole Moment: [D]
     X:     0.6479      Y:     3.2991      Z:     0.0331     Total:     3.3623

*** Psi4 exiting successfully. Buy a developer a beer!
