                               Psi4 1.3.2 release

  ==> Input File <==

--------------------------------------------------------------------------
#psi4
#
memory 32 gb

molecule  {
0 1
  O       -1.5316190     1.0321650     0.0948010
  O        1.4540340    -1.7305240     0.0480640
  N        0.6983760     0.4234810    -0.0768570
  C       -0.6387160     0.0037620    -0.0484130
  C        0.9338190     1.8669200    -0.1039590
  C        1.7048000    -0.5240370     0.0213290
  C       -1.2931220    -1.2007390    -0.1216240
  C       -2.6835930    -0.8875750    -0.0182810
  C        3.1493519    -0.0280254    -0.2161942
  C       -2.7843930     0.4654540     0.1083230
  H        0.3040530     2.3204240    -0.8701650
  H        1.9743570     2.0597570    -0.3491110
  H        0.6954160     2.3257170     0.8600750
  H       -0.8317010    -2.1668680    -0.2305290
  H       -3.5070380    -1.5886770    -0.0382780
  H        3.2875770     0.6796840     0.9111130
  H        3.4247710     0.4818120    -0.8454740
  H        3.7649310    -0.8918910     0.2258400
  H       -3.6032960     1.1610050     0.2088840
units angstrom
no_reorient  #important for SAPT in psi4, default
symmetry c1  #important for SAPT in psi4, default
}

set PROPERTIES_ORIGIN ["COM"]
properties('MP2/aug-cc-pvtz', properties = ['dipole'])
--------------------------------------------------------------------------

    Molecular point group: c1
  Charge       = 0
  Multiplicity = 1
  Basis Set: AUG-CC-PVTZ
    Blend: AUG-CC-PVTZ
  Basis Set: (AUG-CC-PVTZ AUX)
    Blend: AUG-CC-PVTZ-JKFIT

    Orbital Energies [Eh]
    ---------------------

    Doubly Occupied:

       1A    -20.625417     2A    -20.531887     3A    -15.618570
       4A    -11.373537     5A    -11.333175     6A    -11.281252
       7A    -11.278688     8A    -11.258399     9A    -11.230027
      10A    -11.216654    11A     -1.462753    12A     -1.387302
      13A     -1.263753    14A     -1.081009    15A     -1.035628
      16A     -0.992901    17A     -0.957792    18A     -0.840642
      19A     -0.799570    20A     -0.754188    21A     -0.723162
      22A     -0.697438    23A     -0.673397    24A     -0.648481
      25A     -0.624670    26A     -0.611867    27A     -0.589388
      28A     -0.580067    29A     -0.564369    30A     -0.555057
      31A     -0.543783    32A     -0.540654    33A     -0.487208
      34A     -0.436800    35A     -0.427841    36A     -0.392374
      37A     -0.288142

  @DF-RHF Final Energy:  -474.53142621807700

   => Energetics <=

    Nuclear Repulsion Energy =            527.5839812843580603
    One-Electron Energy =               -1692.8151244211144331
    Two-Electron Energy =                 690.6997169186793144
    Total Energy =                       -474.5314262180770584
  Basis Set: (AUG-CC-PVTZ AUX)
    Blend: AUG-CC-PVTZ-RI
    Molecular point group: c1

    Geometry (in Angstrom), charge = 0, multiplicity = 1:

       Center              X                  Y                   Z               Mass
    ------------   -----------------  -----------------  -----------------  -----------------
         O           -1.493854815546     1.064350317775     0.119721984162    15.994914619570
         O            1.491798184454    -1.698338682225     0.072984984162    15.994914619570
         N            0.736140184454     0.455666317775    -0.051936015838    14.003074004430
         C           -0.600951815546     0.035947317775    -0.023492015838    12.000000000000
         C            0.971583184454     1.899105317775    -0.079038015838    12.000000000000
         C            1.742564184454    -0.491851682225     0.046249984162    12.000000000000
         C           -1.255357815546    -1.168553682225    -0.096703015838    12.000000000000
         C           -2.645828815546    -0.855389682225     0.006639984162    12.000000000000
         C            3.187116084454     0.004159917775    -0.191273215838    12.000000000000
         C           -2.746628815546     0.497639317775     0.133243984162    12.000000000000
         H            0.341817184454     2.352609317775    -0.845244015838     1.007825032230
         H            2.012121184454     2.091942317775    -0.324190015838     1.007825032230
         H            0.733180184454     2.357902317775     0.884995984162     1.007825032230
         H           -0.793936815546    -2.134682682225    -0.205608015838     1.007825032230
         H           -3.469273815546    -1.556491682225    -0.013357015838     1.007825032230
         H            3.325341184454     0.711869317775     0.936033984162     1.007825032230
         H            3.462535184454     0.513997317775    -0.820553015838     1.007825032230
         H            3.802695184454    -0.859705682225     0.250760984162     1.007825032230
         H           -3.565531815546     1.193190317775     0.233804984162     1.007825032230

  Basis Set: AUG-CC-PVTZ
    Blend: AUG-CC-PVTZ
  Basis Set: (AUG-CC-PVTZ AUX)
    Blend: AUG-CC-PVTZ-JKFIT
	 Reference Energy          =    -474.5314262180770015 [Eh]
	 Singles Energy            =      -0.0000000000000000 [Eh]
	 Same-Spin Energy          =      -0.4932513796660595 [Eh]
	 Opposite-Spin Energy      =      -1.5327954379884492 [Eh]
	 Correlation Energy        =      -2.0260468176545086 [Eh]
	 Total Energy              =    -476.5574730357315048 [Eh]

	 ================> DF-SCS-MP2 Energies <==================
	-----------------------------------------------------------
	 SCS Same-Spin Scale       =       0.3333333333333333 [-]
	 SCS Opposite-Spin Scale   =       1.2000000000000000 [-]
	 SCS Same-Spin Energy      =      -0.1644171265553531 [Eh]
	 SCS Opposite-Spin Energy  =      -1.8393545255861390 [Eh]
	 SCS Correlation Energy    =      -2.0037716521414923 [Eh]
	 SCS Total Energy          =    -476.5351978702184965 [Eh]
	-----------------------------------------------------------

  Dipole Moment: [D]
     X:     0.4792      Y:     3.1883      Z:    -0.2062     Total:     3.2307

*** Psi4 exiting successfully. Buy a developer a beer!
