                               Psi4 1.3.2 release

  ==> Input File <==

--------------------------------------------------------------------------
#psi4
#
memory 32 gb

molecule  {
0 1
  O       -1.5316190     1.0321650     0.0948010
  O        1.4540340    -1.7305240     0.0480640
  N        0.6983760     0.4234810    -0.0768570
  C       -0.6387160     0.0037620    -0.0484130
  C        0.9338190     1.8669200    -0.1039590
  C        1.7048000    -0.5240370     0.0213290
  C       -1.2931220    -1.2007390    -0.1216240
  C       -2.6835930    -0.8875750    -0.0182810
  C        3.1317020    -0.0168610     0.0830780
  C       -2.7843930     0.4654540     0.1083230
  H        0.3040530     2.3204240    -0.8701650
  H        1.9743570     2.0597570    -0.3491110
  H        0.6954160     2.3257170     0.8600750
  H       -0.8317010    -2.1668680    -0.2305290
  H       -3.5070380    -1.5886770    -0.0382780
  H        3.2875770     0.6796840     0.9111130
  H        3.4247710     0.4818120    -0.8454740
  H        3.7649310    -0.8918910     0.2258400
  H       -3.6156214     1.1830519    -0.0398368
units angstrom
no_reorient  #important for SAPT in psi4, default
symmetry c1  #important for SAPT in psi4, default
}

set PROPERTIES_ORIGIN ["COM"]
properties('MP2/aug-cc-pvtz', properties = ['dipole'])
--------------------------------------------------------------------------

    Molecular point group: c1
  Charge       = 0
  Multiplicity = 1
  Basis Set: AUG-CC-PVTZ
    Blend: AUG-CC-PVTZ
  Basis Set: (AUG-CC-PVTZ AUX)
    Blend: AUG-CC-PVTZ-JKFIT

    Orbital Energies [Eh]
    ---------------------

    Doubly Occupied:

       1A    -20.624567     2A    -20.528959     3A    -15.617920
       4A    -11.366028     5A    -11.333387     6A    -11.281994
       7A    -11.279300     8A    -11.247099     9A    -11.230255
      10A    -11.216007    11A     -1.462099    12A     -1.385366
      13A     -1.263108    14A     -1.080735    15A     -1.032060
      16A     -0.990448    17A     -0.954563    18A     -0.836225
      19A     -0.792693    20A     -0.751044    21A     -0.702176
      22A     -0.680545    23A     -0.672699    24A     -0.645596
      25A     -0.622335    26A     -0.593471    27A     -0.589466
      28A     -0.588720    29A     -0.566302    30A     -0.562357
      31A     -0.550536    32A     -0.538993    33A     -0.526705
      34A     -0.434996    35A     -0.431581    36A     -0.391895
      37A     -0.288130

  @DF-RHF Final Energy:  -474.63096610098142

   => Energetics <=

    Nuclear Repulsion Energy =            527.8763536604629962
    One-Electron Energy =               -1693.6939181257346263
    Two-Electron Energy =                 691.1865983642901483
    Total Energy =                       -474.6309661009813681
  Basis Set: (AUG-CC-PVTZ AUX)
    Blend: AUG-CC-PVTZ-RI
    Molecular point group: c1

    Geometry (in Angstrom), charge = 0, multiplicity = 1:

       Center              X                  Y                   Z               Mass
    ------------   -----------------  -----------------  -----------------  -----------------
         O           -1.492242451963     1.063227144474     0.095699839813    15.994914619570
         O            1.493410548037    -1.699461855526     0.048962839813    15.994914619570
         N            0.737752548037     0.454543144474    -0.075958160187    14.003074004430
         C           -0.599339451963     0.034824144474    -0.047514160187    12.000000000000
         C            0.973195548037     1.897982144474    -0.103060160187    12.000000000000
         C            1.744176548037    -0.492974855526     0.022227839813    12.000000000000
         C           -1.253745451963    -1.169676855526    -0.120725160187    12.000000000000
         C           -2.644216451963    -0.856512855526    -0.017382160187    12.000000000000
         C            3.171078548037     0.014201144474     0.083976839813    12.000000000000
         C           -2.745016451963     0.496516144474     0.109221839813    12.000000000000
         H            0.343429548037     2.351486144474    -0.869266160187     1.007825032230
         H            2.013733548037     2.090819144474    -0.348212160187     1.007825032230
         H            0.734792548037     2.356779144474     0.860973839813     1.007825032230
         H           -0.792324451963    -2.135805855526    -0.229630160187     1.007825032230
         H           -3.467661451963    -1.557614855526    -0.037379160187     1.007825032230
         H            3.326953548037     0.710746144474     0.912011839813     1.007825032230
         H            3.464147548037     0.512874144474    -0.844575160187     1.007825032230
         H            3.804307548037    -0.860828855526     0.226738839813     1.007825032230
         H           -3.576244851963     1.214114044474    -0.038937960187     1.007825032230

  Basis Set: AUG-CC-PVTZ
    Blend: AUG-CC-PVTZ
  Basis Set: (AUG-CC-PVTZ AUX)
    Blend: AUG-CC-PVTZ-JKFIT
	 Reference Energy          =    -474.6309661009814249 [Eh]
	 Singles Energy            =      -0.0000000000000000 [Eh]
	 Same-Spin Energy          =      -0.4920957985916311 [Eh]
	 Opposite-Spin Energy      =      -1.5286884986193252 [Eh]
	 Correlation Energy        =      -2.0207842972109562 [Eh]
	 Total Energy              =    -476.6517503981924051 [Eh]

	 ================> DF-SCS-MP2 Energies <==================
	-----------------------------------------------------------
	 SCS Same-Spin Scale       =       0.3333333333333333 [-]
	 SCS Opposite-Spin Scale   =       1.2000000000000000 [-]
	 SCS Same-Spin Energy      =      -0.1640319328638770 [Eh]
	 SCS Opposite-Spin Energy  =      -1.8344261983431902 [Eh]
	 SCS Correlation Energy    =      -1.9984581312070673 [Eh]
	 SCS Total Energy          =    -476.6294242321885122 [Eh]
	-----------------------------------------------------------

  Dipole Moment: [D]
     X:     0.6913      Y:     3.2574      Z:    -0.3558     Total:     3.3489

*** Psi4 exiting successfully. Buy a developer a beer!
