                               Psi4 1.3.2 release

  ==> Input File <==

--------------------------------------------------------------------------
#psi4
#
memory 32 gb

molecule  {
0 1
  C        0.2607240     1.2023270    -0.0000750
  C       -1.1358940     1.2178730     0.0000410
  C       -1.8563260     0.0234010    -0.0000200
  C       -1.1685880    -1.1938670     0.0000370
  C        0.2242660    -1.2218040    -0.0000490
  C        0.9375920    -0.0198080     0.0000210
  O        2.3096620    -0.1122440    -0.0000150
  H        0.8193600     2.1376290    -0.0000120
  H       -1.6578230     2.1717680    -0.0000430
  H       -2.9427257     0.0394303    -0.1498930
  H       -1.7202150    -2.1309040    -0.0000080
  H        0.7759750    -2.1575980     0.0000070
  H        2.6774850     0.7888930     0.0003320
units angstrom
no_reorient  #important for SAPT in psi4, default
symmetry c1  #important for SAPT in psi4, default
}

set PROPERTIES_ORIGIN ["COM"]
properties('MP2/aug-cc-pvtz', properties = ['dipole'])
--------------------------------------------------------------------------

    Molecular point group: c1
  Charge       = 0
  Multiplicity = 1
  Basis Set: AUG-CC-PVTZ
    Blend: AUG-CC-PVTZ
  Basis Set: (AUG-CC-PVTZ AUX)
    Blend: AUG-CC-PVTZ-JKFIT

    Orbital Energies [Eh]
    ---------------------

    Doubly Occupied:

       1A    -20.593775     2A    -11.306422     3A    -11.245696
       4A    -11.243599     5A    -11.237684     6A    -11.231186
       7A    -11.231080     8A     -1.402322     9A     -1.147370
      10A     -1.020773    11A     -1.004778    12A     -0.846568
      13A     -0.821993    14A     -0.731101    15A     -0.683702
      16A     -0.652223    17A     -0.609651    18A     -0.592246
      19A     -0.589963    20A     -0.569819    21A     -0.517023
      22A     -0.495751    23A     -0.483081    24A     -0.343911
      25A     -0.317089

  @DF-RHF Final Energy:  -305.66886614028869

   => Energetics <=

    Nuclear Repulsion Energy =            270.5885563687573949
    One-Electron Energy =                -950.6772360990086099
    Two-Electron Energy =                 374.4198135899625299
    Total Energy =                       -305.6688661402886851
  Basis Set: (AUG-CC-PVTZ AUX)
    Blend: AUG-CC-PVTZ-RI
    Molecular point group: c1

    Geometry (in Angstrom), charge = 0, multiplicity = 1:

       Center              X                  Y                   Z               Mass
    ------------   -----------------  -----------------  -----------------  -----------------
         C            0.239242444220     1.211280520197     0.001536704339    12.000000000000
         C           -1.157375555780     1.226826520197     0.001652704339    12.000000000000
         C           -1.877807555780     0.032354520197     0.001591704339    12.000000000000
         C           -1.190069555780    -1.184913479803     0.001648704339    12.000000000000
         C            0.202784444220    -1.212850479803     0.001562704339    12.000000000000
         C            0.916110444220    -0.010854479803     0.001632704339    12.000000000000
         O            2.288180444220    -0.103290479803     0.001596704339    15.994914619570
         H            0.797878444220     2.146582520197     0.001599704339     1.007825032230
         H           -1.679304555780     2.180721520197     0.001568704339     1.007825032230
         H           -2.964207255780     0.048383820197    -0.148281295661     1.007825032230
         H           -1.741696555780    -2.121950479803     0.001603704339     1.007825032230
         H            0.754493444220    -2.148644479803     0.001618704339     1.007825032230
         H            2.656003444220     0.797846520197     0.001943704339     1.007825032230

  Basis Set: AUG-CC-PVTZ
    Blend: AUG-CC-PVTZ
  Basis Set: (AUG-CC-PVTZ AUX)
    Blend: AUG-CC-PVTZ-JKFIT
	 Reference Energy          =    -305.6688661402886851 [Eh]
	 Singles Energy            =      -0.0000000000000000 [Eh]
	 Same-Spin Energy          =      -0.3255124266241610 [Eh]
	 Opposite-Spin Energy      =      -1.0071317019383441 [Eh]
	 Correlation Energy        =      -1.3326441285625052 [Eh]
	 Total Energy              =    -307.0015102688511774 [Eh]

	 ================> DF-SCS-MP2 Energies <==================
	-----------------------------------------------------------
	 SCS Same-Spin Scale       =       0.3333333333333333 [-]
	 SCS Opposite-Spin Scale   =       1.2000000000000000 [-]
	 SCS Same-Spin Energy      =      -0.1085041422080537 [Eh]
	 SCS Opposite-Spin Energy  =      -1.2085580423260129 [Eh]
	 SCS Correlation Energy    =      -1.3170621845340666 [Eh]
	 SCS Total Energy          =    -306.9859283248227371 [Eh]
	-----------------------------------------------------------

  Dipole Moment: [D]
     X:    -0.0606      Y:     1.2835      Z:    -0.0995     Total:     1.2888

*** Psi4 exiting successfully. Buy a developer a beer!
