                               Psi4 1.3.2 release

  ==> Input File <==

--------------------------------------------------------------------------
#psi4
#
memory 32 gb

molecule  {
0 1
  C        0.2607240     1.2023270    -0.0000750
  C       -1.1358940     1.2178730     0.0000410
  C       -1.8563260     0.0234010    -0.0000200
  C       -1.1685880    -1.1938670     0.0000370
  C        0.2242660    -1.2218040    -0.0000490
  C        0.9375920    -0.0198080     0.0000210
  O        2.3096587    -0.1122423     0.1499850
  H        0.8193600     2.1376290    -0.0000120
  H       -1.6578230     2.1717680    -0.0000430
  H       -2.9427200     0.0394300     0.0001070
  H       -1.7202150    -2.1309040    -0.0000080
  H        0.7759750    -2.1575980     0.0000070
  H        2.6774850     0.7888930     0.0003320
units angstrom
no_reorient  #important for SAPT in psi4, default
symmetry c1  #important for SAPT in psi4, default
}

set PROPERTIES_ORIGIN ["COM"]
properties('MP2/aug-cc-pvtz', properties = ['dipole'])
--------------------------------------------------------------------------

    Molecular point group: c1
  Charge       = 0
  Multiplicity = 1
  Basis Set: AUG-CC-PVTZ
    Blend: AUG-CC-PVTZ
  Basis Set: (AUG-CC-PVTZ AUX)
    Blend: AUG-CC-PVTZ-JKFIT

    Orbital Energies [Eh]
    ---------------------

    Doubly Occupied:

       1A    -20.594024     2A    -11.305936     3A    -11.245744
       4A    -11.243603     5A    -11.238335     6A    -11.231743
       7A    -11.231080     8A     -1.396602     9A     -1.147540
      10A     -1.020933    11A     -1.004849    12A     -0.845332
      13A     -0.821438    14A     -0.727130    15A     -0.684711
      16A     -0.651762    17A     -0.610132    18A     -0.592970
      19A     -0.589367    20A     -0.566500    21A     -0.517308
      22A     -0.496226    23A     -0.484001    24A     -0.343993
      25A     -0.318197

  @DF-RHF Final Energy:  -305.66778508273848

   => Energetics <=

    Nuclear Repulsion Energy =            270.4039643892990625
    One-Electron Energy =                -950.3245870645798732
    Two-Electron Energy =                 374.2528375925423347
    Total Energy =                       -305.6677850827384759
  Basis Set: (AUG-CC-PVTZ AUX)
    Blend: AUG-CC-PVTZ-RI
    Molecular point group: c1

    Geometry (in Angstrom), charge = 0, multiplicity = 1:

       Center              X                  Y                   Z               Mass
    ------------   -----------------  -----------------  -----------------  -----------------
         C            0.239242944408     1.211280234271    -0.025583248597    12.000000000000
         C           -1.157375055592     1.226826234271    -0.025467248597    12.000000000000
         C           -1.877807055592     0.032354234271    -0.025528248597    12.000000000000
         C           -1.190069055592    -1.184913765729    -0.025471248597    12.000000000000
         C            0.202784944408    -1.212850765729    -0.025557248597    12.000000000000
         C            0.916110944408    -0.010854765729    -0.025487248597    12.000000000000
         O            2.288177644408    -0.103289065729     0.124476751403    15.994914619570
         H            0.797878944408     2.146582234271    -0.025520248597     1.007825032230
         H           -1.679304055592     2.180721234271    -0.025551248597     1.007825032230
         H           -2.964201055592     0.048383234271    -0.025401248597     1.007825032230
         H           -1.741696055592    -2.121950765729    -0.025516248597     1.007825032230
         H            0.754493944408    -2.148644765729    -0.025501248597     1.007825032230
         H            2.656003944408     0.797846234271    -0.025176248597     1.007825032230

  Basis Set: AUG-CC-PVTZ
    Blend: AUG-CC-PVTZ
  Basis Set: (AUG-CC-PVTZ AUX)
    Blend: AUG-CC-PVTZ-JKFIT
	 Reference Energy          =    -305.6677850827384759 [Eh]
	 Singles Energy            =      -0.0000000000000000 [Eh]
	 Same-Spin Energy          =      -0.3256822885877208 [Eh]
	 Opposite-Spin Energy      =      -1.0076259355626644 [Eh]
	 Correlation Energy        =      -1.3333082241503853 [Eh]
	 Total Energy              =    -307.0010933068888335 [Eh]

	 ================> DF-SCS-MP2 Energies <==================
	-----------------------------------------------------------
	 SCS Same-Spin Scale       =       0.3333333333333333 [-]
	 SCS Opposite-Spin Scale   =       1.2000000000000000 [-]
	 SCS Same-Spin Energy      =      -0.1085607628625736 [Eh]
	 SCS Opposite-Spin Energy  =      -1.2091511226751972 [Eh]
	 SCS Correlation Energy    =      -1.3177118855377707 [Eh]
	 SCS Total Energy          =    -306.9854969682762658 [Eh]
	-----------------------------------------------------------

  Dipole Moment: [D]
     X:    -0.1409      Y:     1.2723      Z:    -0.2419     Total:     1.3028

*** Psi4 exiting successfully. Buy a developer a beer!
