                               Psi4 1.3.2 release

  ==> Input File <==

--------------------------------------------------------------------------
#psi4
#
memory 32 gb

molecule  {
0 1
  C        0.2607240     1.2023270    -0.0000750
  C       -1.1358940     1.2178730     0.0000410
  C       -1.8563260     0.0234010    -0.0000200
  C       -1.1685880    -1.1938670     0.0000370
  C        0.2242660    -1.2218040    -0.0000490
  C        0.9375920    -0.0198080     0.0000210
  O        2.3096609    -0.1122434     0.0499850
  H        0.8193600     2.1376290    -0.0000120
  H       -1.6578230     2.1717680    -0.0000430
  H       -2.9427200     0.0394300     0.0001070
  H       -1.7202150    -2.1309040    -0.0000080
  H        0.7759750    -2.1575980     0.0000070
  H        2.6774850     0.7888930     0.0003320
units angstrom
no_reorient  #important for SAPT in psi4, default
symmetry c1  #important for SAPT in psi4, default
}

set PROPERTIES_ORIGIN ["COM"]
properties('MP2/aug-cc-pvtz', properties = ['dipole'])
--------------------------------------------------------------------------

    Molecular point group: c1
  Charge       = 0
  Multiplicity = 1
  Basis Set: AUG-CC-PVTZ
    Blend: AUG-CC-PVTZ
  Basis Set: (AUG-CC-PVTZ AUX)
    Blend: AUG-CC-PVTZ-JKFIT

    Orbital Energies [Eh]
    ---------------------

    Doubly Occupied:

       1A    -20.593622     2A    -11.306132     3A    -11.245531
       4A    -11.243442     5A    -11.237678     6A    -11.231165
       7A    -11.230330     8A     -1.401513     9A     -1.147325
      10A     -1.020682    11A     -1.005008    12A     -0.846374
      13A     -0.822285    14A     -0.730549    15A     -0.684876
      16A     -0.652420    17A     -0.609828    18A     -0.592272
      19A     -0.589726    20A     -0.569477    21A     -0.517302
      22A     -0.495684    23A     -0.484134    24A     -0.343823
      25A     -0.317259

  @DF-RHF Final Energy:  -305.66999396562602

   => Energetics <=

    Nuclear Repulsion Energy =            270.6018744444522781
    One-Electron Energy =                -950.7068616015354792
    Two-Electron Energy =                 374.4349931914571812
    Total Energy =                       -305.6699939656260199
  Basis Set: (AUG-CC-PVTZ AUX)
    Blend: AUG-CC-PVTZ-RI
    Molecular point group: c1

    Geometry (in Angstrom), charge = 0, multiplicity = 1:

       Center              X                  Y                   Z               Mass
    ------------   -----------------  -----------------  -----------------  -----------------
         C            0.239242570226     1.211280421363    -0.008574956970    12.000000000000
         C           -1.157375429774     1.226826421363    -0.008458956970    12.000000000000
         C           -1.877807429774     0.032354421363    -0.008519956970    12.000000000000
         C           -1.190069429774    -1.184913578637    -0.008462956970    12.000000000000
         C            0.202784570226    -1.212850578637    -0.008548956970    12.000000000000
         C            0.916110570226    -0.010854578637    -0.008478956970    12.000000000000
         O            2.288179470226    -0.103289978637     0.041485043030    15.994914619570
         H            0.797878570226     2.146582421363    -0.008511956970     1.007825032230
         H           -1.679304429774     2.180721421363    -0.008542956970     1.007825032230
         H           -2.964201429774     0.048383421363    -0.008392956970     1.007825032230
         H           -1.741696429774    -2.121950578637    -0.008507956970     1.007825032230
         H            0.754493570226    -2.148644578637    -0.008492956970     1.007825032230
         H            2.656003570226     0.797846421363    -0.008167956970     1.007825032230

  Basis Set: AUG-CC-PVTZ
    Blend: AUG-CC-PVTZ
  Basis Set: (AUG-CC-PVTZ AUX)
    Blend: AUG-CC-PVTZ-JKFIT
	 Reference Energy          =    -305.6699939656260199 [Eh]
	 Singles Energy            =      -0.0000000000000000 [Eh]
	 Same-Spin Energy          =      -0.3254661883206906 [Eh]
	 Opposite-Spin Energy      =      -1.0070024368404593 [Eh]
	 Correlation Energy        =      -1.3324686251611499 [Eh]
	 Total Energy              =    -307.0024625907871609 [Eh]

	 ================> DF-SCS-MP2 Energies <==================
	-----------------------------------------------------------
	 SCS Same-Spin Scale       =       0.3333333333333333 [-]
	 SCS Opposite-Spin Scale   =       1.2000000000000000 [-]
	 SCS Same-Spin Energy      =      -0.1084887294402302 [Eh]
	 SCS Opposite-Spin Energy  =      -1.2084029242085512 [Eh]
	 SCS Correlation Energy    =      -1.3168916536487814 [Eh]
	 SCS Total Energy          =    -306.9868856192748012 [Eh]
	-----------------------------------------------------------

  Dipole Moment: [D]
     X:    -0.0893      Y:     1.2825      Z:    -0.0804     Total:     1.2881

*** Psi4 exiting successfully. Buy a developer a beer!
