                               Psi4 1.3.2 release

  ==> Input File <==

--------------------------------------------------------------------------
#psi4
#
memory 32 gb

molecule  {
0 1
  C        0.2607240     1.2023270    -0.0000750
  C       -1.1358940     1.2178730     0.0000410
  C       -1.8563260     0.0234010    -0.0000200
  C       -1.1685880    -1.1938670     0.0000370
  C        0.2242660    -1.2218040    -0.0000490
  C        0.9375920    -0.0198080     0.0000210
  O        2.3096620    -0.1122440    -0.0000150
  H        0.8193600     2.1376290    -0.0000120
  H       -1.6578230     2.1717680    -0.0000430
  H       -2.9427276     0.0394304    -0.1998930
  H       -1.7202150    -2.1309040    -0.0000080
  H        0.7759750    -2.1575980     0.0000070
  H        2.6774850     0.7888930     0.0003320
units angstrom
no_reorient  #important for SAPT in psi4, default
symmetry c1  #important for SAPT in psi4, default
}

set PROPERTIES_ORIGIN ["COM"]
properties('MP2/aug-cc-pvtz', properties = ['dipole'])
--------------------------------------------------------------------------

    Molecular point group: c1
  Charge       = 0
  Multiplicity = 1
  Basis Set: AUG-CC-PVTZ
    Blend: AUG-CC-PVTZ
  Basis Set: (AUG-CC-PVTZ AUX)
    Blend: AUG-CC-PVTZ-JKFIT

    Orbital Energies [Eh]
    ---------------------

    Doubly Occupied:

       1A    -20.593932     2A    -11.306629     3A    -11.245851
       4A    -11.243744     5A    -11.237760     6A    -11.231762
       7A    -11.231238     8A     -1.402470     9A     -1.147432
      10A     -1.020873    11A     -1.004597    12A     -0.846615
      13A     -0.821701    14A     -0.731202    15A     -0.682841
      16A     -0.651997    17A     -0.609554    18A     -0.592329
      19A     -0.590091    20A     -0.569785    21A     -0.516797
      22A     -0.495861    23A     -0.482255    24A     -0.343999
      25A     -0.317057

  @DF-RHF Final Energy:  -305.66772252663122

   => Energetics <=

    Nuclear Repulsion Energy =            270.5594092676997775
    One-Electron Energy =                -950.6175139471752118
    Two-Electron Energy =                 374.3903821528442677
    Total Energy =                       -305.6677225266312234
  Basis Set: (AUG-CC-PVTZ AUX)
    Blend: AUG-CC-PVTZ-RI
    Molecular point group: c1

    Geometry (in Angstrom), charge = 0, multiplicity = 1:

       Center              X                  Y                   Z               Mass
    ------------   -----------------  -----------------  -----------------  -----------------
         C            0.239242464582     1.211280519126     0.002072542837    12.000000000000
         C           -1.157375535418     1.226826519126     0.002188542837    12.000000000000
         C           -1.877807535418     0.032354519126     0.002127542837    12.000000000000
         C           -1.190069535418    -1.184913480874     0.002184542837    12.000000000000
         C            0.202784464582    -1.212850480874     0.002098542837    12.000000000000
         C            0.916110464582    -0.010854480874     0.002168542837    12.000000000000
         O            2.288180464582    -0.103290480874     0.002132542837    15.994914619570
         H            0.797878464582     2.146582519126     0.002135542837     1.007825032230
         H           -1.679304535418     2.180721519126     0.002104542837     1.007825032230
         H           -2.964209135418     0.048383919126    -0.197745457163     1.007825032230
         H           -1.741696535418    -2.121950480874     0.002139542837     1.007825032230
         H            0.754493464582    -2.148644480874     0.002154542837     1.007825032230
         H            2.656003464582     0.797846519126     0.002479542837     1.007825032230

  Basis Set: AUG-CC-PVTZ
    Blend: AUG-CC-PVTZ
  Basis Set: (AUG-CC-PVTZ AUX)
    Blend: AUG-CC-PVTZ-JKFIT
	 Reference Energy          =    -305.6677225266312234 [Eh]
	 Singles Energy            =      -0.0000000000000000 [Eh]
	 Same-Spin Energy          =      -0.3255654112133500 [Eh]
	 Opposite-Spin Energy      =      -1.0072859583174605 [Eh]
	 Correlation Energy        =      -1.3328513695308106 [Eh]
	 Total Energy              =    -307.0005738961620523 [Eh]

	 ================> DF-SCS-MP2 Energies <==================
	-----------------------------------------------------------
	 SCS Same-Spin Scale       =       0.3333333333333333 [-]
	 SCS Opposite-Spin Scale   =       1.2000000000000000 [-]
	 SCS Same-Spin Energy      =      -0.1085218037377833 [Eh]
	 SCS Opposite-Spin Energy  =      -1.2087431499809524 [Eh]
	 SCS Correlation Energy    =      -1.3172649537187358 [Eh]
	 SCS Total Energy          =    -306.9849874803499574 [Eh]
	-----------------------------------------------------------

  Dipole Moment: [D]
     X:    -0.0436      Y:     1.2833      Z:    -0.1321     Total:     1.2909

*** Psi4 exiting successfully. Buy a developer a beer!
