                               Psi4 1.3.2 release

  ==> Input File <==

--------------------------------------------------------------------------
#psi4
#
memory 32 gb

molecule  {
0 1
  C        0.2607240     1.2023270    -0.0000750
  C       -1.1358940     1.2178730     0.0000410
  C       -1.8563260     0.0234010    -0.0000200
  C       -1.1685880    -1.1938670     0.0000370
  C        0.2242660    -1.2218040    -0.0000490
  C        0.9375920    -0.0198080     0.0000210
  O        2.3096620    -0.1122440    -0.0000150
  H        0.8193600     2.1376290    -0.0000120
  H       -1.6578230     2.1717680    -0.0000430
  H       -2.9427314     0.0394307    -0.2998930
  H       -1.7202150    -2.1309040    -0.0000080
  H        0.7759750    -2.1575980     0.0000070
  H        2.6774850     0.7888930     0.0003320
units angstrom
no_reorient  #important for SAPT in psi4, default
symmetry c1  #important for SAPT in psi4, default
}

set PROPERTIES_ORIGIN ["COM"]
properties('MP2/aug-cc-pvtz', properties = ['dipole'])
--------------------------------------------------------------------------

    Molecular point group: c1
  Charge       = 0
  Multiplicity = 1
  Basis Set: AUG-CC-PVTZ
    Blend: AUG-CC-PVTZ
  Basis Set: (AUG-CC-PVTZ AUX)
    Blend: AUG-CC-PVTZ-JKFIT

    Orbital Energies [Eh]
    ---------------------

    Doubly Occupied:

       1A    -20.594380     2A    -11.307218     3A    -11.246304
       4A    -11.244166     5A    -11.237985     6A    -11.233629
       7A    -11.231445     8A     -1.402893     9A     -1.147624
      10A     -1.021167    11A     -1.004134    12A     -0.846773
      13A     -0.820951    14A     -0.731500    15A     -0.680649
      16A     -0.651309    17A     -0.609292    18A     -0.592573
      19A     -0.590456    20A     -0.569703    21A     -0.516100
      22A     -0.496177    23A     -0.479920    24A     -0.344259
      25A     -0.316985

  @DF-RHF Final Energy:  -305.66419087785971

   => Energetics <=

    Nuclear Repulsion Energy =            270.4787157149326617
    One-Electron Energy =                -950.4506312980187204
    Two-Electron Energy =                 374.3077247052262919
    Total Energy =                       -305.6641908778597099
  Basis Set: (AUG-CC-PVTZ AUX)
    Blend: AUG-CC-PVTZ-RI
    Molecular point group: c1

    Geometry (in Angstrom), charge = 0, multiplicity = 1:

       Center              X                  Y                   Z               Mass
    ------------   -----------------  -----------------  -----------------  -----------------
         C            0.239242505306     1.211280515911     0.003144219834    12.000000000000
         C           -1.157375494694     1.226826515911     0.003260219834    12.000000000000
         C           -1.877807494694     0.032354515911     0.003199219834    12.000000000000
         C           -1.190069494694    -1.184913484089     0.003256219834    12.000000000000
         C            0.202784505306    -1.212850484089     0.003170219834    12.000000000000
         C            0.916110505306    -0.010854484089     0.003240219834    12.000000000000
         O            2.288180505306    -0.103290484089     0.003204219834    15.994914619570
         H            0.797878505306     2.146582515911     0.003207219834     1.007825032230
         H           -1.679304494694     2.180721515911     0.003176219834     1.007825032230
         H           -2.964212894694     0.048384215911    -0.296673780166     1.007825032230
         H           -1.741696494694    -2.121950484089     0.003211219834     1.007825032230
         H            0.754493505306    -2.148644484089     0.003226219834     1.007825032230
         H            2.656003505306     0.797846515911     0.003551219834     1.007825032230

  Basis Set: AUG-CC-PVTZ
    Blend: AUG-CC-PVTZ
  Basis Set: (AUG-CC-PVTZ AUX)
    Blend: AUG-CC-PVTZ-JKFIT
	 Reference Energy          =    -305.6641908778597099 [Eh]
	 Singles Energy            =      -0.0000000000000000 [Eh]
	 Same-Spin Energy          =      -0.3257085347952937 [Eh]
	 Opposite-Spin Energy      =      -1.0077224019412614 [Eh]
	 Correlation Energy        =      -1.3334309367365551 [Eh]
	 Total Energy              =    -306.9976218145962434 [Eh]

	 ================> DF-SCS-MP2 Energies <==================
	-----------------------------------------------------------
	 SCS Same-Spin Scale       =       0.3333333333333333 [-]
	 SCS Opposite-Spin Scale   =       1.2000000000000000 [-]
	 SCS Same-Spin Energy      =      -0.1085695115984312 [Eh]
	 SCS Opposite-Spin Energy  =      -1.2092668823295136 [Eh]
	 SCS Correlation Energy    =      -1.3178363939279449 [Eh]
	 SCS Total Energy          =    -306.9820272717876719 [Eh]
	-----------------------------------------------------------

  Dipole Moment: [D]
     X:     0.0039      Y:     1.2828      Z:    -0.1953     Total:     1.2976

*** Psi4 exiting successfully. Buy a developer a beer!
