                               Psi4 1.3.2 release

  ==> Input File <==

--------------------------------------------------------------------------
#psi4
#
memory 32 gb

molecule  {
0 1
  C        0.2607240     1.2023270    -0.0000750
  C       -1.1358940     1.2178730     0.0000410
  C       -1.8563260     0.0234010    -0.0000200
  C       -1.1685880    -1.1938670     0.0000370
  C        0.2242660    -1.2218040    -0.0000490
  C        0.9375920    -0.0198080     0.0000210
  O        2.3096620    -0.1122440    -0.0000150
  H        0.8193600     2.1376290    -0.0000120
  H       -1.6578293     2.1717654    -0.3000430
  H       -2.9427200     0.0394300     0.0001070
  H       -1.7202150    -2.1309040    -0.0000080
  H        0.7759750    -2.1575980     0.0000070
  H        2.6774850     0.7888930     0.0003320
units angstrom
no_reorient  #important for SAPT in psi4, default
symmetry c1  #important for SAPT in psi4, default
}

set PROPERTIES_ORIGIN ["COM"]
properties('MP2/aug-cc-pvtz', properties = ['dipole'])
--------------------------------------------------------------------------

    Molecular point group: c1
  Charge       = 0
  Multiplicity = 1
  Basis Set: AUG-CC-PVTZ
    Blend: AUG-CC-PVTZ
  Basis Set: (AUG-CC-PVTZ AUX)
    Blend: AUG-CC-PVTZ-JKFIT

    Orbital Energies [Eh]
    ---------------------

    Doubly Occupied:

       1A    -20.593773     2A    -11.306427     3A    -11.249038
       4A    -11.243761     5A    -11.238263     6A    -11.231993
       7A    -11.231067     8A     -1.402370     9A     -1.147546
      10A     -1.020125    11A     -1.005209    12A     -0.845848
      13A     -0.820845    14A     -0.729948    15A     -0.684786
      16A     -0.651125    17A     -0.607566    18A     -0.591834
      19A     -0.587406    20A     -0.570171    21A     -0.517674
      22A     -0.498347    23A     -0.478468    24A     -0.343516
      25A     -0.317354

  @DF-RHF Final Energy:  -305.66392546669960

   => Energetics <=

    Nuclear Repulsion Energy =            270.4778404773588250
    One-Electron Energy =                -950.4546063711364923
    Two-Electron Energy =                 374.3128404270780152
    Total Energy =                       -305.6639254666995953
  Basis Set: (AUG-CC-PVTZ AUX)
    Blend: AUG-CC-PVTZ-RI
    Molecular point group: c1

    Geometry (in Angstrom), charge = 0, multiplicity = 1:

       Center              X                  Y                   Z               Mass
    ------------   -----------------  -----------------  -----------------  -----------------
         C            0.239242450650     1.211280551276     0.003144219834    12.000000000000
         C           -1.157375549350     1.226826551276     0.003260219834    12.000000000000
         C           -1.877807549350     0.032354551276     0.003199219834    12.000000000000
         C           -1.190069549350    -1.184913448724     0.003256219834    12.000000000000
         C            0.202784450650    -1.212850448724     0.003170219834    12.000000000000
         C            0.916110450650    -0.010854448724     0.003240219834    12.000000000000
         O            2.288180450650    -0.103290448724     0.003204219834    15.994914619570
         H            0.797878450650     2.146582551276     0.003207219834     1.007825032230
         H           -1.679310849350     2.180718951276    -0.296823780166     1.007825032230
         H           -2.964201549350     0.048383551276     0.003326219834     1.007825032230
         H           -1.741696549350    -2.121950448724     0.003211219834     1.007825032230
         H            0.754493450650    -2.148644448724     0.003226219834     1.007825032230
         H            2.656003450650     0.797846551276     0.003551219834     1.007825032230

  Basis Set: AUG-CC-PVTZ
    Blend: AUG-CC-PVTZ
  Basis Set: (AUG-CC-PVTZ AUX)
    Blend: AUG-CC-PVTZ-JKFIT
	 Reference Energy          =    -305.6639254666995953 [Eh]
	 Singles Energy            =      -0.0000000000000000 [Eh]
	 Same-Spin Energy          =      -0.3257991410618376 [Eh]
	 Opposite-Spin Energy      =      -1.0078648317649734 [Eh]
	 Correlation Energy        =      -1.3336639728268112 [Eh]
	 Total Energy              =    -306.9975894395263936 [Eh]

	 ================> DF-SCS-MP2 Energies <==================
	-----------------------------------------------------------
	 SCS Same-Spin Scale       =       0.3333333333333333 [-]
	 SCS Opposite-Spin Scale   =       1.2000000000000000 [-]
	 SCS Same-Spin Energy      =      -0.1085997136872792 [Eh]
	 SCS Opposite-Spin Energy  =      -1.2094377981179680 [Eh]
	 SCS Correlation Energy    =      -1.3180375118052472 [Eh]
	 SCS Total Energy          =    -306.9819629785048392 [Eh]
	-----------------------------------------------------------

  Dipole Moment: [D]
     X:    -0.0465      Y:     1.2138      Z:    -0.1839     Total:     1.2285

*** Psi4 exiting successfully. Buy a developer a beer!
