                               Psi4 1.3.2 release

  ==> Input File <==

--------------------------------------------------------------------------
#psi4
#
memory 32 gb

molecule  {
0 1
  C        0.2607240     1.2023270    -0.0000750
  C       -1.1358940     1.2178730     0.0000410
  C       -1.8563260     0.0234010    -0.0000200
  C       -1.1685880    -1.1938670     0.0000370
  C        0.2242660    -1.2218040    -0.0000490
  C        0.9375920    -0.0198080     0.0000210
  O        2.3096620    -0.1122440    -0.0000150
  H        0.8193619     2.1376306     0.0999880
  H       -1.6578230     2.1717680    -0.0000430
  H       -2.9427200     0.0394300     0.0001070
  H       -1.7202150    -2.1309040    -0.0000080
  H        0.7759750    -2.1575980     0.0000070
  H        2.6774850     0.7888930     0.0003320
units angstrom
no_reorient  #important for SAPT in psi4, default
symmetry c1  #important for SAPT in psi4, default
}

set PROPERTIES_ORIGIN ["COM"]
properties('MP2/aug-cc-pvtz', properties = ['dipole'])
--------------------------------------------------------------------------

    Molecular point group: c1
  Charge       = 0
  Multiplicity = 1
  Basis Set: AUG-CC-PVTZ
    Blend: AUG-CC-PVTZ
  Basis Set: (AUG-CC-PVTZ AUX)
    Blend: AUG-CC-PVTZ-JKFIT

    Orbital Energies [Eh]
    ---------------------

    Doubly Occupied:

       1A    -20.593593     2A    -11.306262     3A    -11.245598
       4A    -11.243543     5A    -11.237971     6A    -11.231133
       7A    -11.230276     8A     -1.402146     9A     -1.147341
      10A     -1.020584    11A     -1.005038    12A     -0.846321
      13A     -0.822434    14A     -0.730809    15A     -0.684715
      16A     -0.652297    17A     -0.609695    18A     -0.592491
      19A     -0.589128    20A     -0.569863    21A     -0.517253
      22A     -0.495754    23A     -0.483843    24A     -0.343787
      25A     -0.317176

  @DF-RHF Final Energy:  -305.66968564903630

   => Energetics <=

    Nuclear Repulsion Energy =            270.6087521709927728
    One-Electron Energy =                -950.7187772232302905
    Two-Electron Energy =                 374.4403394032011647
    Total Energy =                       -305.6696856490362961
  Basis Set: (AUG-CC-PVTZ AUX)
    Blend: AUG-CC-PVTZ-RI
    Molecular point group: c1

    Geometry (in Angstrom), charge = 0, multiplicity = 1:

       Center              X                  Y                   Z               Mass
    ------------   -----------------  -----------------  -----------------  -----------------
         C            0.239242362773     1.211280506265    -0.001142488152    12.000000000000
         C           -1.157375637227     1.226826506265    -0.001026488152    12.000000000000
         C           -1.877807637227     0.032354506265    -0.001087488152    12.000000000000
         C           -1.190069637227    -1.184913493735    -0.001030488152    12.000000000000
         C            0.202784362773    -1.212850493735    -0.001116488152    12.000000000000
         C            0.916110362773    -0.010854493735    -0.001046488152    12.000000000000
         O            2.288180362773    -0.103290493735    -0.001082488152    15.994914619570
         H            0.797880262773     2.146584106265     0.098920511848     1.007825032230
         H           -1.679304637227     2.180721506265    -0.001110488152     1.007825032230
         H           -2.964201637227     0.048383506265    -0.000960488152     1.007825032230
         H           -1.741696637227    -2.121950493735    -0.001075488152     1.007825032230
         H            0.754493362773    -2.148644493735    -0.001060488152     1.007825032230
         H            2.656003362773     0.797846506265    -0.000735488152     1.007825032230

  Basis Set: AUG-CC-PVTZ
    Blend: AUG-CC-PVTZ
  Basis Set: (AUG-CC-PVTZ AUX)
    Blend: AUG-CC-PVTZ-JKFIT
	 Reference Energy          =    -305.6696856490362961 [Eh]
	 Singles Energy            =      -0.0000000000000000 [Eh]
	 Same-Spin Energy          =      -0.3254735500523189 [Eh]
	 Opposite-Spin Energy      =      -1.0069955545740898 [Eh]
	 Correlation Energy        =      -1.3324691046264088 [Eh]
	 Total Energy              =    -307.0021547536626940 [Eh]

	 ================> DF-SCS-MP2 Energies <==================
	-----------------------------------------------------------
	 SCS Same-Spin Scale       =       0.3333333333333333 [-]
	 SCS Opposite-Spin Scale   =       1.2000000000000000 [-]
	 SCS Same-Spin Energy      =      -0.1084911833507730 [Eh]
	 SCS Opposite-Spin Energy  =      -1.2083946654889077 [Eh]
	 SCS Correlation Energy    =      -1.3168858488396806 [Eh]
	 SCS Total Energy          =    -306.9865714978759570 [Eh]
	-----------------------------------------------------------

  Dipole Moment: [D]
     X:    -0.0878      Y:     1.2757      Z:     0.0686     Total:     1.2806

*** Psi4 exiting successfully. Buy a developer a beer!
