                               Psi4 1.3.2 release

  ==> Input File <==

--------------------------------------------------------------------------
#psi4
#
memory 32 gb

molecule  {
0 1
  C        0.2607240     1.2023270    -0.0000750
  C       -1.1358940     1.2178730     0.0000410
  C       -1.8563260     0.0234010    -0.0000200
  C       -1.1685880    -1.1938670     0.0000370
  C        0.2242660    -1.2218040    -0.0000490
  C        0.9375920    -0.0198080     0.0000210
  O        2.3096620    -0.1122440    -0.0000150
  H        0.8193600     2.1376290    -0.0000120
  H       -1.6578230     2.1717680    -0.0000430
  H       -2.9427295     0.0394305    -0.2498930
  H       -1.7202150    -2.1309040    -0.0000080
  H        0.7759750    -2.1575980     0.0000070
  H        2.6774850     0.7888930     0.0003320
units angstrom
no_reorient  #important for SAPT in psi4, default
symmetry c1  #important for SAPT in psi4, default
}

set PROPERTIES_ORIGIN ["COM"]
properties('MP2/aug-cc-pvtz', properties = ['dipole'])
--------------------------------------------------------------------------

    Molecular point group: c1
  Charge       = 0
  Multiplicity = 1
  Basis Set: AUG-CC-PVTZ
    Blend: AUG-CC-PVTZ
  Basis Set: (AUG-CC-PVTZ AUX)
    Blend: AUG-CC-PVTZ-JKFIT

    Orbital Energies [Eh]
    ---------------------

    Doubly Occupied:

       1A    -20.594134     2A    -11.306895     3A    -11.246054
       4A    -11.243932     5A    -11.237860     6A    -11.232609
       7A    -11.231331     8A     -1.402661     9A     -1.147517
      10A     -1.021004    11A     -1.004380    12A     -0.846683
      13A     -0.821350    14A     -0.731334    15A     -0.681807
      16A     -0.651696    17A     -0.609435    18A     -0.592438
      19A     -0.590256    20A     -0.569746    21A     -0.516492
      22A     -0.496003    23A     -0.481200    24A     -0.344116
      25A     -0.317022

  @DF-RHF Final Energy:  -305.66617829835639

   => Energetics <=

    Nuclear Repulsion Energy =            270.5226347969401104
    One-Electron Energy =                -950.5417183079027836
    Two-Electron Energy =                 374.3529052126062879
    Total Energy =                       -305.6661782983563853
  Basis Set: (AUG-CC-PVTZ AUX)
    Blend: AUG-CC-PVTZ-RI
    Molecular point group: c1

    Geometry (in Angstrom), charge = 0, multiplicity = 1:

       Center              X                  Y                   Z               Mass
    ------------   -----------------  -----------------  -----------------  -----------------
         C            0.239242484944     1.211280518054     0.002608381335    12.000000000000
         C           -1.157375515056     1.226826518054     0.002724381335    12.000000000000
         C           -1.877807515056     0.032354518054     0.002663381335    12.000000000000
         C           -1.190069515056    -1.184913481946     0.002720381335    12.000000000000
         C            0.202784484944    -1.212850481946     0.002634381335    12.000000000000
         C            0.916110484944    -0.010854481946     0.002704381335    12.000000000000
         O            2.288180484944    -0.103290481946     0.002668381335    15.994914619570
         H            0.797878484944     2.146582518054     0.002671381335     1.007825032230
         H           -1.679304515056     2.180721518054     0.002640381335     1.007825032230
         H           -2.964211015056     0.048384018054    -0.247209618665     1.007825032230
         H           -1.741696515056    -2.121950481946     0.002675381335     1.007825032230
         H            0.754493484944    -2.148644481946     0.002690381335     1.007825032230
         H            2.656003484944     0.797846518054     0.003015381335     1.007825032230

  Basis Set: AUG-CC-PVTZ
    Blend: AUG-CC-PVTZ
  Basis Set: (AUG-CC-PVTZ AUX)
    Blend: AUG-CC-PVTZ-JKFIT
	 Reference Energy          =    -305.6661782983563853 [Eh]
	 Singles Energy            =      -0.0000000000000000 [Eh]
	 Same-Spin Energy          =      -0.3256310412836685 [Eh]
	 Opposite-Spin Energy      =      -1.0074827038412322 [Eh]
	 Correlation Energy        =      -1.3331137451249007 [Eh]
	 Total Energy              =    -306.9992920434812618 [Eh]

	 ================> DF-SCS-MP2 Energies <==================
	-----------------------------------------------------------
	 SCS Same-Spin Scale       =       0.3333333333333333 [-]
	 SCS Opposite-Spin Scale   =       1.2000000000000000 [-]
	 SCS Same-Spin Energy      =      -0.1085436804278895 [Eh]
	 SCS Opposite-Spin Energy  =      -1.2089792446094785 [Eh]
	 SCS Correlation Energy    =      -1.3175229250373679 [Eh]
	 SCS Total Energy          =    -306.9837012233937799 [Eh]
	-----------------------------------------------------------

  Dipole Moment: [D]
     X:    -0.0221      Y:     1.2831      Z:    -0.1641     Total:     1.2937

*** Psi4 exiting successfully. Buy a developer a beer!
