                               Psi4 1.3.2 release

  ==> Input File <==

--------------------------------------------------------------------------
#psi4
#
memory 32 gb

molecule  {
0 1
  C        0.2607240     1.2023270    -0.0000750
  C       -1.1358940     1.2178730     0.0000410
  C       -1.8563260     0.0234010    -0.0000200
  C       -1.1685880    -1.1938670     0.0000370
  C        0.2242660    -1.2218040    -0.0000490
  C        0.9375920    -0.0198080     0.0000210
  O        2.3096620    -0.1122440    -0.0000150
  H        0.8193629     2.1376315     0.1499880
  H       -1.6578230     2.1717680    -0.0000430
  H       -2.9427200     0.0394300     0.0001070
  H       -1.7202150    -2.1309040    -0.0000080
  H        0.7759750    -2.1575980     0.0000070
  H        2.6774850     0.7888930     0.0003320
units angstrom
no_reorient  #important for SAPT in psi4, default
symmetry c1  #important for SAPT in psi4, default
}

set PROPERTIES_ORIGIN ["COM"]
properties('MP2/aug-cc-pvtz', properties = ['dipole'])
--------------------------------------------------------------------------

    Molecular point group: c1
  Charge       = 0
  Multiplicity = 1
  Basis Set: AUG-CC-PVTZ
    Blend: AUG-CC-PVTZ
  Basis Set: (AUG-CC-PVTZ AUX)
    Blend: AUG-CC-PVTZ-JKFIT

    Orbital Energies [Eh]
    ---------------------

    Doubly Occupied:

       1A    -20.593617     2A    -11.306392     3A    -11.245717
       4A    -11.243695     5A    -11.238441     6A    -11.231185
       7A    -11.230331     8A     -1.402164     9A     -1.147397
      10A     -1.020506    11A     -1.005051    12A     -0.846083
      13A     -0.822484    14A     -0.730608    15A     -0.684511
      16A     -0.652044    17A     -0.609592    18A     -0.592776
      19A     -0.588440    20A     -0.569852    21A     -0.517194
      22A     -0.495921    23A     -0.483465    24A     -0.343771
      25A     -0.317224

  @DF-RHF Final Energy:  -305.66895197352716

   => Energetics <=

    Nuclear Repulsion Energy =            270.5865119587560912
    One-Electron Energy =                -950.6740082472016411
    Two-Electron Energy =                 374.4185443149183925
    Total Energy =                       -305.6689519735271574
  Basis Set: (AUG-CC-PVTZ AUX)
    Blend: AUG-CC-PVTZ-RI
    Molecular point group: c1

    Geometry (in Angstrom), charge = 0, multiplicity = 1:

       Center              X                  Y                   Z               Mass
    ------------   -----------------  -----------------  -----------------  -----------------
         C            0.239242352056     1.211280496620    -0.001678326650    12.000000000000
         C           -1.157375647944     1.226826496620    -0.001562326650    12.000000000000
         C           -1.877807647944     0.032354496620    -0.001623326650    12.000000000000
         C           -1.190069647944    -1.184913503380    -0.001566326650    12.000000000000
         C            0.202784352056    -1.212850503380    -0.001652326650    12.000000000000
         C            0.916110352056    -0.010854503380    -0.001582326650    12.000000000000
         O            2.288180352056    -0.103290503380    -0.001618326650    15.994914619570
         H            0.797881252056     2.146584996620     0.148384673350     1.007825032230
         H           -1.679304647944     2.180721496620    -0.001646326650     1.007825032230
         H           -2.964201647944     0.048383496620    -0.001496326650     1.007825032230
         H           -1.741696647944    -2.121950503380    -0.001611326650     1.007825032230
         H            0.754493352056    -2.148644503380    -0.001596326650     1.007825032230
         H            2.656003352056     0.797846496620    -0.001271326650     1.007825032230

  Basis Set: AUG-CC-PVTZ
    Blend: AUG-CC-PVTZ
  Basis Set: (AUG-CC-PVTZ AUX)
    Blend: AUG-CC-PVTZ-JKFIT
	 Reference Energy          =    -305.6689519735271574 [Eh]
	 Singles Energy            =      -0.0000000000000000 [Eh]
	 Same-Spin Energy          =      -0.3255148430527829 [Eh]
	 Opposite-Spin Energy      =      -1.0070867044053509 [Eh]
	 Correlation Energy        =      -1.3326015474581339 [Eh]
	 Total Energy              =    -307.0015535209852828 [Eh]

	 ================> DF-SCS-MP2 Energies <==================
	-----------------------------------------------------------
	 SCS Same-Spin Scale       =       0.3333333333333333 [-]
	 SCS Opposite-Spin Scale   =       1.2000000000000000 [-]
	 SCS Same-Spin Energy      =      -0.1085049476842610 [Eh]
	 SCS Opposite-Spin Energy  =      -1.2085040452864211 [Eh]
	 SCS Correlation Energy    =      -1.3170089929706821 [Eh]
	 SCS Total Energy          =    -306.9859609664978279 [Eh]
	-----------------------------------------------------------

  Dipole Moment: [D]
     X:    -0.0941      Y:     1.2658      Z:     0.1022     Total:     1.2734

*** Psi4 exiting successfully. Buy a developer a beer!
