                               Psi4 1.3.2 release

  ==> Input File <==

--------------------------------------------------------------------------
#psi4
#
memory 32 gb

molecule  {
0 1
  C        0.2607240     1.2023270    -0.0000750
  C       -1.1358940     1.2178730     0.0000410
  C       -1.8563260     0.0234010    -0.0000200
  C       -1.1685880    -1.1938670     0.0000370
  C        0.2242660    -1.2218040    -0.0000490
  C        0.9375920    -0.0198080     0.0000210
  O        2.3096620    -0.1122440    -0.0000150
  H        0.8193639     2.1376323     0.1999880
  H       -1.6578230     2.1717680    -0.0000430
  H       -2.9427200     0.0394300     0.0001070
  H       -1.7202150    -2.1309040    -0.0000080
  H        0.7759750    -2.1575980     0.0000070
  H        2.6774850     0.7888930     0.0003320
units angstrom
no_reorient  #important for SAPT in psi4, default
symmetry c1  #important for SAPT in psi4, default
}

set PROPERTIES_ORIGIN ["COM"]
properties('MP2/aug-cc-pvtz', properties = ['dipole'])
--------------------------------------------------------------------------

    Molecular point group: c1
  Charge       = 0
  Multiplicity = 1
  Basis Set: AUG-CC-PVTZ
    Blend: AUG-CC-PVTZ
  Basis Set: (AUG-CC-PVTZ AUX)
    Blend: AUG-CC-PVTZ-JKFIT

    Orbital Energies [Eh]
    ---------------------

    Doubly Occupied:

       1A    -20.593652     2A    -11.306576     3A    -11.245888
       4A    -11.243907     5A    -11.239095     6A    -11.231260
       7A    -11.230410     8A     -1.402191     9A     -1.147477
      10A     -1.020408    11A     -1.005070    12A     -0.845766
      13A     -0.822557    14A     -0.730346    15A     -0.684244
      16A     -0.651697    17A     -0.609457    18A     -0.593055
      19A     -0.587598    20A     -0.569832    21A     -0.517112
      22A     -0.496138    23A     -0.482950    24A     -0.343752
      25A     -0.317292

  @DF-RHF Final Energy:  -305.66787817286655

   => Energetics <=

    Nuclear Repulsion Energy =            270.5558067664186410
    One-Electron Energy =                -950.6119136011405999
    Two-Electron Energy =                 374.3882286618554076
    Total Energy =                       -305.6678781728665513
  Basis Set: (AUG-CC-PVTZ AUX)
    Blend: AUG-CC-PVTZ-RI
    Molecular point group: c1

    Geometry (in Angstrom), charge = 0, multiplicity = 1:

       Center              X                  Y                   Z               Mass
    ------------   -----------------  -----------------  -----------------  -----------------
         C            0.239242341339     1.211280488047    -0.002214165149    12.000000000000
         C           -1.157375658661     1.226826488047    -0.002098165149    12.000000000000
         C           -1.877807658661     0.032354488047    -0.002159165149    12.000000000000
         C           -1.190069658661    -1.184913511953    -0.002102165149    12.000000000000
         C            0.202784341339    -1.212850511953    -0.002188165149    12.000000000000
         C            0.916110341339    -0.010854511953    -0.002118165149    12.000000000000
         O            2.288180341339    -0.103290511953    -0.002154165149    15.994914619570
         H            0.797882241339     2.146585788047     0.197848834851     1.007825032230
         H           -1.679304658661     2.180721488047    -0.002182165149     1.007825032230
         H           -2.964201658661     0.048383488047    -0.002032165149     1.007825032230
         H           -1.741696658661    -2.121950511953    -0.002147165149     1.007825032230
         H            0.754493341339    -2.148644511953    -0.002132165149     1.007825032230
         H            2.656003341339     0.797846488047    -0.001807165149     1.007825032230

  Basis Set: AUG-CC-PVTZ
    Blend: AUG-CC-PVTZ
  Basis Set: (AUG-CC-PVTZ AUX)
    Blend: AUG-CC-PVTZ-JKFIT
	 Reference Energy          =    -305.6678781728665513 [Eh]
	 Singles Energy            =      -0.0000000000000000 [Eh]
	 Same-Spin Energy          =      -0.3255710010092298 [Eh]
	 Opposite-Spin Energy      =      -1.0072188225751804 [Eh]
	 Correlation Energy        =      -1.3327898235844100 [Eh]
	 Total Energy              =    -307.0006679964509431 [Eh]

	 ================> DF-SCS-MP2 Energies <==================
	-----------------------------------------------------------
	 SCS Same-Spin Scale       =       0.3333333333333333 [-]
	 SCS Opposite-Spin Scale   =       1.2000000000000000 [-]
	 SCS Same-Spin Energy      =      -0.1085236670030766 [Eh]
	 SCS Opposite-Spin Energy  =      -1.2086625870902163 [Eh]
	 SCS Correlation Energy    =      -1.3171862540932930 [Eh]
	 SCS Total Energy          =    -306.9850644269598661 [Eh]
	-----------------------------------------------------------

  Dipole Moment: [D]
     X:    -0.1028      Y:     1.2521      Z:     0.1353     Total:     1.2635

*** Psi4 exiting successfully. Buy a developer a beer!
