                               Psi4 1.3.2 release

  ==> Input File <==

--------------------------------------------------------------------------
#psi4
#
memory 32 gb

molecule  {
0 1
  C        0.2607240     1.2023270    -0.0000750
  C       -1.1358940     1.2178730     0.0000410
  C       -1.8563260     0.0234010    -0.0000200
  C       -1.1685880    -1.1938670     0.0000370
  C        0.2242660    -1.2218040    -0.0000490
  C        0.9375920    -0.0198080     0.0000210
  O        2.3096620    -0.1122440    -0.0000150
  H        0.8193658     2.1376339     0.2999880
  H       -1.6578230     2.1717680    -0.0000430
  H       -2.9427200     0.0394300     0.0001070
  H       -1.7202150    -2.1309040    -0.0000080
  H        0.7759750    -2.1575980     0.0000070
  H        2.6774850     0.7888930     0.0003320
units angstrom
no_reorient  #important for SAPT in psi4, default
symmetry c1  #important for SAPT in psi4, default
}

set PROPERTIES_ORIGIN ["COM"]
properties('MP2/aug-cc-pvtz', properties = ['dipole'])
--------------------------------------------------------------------------

    Molecular point group: c1
  Charge       = 0
  Multiplicity = 1
  Basis Set: AUG-CC-PVTZ
    Blend: AUG-CC-PVTZ
  Basis Set: (AUG-CC-PVTZ AUX)
    Blend: AUG-CC-PVTZ-JKFIT

    Orbital Energies [Eh]
    ---------------------

    Doubly Occupied:

       1A    -20.593751     2A    -11.307104     3A    -11.246382
       4A    -11.244507     5A    -11.240928     6A    -11.231483
       7A    -11.230642     8A     -1.402269     9A     -1.147717
      10A     -1.020176    11A     -1.005133    12A     -0.844948
      13A     -0.822769    14A     -0.729702    15A     -0.683583
      16A     -0.650757    17A     -0.609117    18A     -0.593530
      19A     -0.585534    20A     -0.569735    21A     -0.516861
      22A     -0.496658    23A     -0.481540    24A     -0.343713
      25A     -0.317493

  @DF-RHF Final Energy:  -305.66454845967291

   => Energetics <=

    Nuclear Repulsion Energy =            270.4706910650088503
    One-Electron Energy =                -950.4384189676496817
    Two-Electron Energy =                 374.3031794429679167
    Total Energy =                       -305.6645484596729148
  Basis Set: (AUG-CC-PVTZ AUX)
    Blend: AUG-CC-PVTZ-RI
    Molecular point group: c1

    Geometry (in Angstrom), charge = 0, multiplicity = 1:

       Center              X                  Y                   Z               Mass
    ------------   -----------------  -----------------  -----------------  -----------------
         C            0.239242320977     1.211280470900    -0.003285842145    12.000000000000
         C           -1.157375679023     1.226826470900    -0.003169842145    12.000000000000
         C           -1.877807679023     0.032354470900    -0.003230842145    12.000000000000
         C           -1.190069679023    -1.184913529100    -0.003173842145    12.000000000000
         C            0.202784320977    -1.212850529100    -0.003259842145    12.000000000000
         C            0.916110320977    -0.010854529100    -0.003189842145    12.000000000000
         O            2.288180320977    -0.103290529100    -0.003225842145    15.994914619570
         H            0.797884120977     2.146587370900     0.296777157855     1.007825032230
         H           -1.679304679023     2.180721470900    -0.003253842145     1.007825032230
         H           -2.964201679023     0.048383470900    -0.003103842145     1.007825032230
         H           -1.741696679023    -2.121950529100    -0.003218842145     1.007825032230
         H            0.754493320977    -2.148644529100    -0.003203842145     1.007825032230
         H            2.656003320977     0.797846470900    -0.002878842145     1.007825032230

  Basis Set: AUG-CC-PVTZ
    Blend: AUG-CC-PVTZ
  Basis Set: (AUG-CC-PVTZ AUX)
    Blend: AUG-CC-PVTZ-JKFIT
	 Reference Energy          =    -305.6645484596729148 [Eh]
	 Singles Energy            =      -0.0000000000000000 [Eh]
	 Same-Spin Energy          =      -0.3257241664429916 [Eh]
	 Opposite-Spin Energy      =      -1.0076089787765534 [Eh]
	 Correlation Energy        =      -1.3333331452195449 [Eh]
	 Total Energy              =    -306.9978816048924841 [Eh]

	 ================> DF-SCS-MP2 Energies <==================
	-----------------------------------------------------------
	 SCS Same-Spin Scale       =       0.3333333333333333 [-]
	 SCS Opposite-Spin Scale   =       1.2000000000000000 [-]
	 SCS Same-Spin Energy      =      -0.1085747221476639 [Eh]
	 SCS Opposite-Spin Energy  =      -1.2091307745318640 [Eh]
	 SCS Correlation Energy    =      -1.3177054966795279 [Eh]
	 SCS Total Energy          =    -306.9822539563524515 [Eh]
	-----------------------------------------------------------

  Dipole Moment: [D]
     X:    -0.1272      Y:     1.2138      Z:     0.1993     Total:     1.2366

*** Psi4 exiting successfully. Buy a developer a beer!
