                               Psi4 1.3.2 release

  ==> Input File <==

--------------------------------------------------------------------------
#psi4
#
memory 32 gb

molecule  {
0 1
  C        0.2607240     1.2023270    -0.0000750
  C       -1.1358940     1.2178730     0.0000410
  C       -1.8563260     0.0234010    -0.0000200
  C       -1.1685880    -1.1938670     0.0000370
  C        0.2242660    -1.2218040    -0.0000490
  C        0.9375920    -0.0198080     0.0000210
  O        2.3096598    -0.1122429     0.0999850
  H        0.8193600     2.1376290    -0.0000120
  H       -1.6578230     2.1717680    -0.0000430
  H       -2.9427200     0.0394300     0.0001070
  H       -1.7202150    -2.1309040    -0.0000080
  H        0.7759750    -2.1575980     0.0000070
  H        2.6774850     0.7888930     0.0003320
units angstrom
no_reorient  #important for SAPT in psi4, default
symmetry c1  #important for SAPT in psi4, default
}

set PROPERTIES_ORIGIN ["COM"]
properties('MP2/aug-cc-pvtz', properties = ['dipole'])
--------------------------------------------------------------------------

    Molecular point group: c1
  Charge       = 0
  Multiplicity = 1
  Basis Set: AUG-CC-PVTZ
    Blend: AUG-CC-PVTZ
  Basis Set: (AUG-CC-PVTZ AUX)
    Blend: AUG-CC-PVTZ-JKFIT

    Orbital Energies [Eh]
    ---------------------

    Doubly Occupied:

       1A    -20.593770     2A    -11.306053     3A    -11.245611
       4A    -11.243502     5A    -11.237926     6A    -11.231383
       7A    -11.230614     8A     -1.399658     9A     -1.147405
      10A     -1.020776    11A     -1.004942    12A     -0.845958
      13A     -0.821960    14A     -0.729257    15A     -0.684831
      16A     -0.652170    17A     -0.609955    18A     -0.592587
      19A     -0.589561    20A     -0.568322    21A     -0.517307
      22A     -0.495894    23A     -0.484081    24A     -0.343887
      25A     -0.317616

  @DF-RHF Final Energy:  -305.66919435990764

   => Energetics <=

    Nuclear Repulsion Energy =            270.5273171119021072
    One-Electron Energy =                -950.5629767776169956
    Two-Electron Energy =                 374.3664653058072531
    Total Energy =                       -305.6691943599076353
  Basis Set: (AUG-CC-PVTZ AUX)
    Blend: AUG-CC-PVTZ-RI
    Molecular point group: c1

    Geometry (in Angstrom), charge = 0, multiplicity = 1:

       Center              X                  Y                   Z               Mass
    ------------   -----------------  -----------------  -----------------  -----------------
         C            0.239242757317     1.211280336321    -0.017079102783    12.000000000000
         C           -1.157375242683     1.226826336321    -0.016963102783    12.000000000000
         C           -1.877807242683     0.032354336321    -0.017024102783    12.000000000000
         C           -1.190069242683    -1.184913663679    -0.016967102783    12.000000000000
         C            0.202784757317    -1.212850663679    -0.017053102783    12.000000000000
         C            0.916110757317    -0.010854663679    -0.016983102783    12.000000000000
         O            2.288178557317    -0.103289563679     0.082980897217    15.994914619570
         H            0.797878757317     2.146582336321    -0.017016102783     1.007825032230
         H           -1.679304242683     2.180721336321    -0.017047102783     1.007825032230
         H           -2.964201242683     0.048383336321    -0.016897102783     1.007825032230
         H           -1.741696242683    -2.121950663679    -0.017012102783     1.007825032230
         H            0.754493757317    -2.148644663679    -0.016997102783     1.007825032230
         H            2.656003757317     0.797846336321    -0.016672102783     1.007825032230

  Basis Set: AUG-CC-PVTZ
    Blend: AUG-CC-PVTZ
  Basis Set: (AUG-CC-PVTZ AUX)
    Blend: AUG-CC-PVTZ-JKFIT
	 Reference Energy          =    -305.6691943599076353 [Eh]
	 Singles Energy            =      -0.0000000000000000 [Eh]
	 Same-Spin Energy          =      -0.3255470468685747 [Eh]
	 Opposite-Spin Energy      =      -1.0072336322160149 [Eh]
	 Correlation Energy        =      -1.3327806790845895 [Eh]
	 Total Energy              =    -307.0019750389922137 [Eh]

	 ================> DF-SCS-MP2 Energies <==================
	-----------------------------------------------------------
	 SCS Same-Spin Scale       =       0.3333333333333333 [-]
	 SCS Opposite-Spin Scale   =       1.2000000000000000 [-]
	 SCS Same-Spin Energy      =      -0.1085156822895249 [Eh]
	 SCS Opposite-Spin Energy  =      -1.2086803586592179 [Eh]
	 SCS Correlation Energy    =      -1.3171960409487427 [Eh]
	 SCS Total Energy          =    -306.9863904008563509 [Eh]
	-----------------------------------------------------------

  Dipole Moment: [D]
     X:    -0.1089      Y:     1.2787      Z:    -0.1613     Total:     1.2934

*** Psi4 exiting successfully. Buy a developer a beer!
