                               Psi4 1.3.2 release

  ==> Input File <==

--------------------------------------------------------------------------
#psi4
#
memory 32 gb

molecule  {
0 1
  C        0.2607240     1.2023270    -0.0000750
  C       -1.1358940     1.2178730     0.0000410
  C       -1.8563260     0.0234010    -0.0000200
  C       -1.1685880    -1.1938670     0.0000370
  C        0.2242660    -1.2218040    -0.0000490
  C        0.9375920    -0.0198080     0.0000210
  O        2.3096620    -0.1122440    -0.0000150
  H        0.8193600     2.1376290    -0.0000120
  H       -1.6578230     2.1717680    -0.0000430
  H       -2.9427219     0.0394301    -0.0498930
  H       -1.7202150    -2.1309040    -0.0000080
  H        0.7759750    -2.1575980     0.0000070
  H        2.6774850     0.7888930     0.0003320
units angstrom
no_reorient  #important for SAPT in psi4, default
symmetry c1  #important for SAPT in psi4, default
}

set PROPERTIES_ORIGIN ["COM"]
properties('MP2/aug-cc-pvtz', properties = ['dipole'])
--------------------------------------------------------------------------

    Molecular point group: c1
  Charge       = 0
  Multiplicity = 1
  Basis Set: AUG-CC-PVTZ
    Blend: AUG-CC-PVTZ
  Basis Set: (AUG-CC-PVTZ AUX)
    Blend: AUG-CC-PVTZ-JKFIT

    Orbital Energies [Eh]
    ---------------------

    Doubly Occupied:

       1A    -20.593596     2A    -11.306188     3A    -11.245525
       4A    -11.243441     5A    -11.237604     6A    -11.231101
       7A    -11.230329     8A     -1.402153     9A     -1.147306
      10A     -1.020664    11A     -1.005001    12A     -0.846524
      13A     -0.822349    14A     -0.730992    15A     -0.684751
      16A     -0.652474    17A     -0.609766    18A     -0.592156
      19A     -0.589816    20A     -0.569863    21A     -0.517270
      22A     -0.495627    23A     -0.484033    24A     -0.343814
      25A     -0.317133

  @DF-RHF Final Energy:  -305.67010311249305

   => Energetics <=

    Nuclear Repulsion Energy =            270.6224672508960793
    One-Electron Energy =                -950.7461919960119303
    Two-Electron Energy =                 374.4536216326227986
    Total Energy =                       -305.6701031124930523
  Basis Set: (AUG-CC-PVTZ AUX)
    Blend: AUG-CC-PVTZ-RI
    Molecular point group: c1

    Geometry (in Angstrom), charge = 0, multiplicity = 1:

       Center              X                  Y                   Z               Mass
    ------------   -----------------  -----------------  -----------------  -----------------
         C            0.239242403497     1.211280522341     0.000465027343    12.000000000000
         C           -1.157375596503     1.226826522341     0.000581027343    12.000000000000
         C           -1.877807596503     0.032354522341     0.000520027343    12.000000000000
         C           -1.190069596503    -1.184913477659     0.000577027343    12.000000000000
         C            0.202784403497    -1.212850477659     0.000491027343    12.000000000000
         C            0.916110403497    -0.010854477659     0.000561027343    12.000000000000
         O            2.288180403497    -0.103290477659     0.000525027343    15.994914619570
         H            0.797878403497     2.146582522341     0.000528027343     1.007825032230
         H           -1.679304596503     2.180721522341     0.000497027343     1.007825032230
         H           -2.964203496503     0.048383622341    -0.049352972657     1.007825032230
         H           -1.741696596503    -2.121950477659     0.000532027343     1.007825032230
         H            0.754493403497    -2.148644477659     0.000547027343     1.007825032230
         H            2.656003403497     0.797846522341     0.000872027343     1.007825032230

  Basis Set: AUG-CC-PVTZ
    Blend: AUG-CC-PVTZ
  Basis Set: (AUG-CC-PVTZ AUX)
    Blend: AUG-CC-PVTZ-JKFIT
	 Reference Energy          =    -305.6701031124930523 [Eh]
	 Singles Energy            =      -0.0000000000000000 [Eh]
	 Same-Spin Energy          =      -0.3254480295671541 [Eh]
	 Opposite-Spin Energy      =      -1.0069502649934989 [Eh]
	 Correlation Energy        =      -1.3323982945606532 [Eh]
	 Total Energy              =    -307.0025014070537281 [Eh]

	 ================> DF-SCS-MP2 Energies <==================
	-----------------------------------------------------------
	 SCS Same-Spin Scale       =       0.3333333333333333 [-]
	 SCS Opposite-Spin Scale   =       1.2000000000000000 [-]
	 SCS Same-Spin Energy      =      -0.1084826765223847 [Eh]
	 SCS Opposite-Spin Energy  =      -1.2083403179921988 [Eh]
	 SCS Correlation Energy    =      -1.3168229945145835 [Eh]
	 SCS Total Energy          =    -306.9869261070076618 [Eh]
	-----------------------------------------------------------

  Dipole Moment: [D]
     X:    -0.0803      Y:     1.2837      Z:    -0.0330     Total:     1.2867

*** Psi4 exiting successfully. Buy a developer a beer!
