                               Psi4 1.3.2 release

  ==> Input File <==

--------------------------------------------------------------------------
#psi4
#
memory 32 gb

molecule  {
0 1
  C        0.2607240     1.2023270    -0.0000750
  C       -1.1358940     1.2178730     0.0000410
  C       -1.8563260     0.0234010    -0.0000200
  C       -1.1685880    -1.1938670     0.0000370
  C        0.2242660    -1.2218040    -0.0000490
  C        0.9375920    -0.0198080     0.0000210
  O        2.3096553    -0.1122407     0.2999850
  H        0.8193600     2.1376290    -0.0000120
  H       -1.6578230     2.1717680    -0.0000430
  H       -2.9427200     0.0394300     0.0001070
  H       -1.7202150    -2.1309040    -0.0000080
  H        0.7759750    -2.1575980     0.0000070
  H        2.6774850     0.7888930     0.0003320
units angstrom
no_reorient  #important for SAPT in psi4, default
symmetry c1  #important for SAPT in psi4, default
}

set PROPERTIES_ORIGIN ["COM"]
properties('MP2/aug-cc-pvtz', properties = ['dipole'])
--------------------------------------------------------------------------

    Molecular point group: c1
  Charge       = 0
  Multiplicity = 1
  Basis Set: AUG-CC-PVTZ
    Blend: AUG-CC-PVTZ
  Basis Set: (AUG-CC-PVTZ AUX)
    Blend: AUG-CC-PVTZ-JKFIT

    Orbital Energies [Eh]
    ---------------------

    Doubly Occupied:

       1A    -20.595506     2A    -11.305589     3A    -11.246446
       4A    -11.244162     5A    -11.240432     6A    -11.233637
       7A    -11.233425     8A     -1.380901     9A     -1.148292
      10A     -1.021796    11A     -1.004637    12A     -0.843046
      13A     -0.819134    14A     -0.716833    15A     -0.682846
      16A     -0.649764    17A     -0.610394    18A     -0.594001
      19A     -0.588579    20A     -0.558258    21A     -0.517166
      22A     -0.497720    23A     -0.483719    24A     -0.344577
      25A     -0.321072

  @DF-RHF Final Energy:  -305.65876116530751

   => Energetics <=

    Nuclear Repulsion Energy =            269.7579204650790530
    One-Electron Energy =                -949.0694948648371110
    Two-Electron Energy =                 373.6528132344504911
    Total Energy =                       -305.6587611653075101
  Basis Set: (AUG-CC-PVTZ AUX)
    Blend: AUG-CC-PVTZ-RI
    Molecular point group: c1

    Geometry (in Angstrom), charge = 0, multiplicity = 1:

       Center              X                  Y                   Z               Mass
    ------------   -----------------  -----------------  -----------------  -----------------
         C            0.239243522690     1.211279962139    -0.051095686039    12.000000000000
         C           -1.157374477310     1.226825962139    -0.050979686039    12.000000000000
         C           -1.877806477310     0.032353962139    -0.051040686039    12.000000000000
         C           -1.190068477310    -1.184914037861    -0.050983686039    12.000000000000
         C            0.202785522690    -1.212851037861    -0.051069686039    12.000000000000
         C            0.916111522690    -0.010855037861    -0.050999686039    12.000000000000
         O            2.288174822690    -0.103287737861     0.248964313961    15.994914619570
         H            0.797879522690     2.146581962139    -0.051032686039     1.007825032230
         H           -1.679303477310     2.180720962139    -0.051063686039     1.007825032230
         H           -2.964200477310     0.048382962139    -0.050913686039     1.007825032230
         H           -1.741695477310    -2.121951037861    -0.051028686039     1.007825032230
         H            0.754494522690    -2.148645037861    -0.051013686039     1.007825032230
         H            2.656004522690     0.797845962139    -0.050688686039     1.007825032230

  Basis Set: AUG-CC-PVTZ
    Blend: AUG-CC-PVTZ
  Basis Set: (AUG-CC-PVTZ AUX)
    Blend: AUG-CC-PVTZ-JKFIT
	 Reference Energy          =    -305.6587611653075101 [Eh]
	 Singles Energy            =      -0.0000000000000000 [Eh]
	 Same-Spin Energy          =      -0.3264181792070900 [Eh]
	 Opposite-Spin Energy      =      -1.0098349491451131 [Eh]
	 Correlation Energy        =      -1.3362531283522032 [Eh]
	 Total Energy              =    -306.9950142936597217 [Eh]

	 ================> DF-SCS-MP2 Energies <==================
	-----------------------------------------------------------
	 SCS Same-Spin Scale       =       0.3333333333333333 [-]
	 SCS Opposite-Spin Scale   =       1.2000000000000000 [-]
	 SCS Same-Spin Energy      =      -0.1088060597356967 [Eh]
	 SCS Opposite-Spin Energy  =      -1.2118019389741357 [Eh]
	 SCS Correlation Energy    =      -1.3206079987098325 [Eh]
	 SCS Total Energy          =    -306.9793691640173279 [Eh]
	-----------------------------------------------------------

  Dipole Moment: [D]
     X:    -0.3021      Y:     1.2389      Z:    -0.4816     Total:     1.3631

*** Psi4 exiting successfully. Buy a developer a beer!
