                               Psi4 1.3.2 release

  ==> Input File <==

--------------------------------------------------------------------------
#psi4
#
memory 32 gb

molecule  {
0 1
  C        0.2607240     1.2023270    -0.0000750
  C       -1.1358940     1.2178730     0.0000410
  C       -1.8563260     0.0234010    -0.0000200
  C       -1.1685880    -1.1938670     0.0000370
  C        0.2242660    -1.2218040    -0.0000490
  C        0.9375920    -0.0198080     0.0000210
  O        2.3096620    -0.1122440    -0.0000150
  H        0.8193600     2.1376290    -0.0000120
  H       -1.6578283     2.1717658    -0.2500430
  H       -2.9427200     0.0394300     0.0001070
  H       -1.7202150    -2.1309040    -0.0000080
  H        0.7759750    -2.1575980     0.0000070
  H        2.6774850     0.7888930     0.0003320
units angstrom
no_reorient  #important for SAPT in psi4, default
symmetry c1  #important for SAPT in psi4, default
}

set PROPERTIES_ORIGIN ["COM"]
properties('MP2/aug-cc-pvtz', properties = ['dipole'])
--------------------------------------------------------------------------

    Molecular point group: c1
  Charge       = 0
  Multiplicity = 1
  Basis Set: AUG-CC-PVTZ
    Blend: AUG-CC-PVTZ
  Basis Set: (AUG-CC-PVTZ AUX)
    Blend: AUG-CC-PVTZ-JKFIT

    Orbital Energies [Eh]
    ---------------------

    Doubly Occupied:

       1A    -20.593707     2A    -11.306338     3A    -11.247975
       4A    -11.243652     5A    -11.238053     6A    -11.231717
       7A    -11.230808     8A     -1.402293     9A     -1.147462
      10A     -1.020260    11A     -1.005147    12A     -0.846011
      13A     -0.821288    14A     -0.730227    15A     -0.684793
      16A     -0.651498    17A     -0.608146    18A     -0.591864
      19A     -0.588276    20A     -0.570075    21A     -0.517560
      22A     -0.497722    23A     -0.480000    24A     -0.343592
      25A     -0.317283

  @DF-RHF Final Energy:  -305.66599028280257

   => Energetics <=

    Nuclear Repulsion Energy =            270.5220090691762493
    One-Electron Energy =                -950.5445026405246836
    Two-Electron Energy =                 374.3565032885458095
    Total Energy =                       -305.6659902828025679
  Basis Set: (AUG-CC-PVTZ AUX)
    Blend: AUG-CC-PVTZ-RI
    Molecular point group: c1

    Geometry (in Angstrom), charge = 0, multiplicity = 1:

       Center              X                  Y                   Z               Mass
    ------------   -----------------  -----------------  -----------------  -----------------
         C            0.239242439934     1.211280546989     0.002608381335    12.000000000000
         C           -1.157375560066     1.226826546989     0.002724381335    12.000000000000
         C           -1.877807560066     0.032354546989     0.002663381335    12.000000000000
         C           -1.190069560066    -1.184913453011     0.002720381335    12.000000000000
         C            0.202784439934    -1.212850453011     0.002634381335    12.000000000000
         C            0.916110439934    -0.010854453011     0.002704381335    12.000000000000
         O            2.288180439934    -0.103290453011     0.002668381335    15.994914619570
         H            0.797878439934     2.146582546989     0.002671381335     1.007825032230
         H           -1.679309860066     2.180719346989    -0.247359618665     1.007825032230
         H           -2.964201560066     0.048383546989     0.002790381335     1.007825032230
         H           -1.741696560066    -2.121950453011     0.002675381335     1.007825032230
         H            0.754493439934    -2.148644453011     0.002690381335     1.007825032230
         H            2.656003439934     0.797846546989     0.003015381335     1.007825032230

  Basis Set: AUG-CC-PVTZ
    Blend: AUG-CC-PVTZ
  Basis Set: (AUG-CC-PVTZ AUX)
    Blend: AUG-CC-PVTZ-JKFIT
	 Reference Energy          =    -305.6659902828025679 [Eh]
	 Singles Energy            =      -0.0000000000000000 [Eh]
	 Same-Spin Energy          =      -0.3256945976172526 [Eh]
	 Opposite-Spin Energy      =      -1.0075815037929072 [Eh]
	 Correlation Energy        =      -1.3332761014101600 [Eh]
	 Total Energy              =    -306.9992663842127172 [Eh]

	 ================> DF-SCS-MP2 Energies <==================
	-----------------------------------------------------------
	 SCS Same-Spin Scale       =       0.3333333333333333 [-]
	 SCS Opposite-Spin Scale   =       1.2000000000000000 [-]
	 SCS Same-Spin Energy      =      -0.1085648658724175 [Eh]
	 SCS Opposite-Spin Energy  =      -1.2090978045514886 [Eh]
	 SCS Correlation Energy    =      -1.3176626704239061 [Eh]
	 SCS Total Energy          =    -306.9836529532264535 [Eh]
	-----------------------------------------------------------

  Dipole Moment: [D]
     X:    -0.0574      Y:     1.2348      Z:    -0.1545     Total:     1.2457

*** Psi4 exiting successfully. Buy a developer a beer!
