                               Psi4 1.3.2 release

  ==> Input File <==

--------------------------------------------------------------------------
#psi4
#
memory 32 gb

molecule  {
0 1
  C        0.2607240     1.2023270    -0.0000750
  C       -1.1358940     1.2178730     0.0000410
  C       -1.8563260     0.0234010    -0.0000200
  C       -1.1685880    -1.1938670     0.0000370
  C        0.2242660    -1.2218040    -0.0000490
  C        0.9375920    -0.0198080     0.0000210
  O        2.3096620    -0.1122440    -0.0000150
  H        0.8193600     2.1376290    -0.0000120
  H       -1.6578241     2.1717676    -0.0500430
  H       -2.9427200     0.0394300     0.0001070
  H       -1.7202150    -2.1309040    -0.0000080
  H        0.7759750    -2.1575980     0.0000070
  H        2.6774850     0.7888930     0.0003320
units angstrom
no_reorient  #important for SAPT in psi4, default
symmetry c1  #important for SAPT in psi4, default
}

set PROPERTIES_ORIGIN ["COM"]
properties('MP2/aug-cc-pvtz', properties = ['dipole'])
--------------------------------------------------------------------------

    Molecular point group: c1
  Charge       = 0
  Multiplicity = 1
  Basis Set: AUG-CC-PVTZ
    Blend: AUG-CC-PVTZ
  Basis Set: (AUG-CC-PVTZ AUX)
    Blend: AUG-CC-PVTZ-JKFIT

    Orbital Energies [Eh]
    ---------------------

    Doubly Occupied:

       1A    -20.593579     2A    -11.306165     3A    -11.245603
       4A    -11.243430     5A    -11.237611     6A    -11.231117
       7A    -11.230256     8A     -1.402138     9A     -1.147303
      10A     -1.020632    11A     -1.005034    12A     -0.846494
      13A     -0.822347    14A     -0.730945    15A     -0.684880
      16A     -0.652459    17A     -0.609707    18A     -0.592124
      19A     -0.589753    20A     -0.569877    21A     -0.517309
      22A     -0.495727    23A     -0.483956    24A     -0.343792
      25A     -0.317144

  @DF-RHF Final Energy:  -305.67009432576816

   => Energetics <=

    Nuclear Repulsion Energy =            270.6224236038627851
    One-Electron Energy =                -950.7462745746825021
    Two-Electron Energy =                 374.4537566450515556
    Total Energy =                       -305.6700943257681615
  Basis Set: (AUG-CC-PVTZ AUX)
    Blend: AUG-CC-PVTZ-RI
    Molecular point group: c1

    Geometry (in Angstrom), charge = 0, multiplicity = 1:

       Center              X                  Y                   Z               Mass
    ------------   -----------------  -----------------  -----------------  -----------------
         C            0.239242394923     1.211280527699     0.000465027343    12.000000000000
         C           -1.157375605077     1.226826527699     0.000581027343    12.000000000000
         C           -1.877807605077     0.032354527699     0.000520027343    12.000000000000
         C           -1.190069605077    -1.184913472301     0.000577027343    12.000000000000
         C            0.202784394923    -1.212850472301     0.000491027343    12.000000000000
         C            0.916110394923    -0.010854472301     0.000561027343    12.000000000000
         O            2.288180394923    -0.103290472301     0.000525027343    15.994914619570
         H            0.797878394923     2.146582527699     0.000528027343     1.007825032230
         H           -1.679305705077     2.180721127699    -0.049502972657     1.007825032230
         H           -2.964201605077     0.048383527699     0.000647027343     1.007825032230
         H           -1.741696605077    -2.121950472301     0.000532027343     1.007825032230
         H            0.754493394923    -2.148644472301     0.000547027343     1.007825032230
         H            2.656003394923     0.797846527699     0.000872027343     1.007825032230

  Basis Set: AUG-CC-PVTZ
    Blend: AUG-CC-PVTZ
  Basis Set: (AUG-CC-PVTZ AUX)
    Blend: AUG-CC-PVTZ-JKFIT
	 Reference Energy          =    -305.6700943257681615 [Eh]
	 Singles Energy            =      -0.0000000000000000 [Eh]
	 Same-Spin Energy          =      -0.3254507076207701 [Eh]
	 Opposite-Spin Energy      =      -1.0069536911847610 [Eh]
	 Correlation Energy        =      -1.3324043988055312 [Eh]
	 Total Energy              =    -307.0024987245736838 [Eh]

	 ================> DF-SCS-MP2 Energies <==================
	-----------------------------------------------------------
	 SCS Same-Spin Scale       =       0.3333333333333333 [-]
	 SCS Opposite-Spin Scale   =       1.2000000000000000 [-]
	 SCS Same-Spin Energy      =      -0.1084835692069234 [Eh]
	 SCS Opposite-Spin Energy  =      -1.2083444294217132 [Eh]
	 SCS Correlation Energy    =      -1.3168279986286366 [Eh]
	 SCS Total Energy          =    -306.9869223243968008 [Eh]
	-----------------------------------------------------------

  Dipole Moment: [D]
     X:    -0.0817      Y:     1.2818      Z:    -0.0310     Total:     1.2847

*** Psi4 exiting successfully. Buy a developer a beer!
