                               Psi4 1.3.2 release

  ==> Input File <==

--------------------------------------------------------------------------
#psi4
#
memory 32 gb

molecule  {
0 1
  C        0.2607240     1.2023270    -0.0000750
  C       -1.1358940     1.2178730     0.0000410
  C       -1.8563260     0.0234010    -0.0000200
  C       -1.1685880    -1.1938670     0.0000370
  C        0.2242660    -1.2218040    -0.0000490
  C        0.9375920    -0.0198080     0.0000210
  O        2.3096565    -0.1122412     0.2499850
  H        0.8193600     2.1376290    -0.0000120
  H       -1.6578230     2.1717680    -0.0000430
  H       -2.9427200     0.0394300     0.0001070
  H       -1.7202150    -2.1309040    -0.0000080
  H        0.7759750    -2.1575980     0.0000070
  H        2.6774850     0.7888930     0.0003320
units angstrom
no_reorient  #important for SAPT in psi4, default
symmetry c1  #important for SAPT in psi4, default
}

set PROPERTIES_ORIGIN ["COM"]
properties('MP2/aug-cc-pvtz', properties = ['dipole'])
--------------------------------------------------------------------------

    Molecular point group: c1
  Charge       = 0
  Multiplicity = 1
  Basis Set: AUG-CC-PVTZ
    Blend: AUG-CC-PVTZ
  Basis Set: (AUG-CC-PVTZ AUX)
    Blend: AUG-CC-PVTZ-JKFIT

    Orbital Energies [Eh]
    ---------------------

    Doubly Occupied:

       1A    -20.594884     2A    -11.305676     3A    -11.246162
       4A    -11.243932     5A    -11.239600     6A    -11.232876
       7A    -11.232504     8A     -1.387139     9A     -1.147982
      10A     -1.021443    11A     -1.004669    12A     -0.843794
      13A     -0.819965    14A     -0.720717    15A     -0.683885
      16A     -0.650538    17A     -0.610425    18A     -0.593687
      19A     -0.588912    20A     -0.561345    21A     -0.517254
      22A     -0.497168    23A     -0.483809    24A     -0.344338
      25A     -0.319952

  @DF-RHF Final Energy:  -305.66270004515093

   => Energetics <=

    Nuclear Repulsion Energy =            270.0171273927566062
    One-Electron Energy =                -949.5743424994661837
    Two-Electron Energy =                 373.8945150615586499
    Total Energy =                       -305.6627000451509275
  Basis Set: (AUG-CC-PVTZ AUX)
    Blend: AUG-CC-PVTZ-RI
    Molecular point group: c1

    Geometry (in Angstrom), charge = 0, multiplicity = 1:

       Center              X                  Y                   Z               Mass
    ------------   -----------------  -----------------  -----------------  -----------------
         C            0.239243318591     1.211280047180    -0.042591540225    12.000000000000
         C           -1.157374681409     1.226826047180    -0.042475540225    12.000000000000
         C           -1.877806681409     0.032354047180    -0.042536540225    12.000000000000
         C           -1.190068681409    -1.184913952820    -0.042479540225    12.000000000000
         C            0.202785318591    -1.212850952820    -0.042565540225    12.000000000000
         C            0.916111318591    -0.010854952820    -0.042495540225    12.000000000000
         O            2.288175818591    -0.103288152820     0.207468459775    15.994914619570
         H            0.797879318591     2.146582047180    -0.042528540225     1.007825032230
         H           -1.679303681409     2.180721047180    -0.042559540225     1.007825032230
         H           -2.964200681409     0.048383047180    -0.042409540225     1.007825032230
         H           -1.741695681409    -2.121950952820    -0.042524540225     1.007825032230
         H            0.754494318591    -2.148644952820    -0.042509540225     1.007825032230
         H            2.656004318591     0.797846047180    -0.042184540225     1.007825032230

  Basis Set: AUG-CC-PVTZ
    Blend: AUG-CC-PVTZ
  Basis Set: (AUG-CC-PVTZ AUX)
    Blend: AUG-CC-PVTZ-JKFIT
	 Reference Energy          =    -305.6627000451509275 [Eh]
	 Singles Energy            =      -0.0000000000000000 [Eh]
	 Same-Spin Energy          =      -0.3261174183090632 [Eh]
	 Opposite-Spin Energy      =      -1.0089206531499029 [Eh]
	 Correlation Energy        =      -1.3350380714589660 [Eh]
	 Total Energy              =    -306.9977381166098667 [Eh]

	 ================> DF-SCS-MP2 Energies <==================
	-----------------------------------------------------------
	 SCS Same-Spin Scale       =       0.3333333333333333 [-]
	 SCS Opposite-Spin Scale   =       1.2000000000000000 [-]
	 SCS Same-Spin Energy      =      -0.1087058061030211 [Eh]
	 SCS Opposite-Spin Energy  =      -1.2107047837798834 [Eh]
	 SCS Correlation Energy    =      -1.3194105898829045 [Eh]
	 SCS Total Energy          =    -306.9821106350338482 [Eh]
	-----------------------------------------------------------

  Dipole Moment: [D]
     X:    -0.2387      Y:     1.2524      Z:    -0.4023     Total:     1.3369

*** Psi4 exiting successfully. Buy a developer a beer!
