                               Psi4 1.3.2 release

  ==> Input File <==

--------------------------------------------------------------------------
#psi4
#
memory 32 gb

molecule  {
0 1
  C        0.2607240     1.2023270    -0.0000750
  C       -1.1358940     1.2178730     0.0000410
  C       -1.8563260     0.0234010    -0.0000200
  C       -1.1685880    -1.1938670     0.0000370
  C        0.2242660    -1.2218040    -0.0000490
  C        0.9375920    -0.0198080     0.0000210
  O        2.3096620    -0.1122440    -0.0000150
  H        0.8193600     2.1376290    -0.0000120
  H       -1.6578230     2.1717680    -0.0000430
  H       -2.9427200     0.0394300     0.0001070
  H       -1.7202150    -2.1309040    -0.0000080
  H        0.7759750    -2.1575980     0.0000070
  H        2.6774850     0.7888930     0.0003320
units angstrom
no_reorient  #important for SAPT in psi4, default
symmetry c1  #important for SAPT in psi4, default
}

set PROPERTIES_ORIGIN ["COM"]
properties('MP2/aug-cc-pvtz', properties = ['dipole'])
--------------------------------------------------------------------------

    Molecular point group: c1
  Charge       = 0
  Multiplicity = 1
  Basis Set: AUG-CC-PVTZ
    Blend: AUG-CC-PVTZ
  Basis Set: (AUG-CC-PVTZ AUX)
    Blend: AUG-CC-PVTZ-JKFIT

    Orbital Energies [Eh]
    ---------------------

    Doubly Occupied:

       1A    -20.593575     2A    -11.306159     3A    -11.245504
       4A    -11.243422     5A    -11.237594     6A    -11.231093
       7A    -11.230234     8A     -1.402132     9A     -1.147299
      10A     -1.020651    11A     -1.005031    12A     -0.846519
      13A     -0.822395    14A     -0.730980    15A     -0.684887
      16A     -0.652505    17A     -0.609782    18A     -0.592145
      19A     -0.589798    20A     -0.569870    21A     -0.517300
      22A     -0.495612    23A     -0.484153    24A     -0.343802
      25A     -0.317140

  @DF-RHF Final Energy:  -305.67025142868511

   => Energetics <=

    Nuclear Repulsion Energy =            270.6267447994713393
    One-Electron Energy =                -950.7548316939515871
    Two-Electron Energy =                 374.4578354657951422
    Total Energy =                       -305.6702514286851056
  Basis Set: (AUG-CC-PVTZ AUX)
    Blend: AUG-CC-PVTZ-RI
    Molecular point group: c1

    Geometry (in Angstrom), charge = 0, multiplicity = 1:

       Center              X                  Y                   Z               Mass
    ------------   -----------------  -----------------  -----------------  -----------------
         C            0.239242383135     1.211280523412    -0.000070811156    12.000000000000
         C           -1.157375616865     1.226826523412     0.000045188844    12.000000000000
         C           -1.877807616865     0.032354523412    -0.000015811156    12.000000000000
         C           -1.190069616865    -1.184913476588     0.000041188844    12.000000000000
         C            0.202784383135    -1.212850476588    -0.000044811156    12.000000000000
         C            0.916110383135    -0.010854476588     0.000025188844    12.000000000000
         O            2.288180383135    -0.103290476588    -0.000010811156    15.994914619570
         H            0.797878383135     2.146582523412    -0.000007811156     1.007825032230
         H           -1.679304616865     2.180721523412    -0.000038811156     1.007825032230
         H           -2.964201616865     0.048383523412     0.000111188844     1.007825032230
         H           -1.741696616865    -2.121950476588    -0.000003811156     1.007825032230
         H            0.754493383135    -2.148644476588     0.000011188844     1.007825032230
         H            2.656003383135     0.797846523412     0.000336188844     1.007825032230

  Basis Set: AUG-CC-PVTZ
    Blend: AUG-CC-PVTZ
  Basis Set: (AUG-CC-PVTZ AUX)
    Blend: AUG-CC-PVTZ-JKFIT
	 Reference Energy          =    -305.6702514286851056 [Eh]
	 Singles Energy            =      -0.0000000000000000 [Eh]
	 Same-Spin Energy          =      -0.3254394548119162 [Eh]
	 Opposite-Spin Energy      =      -1.0069266314995526 [Eh]
	 Correlation Energy        =      -1.3323660863114688 [Eh]
	 Total Energy              =    -307.0026175149965866 [Eh]

	 ================> DF-SCS-MP2 Energies <==================
	-----------------------------------------------------------
	 SCS Same-Spin Scale       =       0.3333333333333333 [-]
	 SCS Opposite-Spin Scale   =       1.2000000000000000 [-]
	 SCS Same-Spin Energy      =      -0.1084798182706387 [Eh]
	 SCS Opposite-Spin Energy  =      -1.2083119577994632 [Eh]
	 SCS Correlation Energy    =      -1.3167917760701020 [Eh]
	 SCS Total Energy          =    -306.9870432047551958 [Eh]
	-----------------------------------------------------------

  Dipole Moment: [D]
     X:    -0.0827      Y:     1.2838      Z:     0.0006     Total:     1.2864

*** Psi4 exiting successfully. Buy a developer a beer!
