                               Psi4 1.3.2 release

  ==> Input File <==

--------------------------------------------------------------------------
#psi4
#
memory 32 gb

molecule  {
0 1
  C        0.2607240     1.2023270    -0.0000750
  C       -1.1358940     1.2178730     0.0000410
  C       -1.8563260     0.0234010    -0.0000200
  C       -1.1685880    -1.1938670     0.0000370
  C        0.2242660    -1.2218040    -0.0000490
  C        0.9375920    -0.0198080     0.0000210
  O        2.3096620    -0.1122440    -0.0000150
  H        0.8193600     2.1376290    -0.0000120
  H       -1.6578230     2.1717680    -0.0000430
  H       -2.9427238     0.0394302    -0.0998930
  H       -1.7202150    -2.1309040    -0.0000080
  H        0.7759750    -2.1575980     0.0000070
  H        2.6774850     0.7888930     0.0003320
units angstrom
no_reorient  #important for SAPT in psi4, default
symmetry c1  #important for SAPT in psi4, default
}

set PROPERTIES_ORIGIN ["COM"]
properties('MP2/aug-cc-pvtz', properties = ['dipole'])
--------------------------------------------------------------------------

    Molecular point group: c1
  Charge       = 0
  Multiplicity = 1
  Basis Set: AUG-CC-PVTZ
    Blend: AUG-CC-PVTZ
  Basis Set: (AUG-CC-PVTZ AUX)
    Blend: AUG-CC-PVTZ-JKFIT

    Orbital Energies [Eh]
    ---------------------

    Doubly Occupied:

       1A    -20.593663     2A    -11.306275     3A    -11.245588
       4A    -11.243499     5A    -11.237633     6A    -11.231128
       7A    -11.230614     8A     -1.402216     9A     -1.147329
      10A     -1.020703    11A     -1.004915    12A     -0.846539
      13A     -0.822212    14A     -0.731032    15A     -0.684349
      16A     -0.652380    17A     -0.609722    18A     -0.592189
      19A     -0.589871    20A     -0.569845    21A     -0.517178
      22A     -0.495673    23A     -0.483675    24A     -0.343849
      25A     -0.317115

  @DF-RHF Final Energy:  -305.66964875895172

   => Energetics <=

    Nuclear Repulsion Energy =            270.6096757602824141
    One-Electron Energy =                -950.7202650456622450
    Two-Electron Energy =                 374.4409405264280508
    Total Energy =                       -305.6696487589517233
  Basis Set: (AUG-CC-PVTZ AUX)
    Blend: AUG-CC-PVTZ-RI
    Molecular point group: c1

    Geometry (in Angstrom), charge = 0, multiplicity = 1:

       Center              X                  Y                   Z               Mass
    ------------   -----------------  -----------------  -----------------  -----------------
         C            0.239242423858     1.211280521269     0.001000865841    12.000000000000
         C           -1.157375576142     1.226826521269     0.001116865841    12.000000000000
         C           -1.877807576142     0.032354521269     0.001055865841    12.000000000000
         C           -1.190069576142    -1.184913478731     0.001112865841    12.000000000000
         C            0.202784423858    -1.212850478731     0.001026865841    12.000000000000
         C            0.916110423858    -0.010854478731     0.001096865841    12.000000000000
         O            2.288180423858    -0.103290478731     0.001060865841    15.994914619570
         H            0.797878423858     2.146582521269     0.001063865841     1.007825032230
         H           -1.679304576142     2.180721521269     0.001032865841     1.007825032230
         H           -2.964205376142     0.048383721269    -0.098817134159     1.007825032230
         H           -1.741696576142    -2.121950478731     0.001067865841     1.007825032230
         H            0.754493423858    -2.148644478731     0.001082865841     1.007825032230
         H            2.656003423858     0.797846521269     0.001407865841     1.007825032230

  Basis Set: AUG-CC-PVTZ
    Blend: AUG-CC-PVTZ
  Basis Set: (AUG-CC-PVTZ AUX)
    Blend: AUG-CC-PVTZ-JKFIT
	 Reference Energy          =    -305.6696487589517233 [Eh]
	 Singles Energy            =      -0.0000000000000000 [Eh]
	 Same-Spin Energy          =      -0.3254729039072252 [Eh]
	 Opposite-Spin Energy      =      -1.0070195247753928 [Eh]
	 Correlation Energy        =      -1.3324924286826181 [Eh]
	 Total Energy              =    -307.0021411876343223 [Eh]

	 ================> DF-SCS-MP2 Energies <==================
	-----------------------------------------------------------
	 SCS Same-Spin Scale       =       0.3333333333333333 [-]
	 SCS Opposite-Spin Scale   =       1.2000000000000000 [-]
	 SCS Same-Spin Energy      =      -0.1084909679690751 [Eh]
	 SCS Opposite-Spin Energy  =      -1.2084234297304712 [Eh]
	 SCS Correlation Energy    =      -1.3169143976995463 [Eh]
	 SCS Total Energy          =    -306.9865631566512434 [Eh]
	-----------------------------------------------------------

  Dipole Moment: [D]
     X:    -0.0728      Y:     1.2837      Z:    -0.0664     Total:     1.2874

*** Psi4 exiting successfully. Buy a developer a beer!
