                               Psi4 1.3.2 release

  ==> Input File <==

--------------------------------------------------------------------------
#psi4
#
memory 32 gb

molecule  {
0 1
  C        0.2607240     1.2023270    -0.0000750
  C       -1.1358940     1.2178730     0.0000410
  C       -1.8563260     0.0234010    -0.0000200
  C       -1.1685880    -1.1938670     0.0000370
  C        0.2242660    -1.2218040    -0.0000490
  C        0.9375920    -0.0198080     0.0000210
  O        2.3096620    -0.1122440    -0.0000150
  H        0.8193610     2.1376298     0.0499880
  H       -1.6578230     2.1717680    -0.0000430
  H       -2.9427200     0.0394300     0.0001070
  H       -1.7202150    -2.1309040    -0.0000080
  H        0.7759750    -2.1575980     0.0000070
  H        2.6774850     0.7888930     0.0003320
units angstrom
no_reorient  #important for SAPT in psi4, default
symmetry c1  #important for SAPT in psi4, default
}

set PROPERTIES_ORIGIN ["COM"]
properties('MP2/aug-cc-pvtz', properties = ['dipole'])
--------------------------------------------------------------------------

    Molecular point group: c1
  Charge       = 0
  Multiplicity = 1
  Basis Set: AUG-CC-PVTZ
    Blend: AUG-CC-PVTZ
  Basis Set: (AUG-CC-PVTZ AUX)
    Blend: AUG-CC-PVTZ-JKFIT

    Orbital Energies [Eh]
    ---------------------

    Doubly Occupied:

       1A    -20.593579     2A    -11.306185     3A    -11.245527
       4A    -11.243452     5A    -11.237688     6A    -11.231102
       7A    -11.230245     8A     -1.402136     9A     -1.147309
      10A     -1.020634    11A     -1.005032    12A     -0.846469
      13A     -0.822405    14A     -0.730936    15A     -0.684843
      16A     -0.652452    17A     -0.609759    18A     -0.592249
      19A     -0.589613    20A     -0.569868    21A     -0.517288
      22A     -0.495648    23A     -0.484075    24A     -0.343798
      25A     -0.317149

  @DF-RHF Final Energy:  -305.67011161873711

   => Energetics <=

    Nuclear Repulsion Energy =            270.6222250845079884
    One-Electron Energy =                -950.7457909780329146
    Two-Electron Energy =                 374.4534542747878731
    Total Energy =                       -305.6701116187371099
  Basis Set: (AUG-CC-PVTZ AUX)
    Blend: AUG-CC-PVTZ-RI
    Molecular point group: c1

    Geometry (in Angstrom), charge = 0, multiplicity = 1:

       Center              X                  Y                   Z               Mass
    ------------   -----------------  -----------------  -----------------  -----------------
         C            0.239242372418     1.211280514839    -0.000606649654    12.000000000000
         C           -1.157375627582     1.226826514839    -0.000490649654    12.000000000000
         C           -1.877807627582     0.032354514839    -0.000551649654    12.000000000000
         C           -1.190069627582    -1.184913485161    -0.000494649654    12.000000000000
         C            0.202784372418    -1.212850485161    -0.000580649654    12.000000000000
         C            0.916110372418    -0.010854485161    -0.000510649654    12.000000000000
         O            2.288180372418    -0.103290485161    -0.000546649654    15.994914619570
         H            0.797879372418     2.146583314839     0.049456350346     1.007825032230
         H           -1.679304627582     2.180721514839    -0.000574649654     1.007825032230
         H           -2.964201627582     0.048383514839    -0.000424649654     1.007825032230
         H           -1.741696627582    -2.121950485161    -0.000539649654     1.007825032230
         H            0.754493372418    -2.148644485161    -0.000524649654     1.007825032230
         H            2.656003372418     0.797846514839    -0.000199649654     1.007825032230

  Basis Set: AUG-CC-PVTZ
    Blend: AUG-CC-PVTZ
  Basis Set: (AUG-CC-PVTZ AUX)
    Blend: AUG-CC-PVTZ-JKFIT
	 Reference Energy          =    -305.6701116187371099 [Eh]
	 Singles Energy            =      -0.0000000000000000 [Eh]
	 Same-Spin Energy          =      -0.3254481045257047 [Eh]
	 Opposite-Spin Energy      =      -1.0069433640223233 [Eh]
	 Correlation Energy        =      -1.3323914685480280 [Eh]
	 Total Energy              =    -307.0025030872851630 [Eh]

	 ================> DF-SCS-MP2 Energies <==================
	-----------------------------------------------------------
	 SCS Same-Spin Scale       =       0.3333333333333333 [-]
	 SCS Opposite-Spin Scale   =       1.2000000000000000 [-]
	 SCS Same-Spin Energy      =      -0.1084827015085682 [Eh]
	 SCS Opposite-Spin Energy  =      -1.2083320368267880 [Eh]
	 SCS Correlation Energy    =      -1.3168147383353563 [Eh]
	 SCS Total Energy          =    -306.9869263570724911 [Eh]
	-----------------------------------------------------------

  Dipole Moment: [D]
     X:    -0.0840      Y:     1.2818      Z:     0.0347     Total:     1.2850

*** Psi4 exiting successfully. Buy a developer a beer!
