                               Psi4 1.3.2 release

  ==> Input File <==

--------------------------------------------------------------------------
#psi4
#
memory 32 gb

molecule  {
0 1
  C        0.2607240     1.2023270    -0.0000750
  C       -1.1358940     1.2178730     0.0000410
  C       -1.8563260     0.0234010    -0.0000200
  C       -1.1685880    -1.1938670     0.0000370
  C        0.2242660    -1.2218040    -0.0000490
  C        0.9375920    -0.0198080     0.0000210
  O        2.3096576    -0.1122418     0.1999850
  H        0.8193600     2.1376290    -0.0000120
  H       -1.6578230     2.1717680    -0.0000430
  H       -2.9427200     0.0394300     0.0001070
  H       -1.7202150    -2.1309040    -0.0000080
  H        0.7759750    -2.1575980     0.0000070
  H        2.6774850     0.7888930     0.0003320
units angstrom
no_reorient  #important for SAPT in psi4, default
symmetry c1  #important for SAPT in psi4, default
}

set PROPERTIES_ORIGIN ["COM"]
properties('MP2/aug-cc-pvtz', properties = ['dipole'])
--------------------------------------------------------------------------

    Molecular point group: c1
  Charge       = 0
  Multiplicity = 1
  Basis Set: AUG-CC-PVTZ
    Blend: AUG-CC-PVTZ
  Basis Set: (AUG-CC-PVTZ AUX)
    Blend: AUG-CC-PVTZ-JKFIT

    Orbital Energies [Eh]
    ---------------------

    Doubly Occupied:

       1A    -20.594392     2A    -11.305801     3A    -11.245928
       4A    -11.243746     5A    -11.238897     6A    -11.232243
       7A    -11.231715     8A     -1.392404     9A     -1.147732
      10A     -1.021155    11A     -1.004749    12A     -0.844581
      13A     -0.820755    14A     -0.724236    15A     -0.684439
      16A     -0.651212    17A     -0.610311    18A     -0.593346
      19A     -0.589159    20A     -0.564132    21A     -0.517295
      22A     -0.496660    23A     -0.483906    24A     -0.344143
      25A     -0.318984

  @DF-RHF Final Energy:  -305.66566266259707

   => Energetics <=

    Nuclear Repulsion Energy =            270.2332569858587590
    One-Electron Energy =                -949.9939967539946792
    Two-Electron Energy =                 374.0950771055387918
    Total Energy =                       -305.6656626625970716
  Basis Set: (AUG-CC-PVTZ AUX)
    Blend: AUG-CC-PVTZ-RI
    Molecular point group: c1

    Geometry (in Angstrom), charge = 0, multiplicity = 1:

       Center              X                  Y                   Z               Mass
    ------------   -----------------  -----------------  -----------------  -----------------
         C            0.239243131500     1.211280149230    -0.034087394411    12.000000000000
         C           -1.157374868500     1.226826149230    -0.033971394411    12.000000000000
         C           -1.877806868500     0.032354149230    -0.034032394411    12.000000000000
         C           -1.190068868500    -1.184913850770    -0.033975394411    12.000000000000
         C            0.202785131500    -1.212850850770    -0.034061394411    12.000000000000
         C            0.916111131500    -0.010854850770    -0.033991394411    12.000000000000
         O            2.288176731500    -0.103288650770     0.165972605589    15.994914619570
         H            0.797879131500     2.146582149230    -0.034024394411     1.007825032230
         H           -1.679303868500     2.180721149230    -0.034055394411     1.007825032230
         H           -2.964200868500     0.048383149230    -0.033905394411     1.007825032230
         H           -1.741695868500    -2.121950850770    -0.034020394411     1.007825032230
         H            0.754494131500    -2.148644850770    -0.034005394411     1.007825032230
         H            2.656004131500     0.797846149230    -0.033680394411     1.007825032230

  Basis Set: AUG-CC-PVTZ
    Blend: AUG-CC-PVTZ
  Basis Set: (AUG-CC-PVTZ AUX)
    Blend: AUG-CC-PVTZ-JKFIT
	 Reference Energy          =    -305.6656626625970716 [Eh]
	 Singles Energy            =      -0.0000000000000000 [Eh]
	 Same-Spin Energy          =      -0.3258722755117405 [Eh]
	 Opposite-Spin Energy      =      -1.0081861547624047 [Eh]
	 Correlation Energy        =      -1.3340584302741452 [Eh]
	 Total Energy              =    -306.9997210928711979 [Eh]

	 ================> DF-SCS-MP2 Energies <==================
	-----------------------------------------------------------
	 SCS Same-Spin Scale       =       0.3333333333333333 [-]
	 SCS Opposite-Spin Scale   =       1.2000000000000000 [-]
	 SCS Same-Spin Energy      =      -0.1086240918372468 [Eh]
	 SCS Opposite-Spin Energy  =      -1.2098233857148857 [Eh]
	 SCS Correlation Energy    =      -1.3184474775521324 [Eh]
	 SCS Total Energy          =    -306.9841101401491983 [Eh]
	-----------------------------------------------------------

  Dipole Moment: [D]
     X:    -0.1845      Y:     1.2635      Z:    -0.3223     Total:     1.3170

*** Psi4 exiting successfully. Buy a developer a beer!
