                               Psi4 1.3.2 release

  ==> Input File <==

--------------------------------------------------------------------------
#psi4
#
memory 32 gb

molecule  {
0 1
  C        0.2607240     1.2023270    -0.0000750
  C       -1.1358940     1.2178730     0.0000410
  C       -1.8563260     0.0234010    -0.0000200
  C       -1.1685880    -1.1938670     0.0000370
  C        0.2242660    -1.2218040    -0.0000490
  C        0.9375920    -0.0198080     0.0000210
  O        2.3096620    -0.1122440    -0.0000150
  H        0.8193600     2.1376290    -0.0000120
  H       -1.6578251     2.1717671    -0.1000430
  H       -2.9427200     0.0394300     0.0001070
  H       -1.7202150    -2.1309040    -0.0000080
  H        0.7759750    -2.1575980     0.0000070
  H        2.6774850     0.7888930     0.0003320
units angstrom
no_reorient  #important for SAPT in psi4, default
symmetry c1  #important for SAPT in psi4, default
}

set PROPERTIES_ORIGIN ["COM"]
properties('MP2/aug-cc-pvtz', properties = ['dipole'])
--------------------------------------------------------------------------

    Molecular point group: c1
  Charge       = 0
  Multiplicity = 1
  Basis Set: AUG-CC-PVTZ
    Blend: AUG-CC-PVTZ
  Basis Set: (AUG-CC-PVTZ AUX)
    Blend: AUG-CC-PVTZ-JKFIT

    Orbital Energies [Eh]
    ---------------------

    Doubly Occupied:

       1A    -20.593592     2A    -11.306183     3A    -11.245901
       4A    -11.243454     5A    -11.237663     6A    -11.231190
       7A    -11.230322     8A     -1.402155     9A     -1.147319
      10A     -1.020577    11A     -1.005045    12A     -0.846421
      13A     -0.822206    14A     -0.730845    15A     -0.684861
      16A     -0.652326    17A     -0.609488    18A     -0.592069
      19A     -0.589607    20A     -0.569899    21A     -0.517339
      22A     -0.496050    23A     -0.483386    24A     -0.343763
      25A     -0.317159

  @DF-RHF Final Energy:  -305.66961640406157

   => Energetics <=

    Nuclear Repulsion Energy =            270.6095483789706577
    One-Electron Energy =                -950.7206849135727680
    Two-Electron Energy =                 374.4415201305405390
    Total Energy =                       -305.6696164040615713
  Basis Set: (AUG-CC-PVTZ AUX)
    Blend: AUG-CC-PVTZ-RI
    Molecular point group: c1

    Geometry (in Angstrom), charge = 0, multiplicity = 1:

       Center              X                  Y                   Z               Mass
    ------------   -----------------  -----------------  -----------------  -----------------
         C            0.239242405640     1.211280533057     0.001000865841    12.000000000000
         C           -1.157375594360     1.226826533057     0.001116865841    12.000000000000
         C           -1.877807594360     0.032354533057     0.001055865841    12.000000000000
         C           -1.190069594360    -1.184913466943     0.001112865841    12.000000000000
         C            0.202784405640    -1.212850466943     0.001026865841    12.000000000000
         C            0.916110405640    -0.010854466943     0.001096865841    12.000000000000
         O            2.288180405640    -0.103290466943     0.001060865841    15.994914619570
         H            0.797878405640     2.146582533057     0.001063865841     1.007825032230
         H           -1.679306694360     2.180720633057    -0.098967134159     1.007825032230
         H           -2.964201594360     0.048383533057     0.001182865841     1.007825032230
         H           -1.741696594360    -2.121950466943     0.001067865841     1.007825032230
         H            0.754493405640    -2.148644466943     0.001082865841     1.007825032230
         H            2.656003405640     0.797846533057     0.001407865841     1.007825032230

  Basis Set: AUG-CC-PVTZ
    Blend: AUG-CC-PVTZ
  Basis Set: (AUG-CC-PVTZ AUX)
    Blend: AUG-CC-PVTZ-JKFIT
	 Reference Energy          =    -305.6696164040615713 [Eh]
	 Singles Energy            =      -0.0000000000000000 [Eh]
	 Same-Spin Energy          =      -0.3254833902201565 [Eh]
	 Opposite-Spin Energy      =      -1.0070338548021747 [Eh]
	 Correlation Energy        =      -1.3325172450223310 [Eh]
	 Total Energy              =    -307.0021336490839303 [Eh]

	 ================> DF-SCS-MP2 Energies <==================
	-----------------------------------------------------------
	 SCS Same-Spin Scale       =       0.3333333333333333 [-]
	 SCS Opposite-Spin Scale   =       1.2000000000000000 [-]
	 SCS Same-Spin Energy      =      -0.1084944634067188 [Eh]
	 SCS Opposite-Spin Energy  =      -1.2084406257626095 [Eh]
	 SCS Correlation Energy    =      -1.3169350891693283 [Eh]
	 SCS Total Energy          =    -306.9865514932308770 [Eh]
	-----------------------------------------------------------

  Dipole Moment: [D]
     X:    -0.0786      Y:     1.2757      Z:    -0.0625     Total:     1.2797

*** Psi4 exiting successfully. Buy a developer a beer!
