                               Psi4 1.3.2 release

  ==> Input File <==

--------------------------------------------------------------------------
#psi4
#
memory 32 gb

molecule  {
0 1
  C        0.2607240     1.2023270    -0.0000750
  C       -1.1358940     1.2178730     0.0000410
  C       -1.8563260     0.0234010    -0.0000200
  C       -1.1685880    -1.1938670     0.0000370
  C        0.2242660    -1.2218040    -0.0000490
  C        0.9375920    -0.0198080     0.0000210
  O        2.3096620    -0.1122440    -0.0000150
  H        0.8193600     2.1376290    -0.0000120
  H       -1.6578272     2.1717662    -0.2000430
  H       -2.9427200     0.0394300     0.0001070
  H       -1.7202150    -2.1309040    -0.0000080
  H        0.7759750    -2.1575980     0.0000070
  H        2.6774850     0.7888930     0.0003320
units angstrom
no_reorient  #important for SAPT in psi4, default
symmetry c1  #important for SAPT in psi4, default
}

set PROPERTIES_ORIGIN ["COM"]
properties('MP2/aug-cc-pvtz', properties = ['dipole'])
--------------------------------------------------------------------------

    Molecular point group: c1
  Charge       = 0
  Multiplicity = 1
  Basis Set: AUG-CC-PVTZ
    Blend: AUG-CC-PVTZ
  Basis Set: (AUG-CC-PVTZ AUX)
    Blend: AUG-CC-PVTZ-JKFIT

    Orbital Energies [Eh]
    ---------------------

    Doubly Occupied:

       1A    -20.593655     2A    -11.306268     3A    -11.247092
       4A    -11.243564     5A    -11.237883     6A    -11.231490
       7A    -11.230597     8A     -1.402232     9A     -1.147396
      10A     -1.020385    11A     -1.005100    12A     -0.846168
      13A     -0.821669    14A     -0.730477    15A     -0.684812
      16A     -0.651833    17A     -0.608682    18A     -0.591921
      19A     -0.588907    20A     -0.569998    21A     -0.517465
      22A     -0.497104    23A     -0.481355    24A     -0.343661
      25A     -0.317228

  @DF-RHF Final Energy:  -305.66759986382249

   => Energetics <=

    Nuclear Repulsion Energy =            270.5589912042867127
    One-Electron Energy =                -950.6193000460961002
    Two-Electron Energy =                 374.3927089779868993
    Total Energy =                       -305.6675998638224883
  Basis Set: (AUG-CC-PVTZ AUX)
    Blend: AUG-CC-PVTZ-RI
    Molecular point group: c1

    Geometry (in Angstrom), charge = 0, multiplicity = 1:

       Center              X                  Y                   Z               Mass
    ------------   -----------------  -----------------  -----------------  -----------------
         C            0.239242428145     1.211280542702     0.002072542837    12.000000000000
         C           -1.157375571855     1.226826542702     0.002188542837    12.000000000000
         C           -1.877807571855     0.032354542702     0.002127542837    12.000000000000
         C           -1.190069571855    -1.184913457298     0.002184542837    12.000000000000
         C            0.202784428145    -1.212850457298     0.002098542837    12.000000000000
         C            0.916110428145    -0.010854457298     0.002168542837    12.000000000000
         O            2.288180428145    -0.103290457298     0.002132542837    15.994914619570
         H            0.797878428145     2.146582542702     0.002135542837     1.007825032230
         H           -1.679308771855     2.180719742702    -0.197895457163     1.007825032230
         H           -2.964201571855     0.048383542702     0.002254542837     1.007825032230
         H           -1.741696571855    -2.121950457298     0.002139542837     1.007825032230
         H            0.754493428145    -2.148644457298     0.002154542837     1.007825032230
         H            2.656003428145     0.797846542702     0.002479542837     1.007825032230

  Basis Set: AUG-CC-PVTZ
    Blend: AUG-CC-PVTZ
  Basis Set: (AUG-CC-PVTZ AUX)
    Blend: AUG-CC-PVTZ-JKFIT
	 Reference Energy          =    -305.6675998638224883 [Eh]
	 Singles Energy            =      -0.0000000000000000 [Eh]
	 Same-Spin Energy          =      -0.3256064854162548 [Eh]
	 Opposite-Spin Energy      =      -1.0073483346701213 [Eh]
	 Correlation Energy        =      -1.3329548200863761 [Eh]
	 Total Energy              =    -307.0005546839088879 [Eh]

	 ================> DF-SCS-MP2 Energies <==================
	-----------------------------------------------------------
	 SCS Same-Spin Scale       =       0.3333333333333333 [-]
	 SCS Opposite-Spin Scale   =       1.2000000000000000 [-]
	 SCS Same-Spin Energy      =      -0.1085354951387516 [Eh]
	 SCS Opposite-Spin Energy  =      -1.2088180016041454 [Eh]
	 SCS Correlation Energy    =      -1.3173534967428970 [Eh]
	 SCS Total Energy          =    -306.9849533605653846 [Eh]
	-----------------------------------------------------------

  Dipole Moment: [D]
     X:    -0.0664      Y:     1.2522      Z:    -0.1243     Total:     1.2601

*** Psi4 exiting successfully. Buy a developer a beer!
