                               Psi4 1.3.2 release

  ==> Input File <==

--------------------------------------------------------------------------
#psi4
#
memory 32 gb

molecule  {
0 1
  C        0.2607240     1.2023270    -0.0000750
  C       -1.1358940     1.2178730     0.0000410
  C       -1.8563260     0.0234010    -0.0000200
  C       -1.1685880    -1.1938670     0.0000370
  C        0.2242660    -1.2218040    -0.0000490
  C        0.9375920    -0.0198080     0.0000210
  O        2.3096620    -0.1122440    -0.0000150
  H        0.8193600     2.1376290    -0.0000120
  H       -1.6578262     2.1717667    -0.1500430
  H       -2.9427200     0.0394300     0.0001070
  H       -1.7202150    -2.1309040    -0.0000080
  H        0.7759750    -2.1575980     0.0000070
  H        2.6774850     0.7888930     0.0003320
units angstrom
no_reorient  #important for SAPT in psi4, default
symmetry c1  #important for SAPT in psi4, default
}

set PROPERTIES_ORIGIN ["COM"]
properties('MP2/aug-cc-pvtz', properties = ['dipole'])
--------------------------------------------------------------------------

    Molecular point group: c1
  Charge       = 0
  Multiplicity = 1
  Basis Set: AUG-CC-PVTZ
    Blend: AUG-CC-PVTZ
  Basis Set: (AUG-CC-PVTZ AUX)
    Blend: AUG-CC-PVTZ-JKFIT

    Orbital Energies [Eh]
    ---------------------

    Doubly Occupied:

       1A    -20.593617     2A    -11.306217     3A    -11.246398
       4A    -11.243499     5A    -11.237753     6A    -11.231315
       7A    -11.230435     8A     -1.402186     9A     -1.147349
      10A     -1.020493    11A     -1.005066    12A     -0.846309
      13A     -0.821978    14A     -0.730686    15A     -0.684836
      16A     -0.652113    17A     -0.609139    18A     -0.591994
      19A     -0.589337    20A     -0.569939    21A     -0.517391
      22A     -0.496529    23A     -0.482500    24A     -0.343719
      25A     -0.317186

  @DF-RHF Final Energy:  -305.66879564475522

   => Energetics <=

    Nuclear Repulsion Energy =            270.5883038327029340
    One-Electron Energy =                -950.6782284090197663
    Two-Electron Energy =                 374.4211289315616682
    Total Energy =                       -305.6687956447552210
  Basis Set: (AUG-CC-PVTZ AUX)
    Blend: AUG-CC-PVTZ-RI
    Molecular point group: c1

    Geometry (in Angstrom), charge = 0, multiplicity = 1:

       Center              X                  Y                   Z               Mass
    ------------   -----------------  -----------------  -----------------  -----------------
         C            0.239242417428     1.211280537344     0.001536704339    12.000000000000
         C           -1.157375582572     1.226826537344     0.001652704339    12.000000000000
         C           -1.877807582572     0.032354537344     0.001591704339    12.000000000000
         C           -1.190069582572    -1.184913462656     0.001648704339    12.000000000000
         C            0.202784417428    -1.212850462656     0.001562704339    12.000000000000
         C            0.916110417428    -0.010854462656     0.001632704339    12.000000000000
         O            2.288180417428    -0.103290462656     0.001596704339    15.994914619570
         H            0.797878417428     2.146582537344     0.001599704339     1.007825032230
         H           -1.679307782572     2.180720237344    -0.148431295661     1.007825032230
         H           -2.964201582572     0.048383537344     0.001718704339     1.007825032230
         H           -1.741696582572    -2.121950462656     0.001603704339     1.007825032230
         H            0.754493417428    -2.148644462656     0.001618704339     1.007825032230
         H            2.656003417428     0.797846537344     0.001943704339     1.007825032230

  Basis Set: AUG-CC-PVTZ
    Blend: AUG-CC-PVTZ
  Basis Set: (AUG-CC-PVTZ AUX)
    Blend: AUG-CC-PVTZ-JKFIT
	 Reference Energy          =    -305.6687956447552210 [Eh]
	 Singles Energy            =      -0.0000000000000000 [Eh]
	 Same-Spin Energy          =      -0.3255357586497054 [Eh]
	 Opposite-Spin Energy      =      -1.0071656863551750 [Eh]
	 Correlation Energy        =      -1.3327014450048804 [Eh]
	 Total Energy              =    -307.0014970897601074 [Eh]

	 ================> DF-SCS-MP2 Energies <==================
	-----------------------------------------------------------
	 SCS Same-Spin Scale       =       0.3333333333333333 [-]
	 SCS Opposite-Spin Scale   =       1.2000000000000000 [-]
	 SCS Same-Spin Energy      =      -0.1085119195499018 [Eh]
	 SCS Opposite-Spin Energy  =      -1.2085988236262100 [Eh]
	 SCS Correlation Energy    =      -1.3171107431761118 [Eh]
	 SCS Total Energy          =    -306.9859063879313226 [Eh]
	-----------------------------------------------------------

  Dipole Moment: [D]
     X:    -0.0735      Y:     1.2659      Z:    -0.0936     Total:     1.2714

*** Psi4 exiting successfully. Buy a developer a beer!
