                               Psi4 1.3.2 release

  ==> Input File <==

--------------------------------------------------------------------------
#psi4
#
memory 32 gb

molecule  {
0 1
  C        0.2607240     1.2023270    -0.0000750
  C       -1.1358940     1.2178730     0.0000410
  C       -1.8563260     0.0234010    -0.0000200
  C       -1.1685880    -1.1938670     0.0000370
  C        0.2242660    -1.2218040    -0.0000490
  C        0.9375920    -0.0198080     0.0000210
  O        2.3096620    -0.1122440    -0.0000150
  H        0.8193649     2.1376331     0.2499880
  H       -1.6578230     2.1717680    -0.0000430
  H       -2.9427200     0.0394300     0.0001070
  H       -1.7202150    -2.1309040    -0.0000080
  H        0.7759750    -2.1575980     0.0000070
  H        2.6774850     0.7888930     0.0003320
units angstrom
no_reorient  #important for SAPT in psi4, default
symmetry c1  #important for SAPT in psi4, default
}

set PROPERTIES_ORIGIN ["COM"]
properties('MP2/aug-cc-pvtz', properties = ['dipole'])
--------------------------------------------------------------------------

    Molecular point group: c1
  Charge       = 0
  Multiplicity = 1
  Basis Set: AUG-CC-PVTZ
    Blend: AUG-CC-PVTZ
  Basis Set: (AUG-CC-PVTZ AUX)
    Blend: AUG-CC-PVTZ-JKFIT

    Orbital Energies [Eh]
    ---------------------

    Doubly Occupied:

       1A    -20.593697     2A    -11.306813     3A    -11.246109
       4A    -11.244179     5A    -11.239927     6A    -11.231359
       7A    -11.230514     8A     -1.402226     9A     -1.147584
      10A     -1.020295    11A     -1.005097    12A     -0.845383
      13A     -0.822652    14A     -0.730039    15A     -0.683929
      16A     -0.651265    17A     -0.609296    18A     -0.593309
      19A     -0.586625    20A     -0.569797    21A     -0.517002
      22A     -0.496389    23A     -0.482306    24A     -0.343732
      25A     -0.317381

  @DF-RHF Final Energy:  -305.66642461919872

   => Energetics <=

    Nuclear Repulsion Energy =            270.5170380452654513
    One-Electron Energy =                -950.5331201704426576
    Two-Electron Energy =                 374.3496575059785414
    Total Energy =                       -305.6664246191987218
  Basis Set: (AUG-CC-PVTZ AUX)
    Blend: AUG-CC-PVTZ-RI
    Molecular point group: c1

    Geometry (in Angstrom), charge = 0, multiplicity = 1:

       Center              X                  Y                   Z               Mass
    ------------   -----------------  -----------------  -----------------  -----------------
         C            0.239242330623     1.211280479474    -0.002750003647    12.000000000000
         C           -1.157375669377     1.226826479474    -0.002634003647    12.000000000000
         C           -1.877807669377     0.032354479474    -0.002695003647    12.000000000000
         C           -1.190069669377    -1.184913520526    -0.002638003647    12.000000000000
         C            0.202784330623    -1.212850520526    -0.002724003647    12.000000000000
         C            0.916110330623    -0.010854520526    -0.002654003647    12.000000000000
         O            2.288180330623    -0.103290520526    -0.002690003647    15.994914619570
         H            0.797883230623     2.146586579474     0.247312996353     1.007825032230
         H           -1.679304669377     2.180721479474    -0.002718003647     1.007825032230
         H           -2.964201669377     0.048383479474    -0.002568003647     1.007825032230
         H           -1.741696669377    -2.121950520526    -0.002683003647     1.007825032230
         H            0.754493330623    -2.148644520526    -0.002668003647     1.007825032230
         H            2.656003330623     0.797846479474    -0.002343003647     1.007825032230

  Basis Set: AUG-CC-PVTZ
    Blend: AUG-CC-PVTZ
  Basis Set: (AUG-CC-PVTZ AUX)
    Blend: AUG-CC-PVTZ-JKFIT
	 Reference Energy          =    -305.6664246191987218 [Eh]
	 Singles Energy            =      -0.0000000000000000 [Eh]
	 Same-Spin Energy          =      -0.3256410956478937 [Eh]
	 Opposite-Spin Energy      =      -1.0073927792864819 [Eh]
	 Correlation Energy        =      -1.3330338749343755 [Eh]
	 Total Energy              =    -306.9994584941330800 [Eh]

	 ================> DF-SCS-MP2 Energies <==================
	-----------------------------------------------------------
	 SCS Same-Spin Scale       =       0.3333333333333333 [-]
	 SCS Opposite-Spin Scale   =       1.2000000000000000 [-]
	 SCS Same-Spin Energy      =      -0.1085470318826312 [Eh]
	 SCS Opposite-Spin Energy  =      -1.2088713351437781 [Eh]
	 SCS Correlation Energy    =      -1.3174183670264092 [Eh]
	 SCS Total Energy          =    -306.9838429862251132 [Eh]
	-----------------------------------------------------------

  Dipole Moment: [D]
     X:    -0.1139      Y:     1.2347      Z:     0.1677     Total:     1.2512

*** Psi4 exiting successfully. Buy a developer a beer!
