                               Psi4 1.4a3.dev225

  ==> Input File <==

--------------------------------------------------------------------------
#psi4
#
memory 32 gb

molecule  {
-1 1
  O       -1.5969950    -0.7592220    -0.0000430
  O       -0.6395240     1.3058710     0.0000360
  C        0.7544360    -0.6310910     0.0000040
  C       -0.6104441     0.0192691    -0.0000006
  C        1.9146910     0.0394820     0.0000050
  H        0.7506440    -1.7207470    -0.0000050
  H        2.8778840    -0.4633550     0.0000010
  H        1.9142450     1.1249800     0.0000120
units angstrom
no_reorient  #important for SAPT in psi4, default
symmetry c1  #important for SAPT in psi4, default
}

set PROPERTIES_ORIGIN ["COM"]
properties('MP2/aug-cc-pvtz', properties = ['dipole'])
--------------------------------------------------------------------------

    Molecular point group: c1
  Charge       = -1
  Multiplicity = 1
  Basis Set: AUG-CC-PVTZ
    Blend: AUG-CC-PVTZ
  Basis Set: (AUG-CC-PVTZ AUX)
    Blend: AUG-CC-PVTZ-JKFIT

    Orbital Energies [Eh]
    ---------------------

    Doubly Occupied:

       1A    -20.301018     2A    -20.289057     3A    -11.143404
       4A    -11.080978     5A    -11.076744     6A     -1.163143
       7A     -1.058668     8A     -0.883172     9A     -0.669477
      10A     -0.531103    11A     -0.472805    12A     -0.441532
      13A     -0.388942    14A     -0.360159    15A     -0.359709
      16A     -0.215272    17A     -0.215036    18A     -0.207607
      19A     -0.190491

  @DF-RHF Final Energy:  -265.18569953606391

   => Energetics <=

    Nuclear Repulsion Energy =            151.6817851797023309
    One-Electron Energy =                -671.6383365243150365
    Two-Electron Energy =                 254.7708518085488549
    Total Energy =                       -265.1856995360639075
  Basis Set: (AUG-CC-PVTZ AUX)
    Blend: AUG-CC-PVTZ-RI
    Molecular point group: c1

    Geometry (in Angstrom), charge = -1, multiplicity = 1:

       Center              X                  Y                   Z               Mass
    ------------   -----------------  -----------------  -----------------  -----------------
         O           -1.519789885776    -0.770601777714    -0.000042956321    15.994914619570
         O           -0.562318885776     1.294491222286     0.000036043679    15.994914619570
         C            0.831641114224    -0.642470777714     0.000004043679    12.000000000000
         C           -0.533238985776     0.007889322286    -0.000000556321    12.000000000000
         C            1.991896114224     0.028102222286     0.000005043679    12.000000000000
         H            0.827849114224    -1.732126777714    -0.000004956321     1.007825032230
         H            2.955089114224    -0.474734777714     0.000001043679     1.007825032230
         H            1.991450114224     1.113600222286     0.000012043679     1.007825032230

  Basis Set: AUG-CC-PVTZ
    Blend: AUG-CC-PVTZ
  Basis Set: (AUG-CC-PVTZ AUX)
    Blend: AUG-CC-PVTZ-JKFIT
	 Reference Energy          =    -265.1856995360639075 [Eh]
	 Singles Energy            =      -0.0000000000000000 [Eh]
	 Same-Spin Energy          =      -0.2626764692155504 [Eh]
	 Opposite-Spin Energy      =      -0.7975115271110377 [Eh]
	 Correlation Energy        =      -1.0601879963265881 [Eh]
	 Total Energy              =    -266.2458875323904977 [Eh]

	 ================> DF-SCS-MP2 Energies <==================
	-----------------------------------------------------------
	 SCS Same-Spin Scale       =       0.3333333333333333 [-]
	 SCS Opposite-Spin Scale   =       1.2000000000000000 [-]
	 SCS Same-Spin Energy      =      -0.0875588230718501 [Eh]
	 SCS Opposite-Spin Energy  =      -0.9570138325332451 [Eh]
	 SCS Correlation Energy    =      -1.0445726556050952 [Eh]
	 SCS Total Energy          =    -266.2302721916690302 [Eh]
	-----------------------------------------------------------

  Dipole Moment: [D]
     X:     4.4826      Y:    -1.5055      Z:     0.0000     Total:     4.7286

*** Psi4 exiting successfully. Buy a developer a beer!
