                               Psi4 1.3.2 release

  ==> Input File <==

--------------------------------------------------------------------------
#psi4
#
memory 32 gb

molecule  {
-1 1
  O       -1.5734981    -0.7890168    -0.0001739
  O       -0.6117130     1.3130740     0.0001440
  C        0.7486200    -0.6398630     0.0001060
  C       -0.6246240     0.0491590     0.0000370
  C        1.9107360     0.0279630    -0.0001390
  H        0.7354600    -1.7316690     0.0007200
  H        2.8810510    -0.4671120     0.0001950
  H        1.8861710     1.1137650    -0.0007150
units angstrom
no_reorient  #important for SAPT in psi4, default
symmetry c1  #important for SAPT in psi4, default
}

set PROPERTIES_ORIGIN ["COM"]
properties('MP2/aug-cc-pvtz', properties = ['dipole'])
--------------------------------------------------------------------------

    Molecular point group: c1
  Charge       = -1
  Multiplicity = 1
  Basis Set: AUG-CC-PVTZ
    Blend: AUG-CC-PVTZ
  Basis Set: (AUG-CC-PVTZ AUX)
    Blend: AUG-CC-PVTZ-JKFIT

    Orbital Energies [Eh]
    ---------------------

    Doubly Occupied:

       1A    -20.301257     2A    -20.298859     3A    -11.146801
       4A    -11.075020     5A    -11.071665     6A     -1.166550
       7A     -1.072928     8A     -0.876321     9A     -0.658367
      10A     -0.527809    11A     -0.470165    12A     -0.441454
      13A     -0.393128    14A     -0.363727    15A     -0.358838
      16A     -0.219658    17A     -0.210511    18A     -0.207770
      19A     -0.198750

  @DF-RHF Final Energy:  -265.18664581720731

   => Energetics <=

    Nuclear Repulsion Energy =            151.7467245537090719
    One-Electron Energy =                -671.7475879050327876
    Two-Electron Energy =                 254.8142175341163806
    Total Energy =                       -265.1866458172073067
  Basis Set: (AUG-CC-PVTZ AUX)
    Blend: AUG-CC-PVTZ-RI
    Molecular point group: c1

    Geometry (in Angstrom), charge = -1, multiplicity = 1:

       Center              X                  Y                   Z               Mass
    ------------   -----------------  -----------------  -----------------  -----------------
         O           -1.503233234101    -0.796562595673    -0.000170679717    15.994914619570
         O           -0.541448134101     1.305528204327     0.000147220283    15.994914619570
         C            0.818884865899    -0.647408795673     0.000109220283    12.000000000000
         C           -0.554359134101     0.041613204327     0.000040220283    12.000000000000
         C            1.981000865899     0.020417204327    -0.000135779717    12.000000000000
         H            0.805724865899    -1.739214795673     0.000723220283     1.007825032230
         H            2.951315865899    -0.474657795673     0.000198220283     1.007825032230
         H            1.956435865899     1.106219204327    -0.000711779717     1.007825032230

  Basis Set: AUG-CC-PVTZ
    Blend: AUG-CC-PVTZ
  Basis Set: (AUG-CC-PVTZ AUX)
    Blend: AUG-CC-PVTZ-JKFIT
	 Reference Energy          =    -265.1866458172073067 [Eh]
	 Singles Energy            =      -0.0000000000000000 [Eh]
	 Same-Spin Energy          =      -0.2625953765579029 [Eh]
	 Opposite-Spin Energy      =      -0.7970499939745327 [Eh]
	 Correlation Energy        =      -1.0596453705324356 [Eh]
	 Total Energy              =    -266.2462911877397573 [Eh]

	 ================> DF-SCS-MP2 Energies <==================
	-----------------------------------------------------------
	 SCS Same-Spin Scale       =       0.3333333333333333 [-]
	 SCS Opposite-Spin Scale   =       1.2000000000000000 [-]
	 SCS Same-Spin Energy      =      -0.0875317921859676 [Eh]
	 SCS Opposite-Spin Energy  =      -0.9564599927694392 [Eh]
	 SCS Correlation Energy    =      -1.0439917849554068 [Eh]
	 SCS Total Energy          =    -266.2306376021626875 [Eh]
	-----------------------------------------------------------

  Dipole Moment: [D]
     X:     4.2363      Y:    -1.2430      Z:     0.0004     Total:     4.4149

*** Psi4 exiting successfully. Buy a developer a beer!
