                               Psi4 1.3.2 release

  ==> Input File <==

--------------------------------------------------------------------------
#psi4
#
memory 32 gb

molecule  {
-1 1
  O       -1.6021720    -0.7553910    -0.0001730
  O       -0.6117130     1.3130740     0.0001440
  C        0.7486200    -0.6398630     0.0001060
  C       -0.6891236    -0.0981586     0.0001343
  C        1.9107360     0.0279630    -0.0001390
  H        0.7354600    -1.7316690     0.0007200
  H        2.8810510    -0.4671120     0.0001950
  H        1.8861710     1.1137650    -0.0007150
units angstrom
no_reorient  #important for SAPT in psi4, default
symmetry c1  #important for SAPT in psi4, default
}

set PROPERTIES_ORIGIN ["COM"]
properties('MP2/aug-cc-pvtz', properties = ['dipole'])
--------------------------------------------------------------------------

    Molecular point group: c1
  Charge       = -1
  Multiplicity = 1
  Basis Set: AUG-CC-PVTZ
    Blend: AUG-CC-PVTZ
  Basis Set: (AUG-CC-PVTZ AUX)
    Blend: AUG-CC-PVTZ-JKFIT

    Orbital Energies [Eh]
    ---------------------

    Doubly Occupied:

       1A    -20.335591     2A    -20.259637     3A    -11.141072
       4A    -11.078008     5A    -11.073953     6A     -1.249106
       7A     -1.005615     8A     -0.873364     9A     -0.668344
      10A     -0.527776    11A     -0.482390    12A     -0.459109
      13A     -0.396533    14A     -0.395199    15A     -0.362253
      16A     -0.220484    17A     -0.206715    18A     -0.178317
      19A     -0.170484

  @DF-RHF Final Energy:  -265.14625668639877

   => Energetics <=

    Nuclear Repulsion Energy =            151.8498447114132262
    One-Electron Energy =                -671.8243028225753051
    Two-Electron Energy =                 254.8282014247633356
    Total Energy =                       -265.1462566863987718
  Basis Set: (AUG-CC-PVTZ AUX)
    Blend: AUG-CC-PVTZ-RI
    Molecular point group: c1

    Geometry (in Angstrom), charge = -1, multiplicity = 1:

       Center              X                  Y                   Z               Mass
    ------------   -----------------  -----------------  -----------------  -----------------
         O           -1.514549375666    -0.745616528556    -0.000186424421    15.994914619570
         O           -0.524090375666     1.322848471444     0.000130575579    15.994914619570
         C            0.836242624334    -0.630088528556     0.000092575579    12.000000000000
         C           -0.601500975666    -0.088384128556     0.000120875579    12.000000000000
         C            1.998358624334     0.037737471444    -0.000152424421    12.000000000000
         H            0.823082624334    -1.721894528556     0.000706575579     1.007825032230
         H            2.968673624334    -0.457337528556     0.000181575579     1.007825032230
         H            1.973793624334     1.123539471444    -0.000728424421     1.007825032230

  Basis Set: AUG-CC-PVTZ
    Blend: AUG-CC-PVTZ
  Basis Set: (AUG-CC-PVTZ AUX)
    Blend: AUG-CC-PVTZ-JKFIT
	 Reference Energy          =    -265.1462566863987718 [Eh]
	 Singles Energy            =      -0.0000000000000000 [Eh]
	 Same-Spin Energy          =      -0.2621659291584758 [Eh]
	 Opposite-Spin Energy      =      -0.7969744545648451 [Eh]
	 Correlation Energy        =      -1.0591403837233209 [Eh]
	 Total Energy              =    -266.2053970701221033 [Eh]

	 ================> DF-SCS-MP2 Energies <==================
	-----------------------------------------------------------
	 SCS Same-Spin Scale       =       0.3333333333333333 [-]
	 SCS Opposite-Spin Scale   =       1.2000000000000000 [-]
	 SCS Same-Spin Energy      =      -0.0873886430528253 [Eh]
	 SCS Opposite-Spin Energy  =      -0.9563693454778140 [Eh]
	 SCS Correlation Energy    =      -1.0437579885306394 [Eh]
	 SCS Total Energy          =    -266.1900146749293867 [Eh]
	-----------------------------------------------------------

  Dipole Moment: [D]
     X:     3.6678      Y:    -2.8495      Z:     0.0002     Total:     4.6446

*** Psi4 exiting successfully. Buy a developer a beer!
