                               Psi4 1.3.2 release

  ==> Input File <==

--------------------------------------------------------------------------
#psi4
#
memory 32 gb

molecule  {
-1 1
  O       -1.6021720    -0.7553910    -0.0001730
  O       -0.6117130     1.3130740     0.0001440
  C        0.7486200    -0.6398630     0.0001060
  C       -0.6236025     0.1491538     0.0000455
  C        1.9107360     0.0279630    -0.0001390
  H        0.7354600    -1.7316690     0.0007200
  H        2.8810510    -0.4671120     0.0001950
  H        1.8861710     1.1137650    -0.0007150
units angstrom
no_reorient  #important for SAPT in psi4, default
symmetry c1  #important for SAPT in psi4, default
}

set PROPERTIES_ORIGIN ["COM"]
properties('MP2/aug-cc-pvtz', properties = ['dipole'])
--------------------------------------------------------------------------

    Molecular point group: c1
  Charge       = -1
  Multiplicity = 1
  Basis Set: AUG-CC-PVTZ
    Blend: AUG-CC-PVTZ
  Basis Set: (AUG-CC-PVTZ AUX)
    Blend: AUG-CC-PVTZ-JKFIT

    Orbital Energies [Eh]
    ---------------------

    Doubly Occupied:

       1A    -20.320778     2A    -20.281764     3A    -11.145307
       4A    -11.071652     5A    -11.069937     6A     -1.215609
       7A     -1.053749     8A     -0.872769     9A     -0.644898
      10A     -0.530280    11A     -0.477358    12A     -0.443519
      13A     -0.396996    14A     -0.383337    15A     -0.365309
      16A     -0.221321    17A     -0.213456    18A     -0.193278
      19A     -0.193181

  @DF-RHF Final Energy:  -265.17354777006818

   => Energetics <=

    Nuclear Repulsion Energy =            151.9845192627061294
    One-Electron Energy =                -672.1271406163676829
    Two-Electron Energy =                 254.9690735835933708
    Total Energy =                       -265.1735477700681258
  Basis Set: (AUG-CC-PVTZ AUX)
    Blend: AUG-CC-PVTZ-RI
    Molecular point group: c1

    Geometry (in Angstrom), charge = -1, multiplicity = 1:

       Center              X                  Y                   Z               Mass
    ------------   -----------------  -----------------  -----------------  -----------------
         O           -1.525621289688    -0.787407976338    -0.000171418782    15.994914619570
         O           -0.535162289688     1.281057023662     0.000145581218    15.994914619570
         C            0.825170710312    -0.671879976338     0.000107581218    12.000000000000
         C           -0.547051789688     0.117136823662     0.000047081218    12.000000000000
         C            1.987286710312    -0.004053976338    -0.000137418782    12.000000000000
         H            0.812010710312    -1.763685976338     0.000721581218     1.007825032230
         H            2.957601710312    -0.499128976338     0.000196581218     1.007825032230
         H            1.962721710312     1.081748023662    -0.000713418782     1.007825032230

  Basis Set: AUG-CC-PVTZ
    Blend: AUG-CC-PVTZ
  Basis Set: (AUG-CC-PVTZ AUX)
    Blend: AUG-CC-PVTZ-JKFIT
	 Reference Energy          =    -265.1735477700681827 [Eh]
	 Singles Energy            =      -0.0000000000000000 [Eh]
	 Same-Spin Energy          =      -0.2619362588085403 [Eh]
	 Opposite-Spin Energy      =      -0.7954050484885675 [Eh]
	 Correlation Energy        =      -1.0573413072971078 [Eh]
	 Total Energy              =    -266.2308890773653047 [Eh]

	 ================> DF-SCS-MP2 Energies <==================
	-----------------------------------------------------------
	 SCS Same-Spin Scale       =       0.3333333333333333 [-]
	 SCS Opposite-Spin Scale   =       1.2000000000000000 [-]
	 SCS Same-Spin Energy      =      -0.0873120862695134 [Eh]
	 SCS Opposite-Spin Energy  =      -0.9544860581862810 [Eh]
	 SCS Correlation Energy    =      -1.0417981444557944 [Eh]
	 SCS Total Energy          =    -266.2153459145239935 [Eh]
	-----------------------------------------------------------

  Dipole Moment: [D]
     X:     4.4508      Y:    -0.3097      Z:     0.0005     Total:     4.4616

*** Psi4 exiting successfully. Buy a developer a beer!
