                               Psi4 1.3.2 release

  ==> Input File <==

--------------------------------------------------------------------------
#psi4
#
memory 32 gb

molecule  {
-1 1
  O       -1.6021720    -0.7553910    -0.0001730
  O       -0.6117130     1.3130740     0.0001440
  C        0.7486200    -0.6398630     0.0001060
  C       -0.5450788     0.1889275    -0.0000596
  C        1.9107360     0.0279630    -0.0001390
  H        0.7354600    -1.7316690     0.0007200
  H        2.8810510    -0.4671120     0.0001950
  H        1.8861710     1.1137650    -0.0007150
units angstrom
no_reorient  #important for SAPT in psi4, default
symmetry c1  #important for SAPT in psi4, default
}

set PROPERTIES_ORIGIN ["COM"]
properties('MP2/aug-cc-pvtz', properties = ['dipole'])
--------------------------------------------------------------------------

    Molecular point group: c1
  Charge       = -1
  Multiplicity = 1
  Basis Set: AUG-CC-PVTZ
    Blend: AUG-CC-PVTZ
  Basis Set: (AUG-CC-PVTZ AUX)
    Blend: AUG-CC-PVTZ-JKFIT

    Orbital Energies [Eh]
    ---------------------

    Doubly Occupied:

       1A    -20.332654     2A    -20.263957     3A    -11.141587
       4A    -11.078175     5A    -11.076355     6A     -1.246401
       7A     -1.005666     8A     -0.883713     9A     -0.655747
      10A     -0.542339    11A     -0.489058    12A     -0.447585
      13A     -0.395150    14A     -0.394538    15A     -0.372418
      16A     -0.221509    17A     -0.207618    18A     -0.180968
      19A     -0.172561

  @DF-RHF Final Energy:  -265.14691723677265

   => Energetics <=

    Nuclear Repulsion Energy =            152.2382620674104317
    One-Electron Energy =                -672.5543590266236151
    Two-Electron Energy =                 255.1691797224405036
    Total Energy =                       -265.1469172367726514
  Basis Set: (AUG-CC-PVTZ AUX)
    Blend: AUG-CC-PVTZ-RI
    Molecular point group: c1

    Geometry (in Angstrom), charge = -1, multiplicity = 1:

       Center              X                  Y                   Z               Mass
    ------------   -----------------  -----------------  -----------------  -----------------
         O           -1.538890414520    -0.794129032406    -0.000153658730    15.994914619570
         O           -0.548431414520     1.274335967594     0.000163341270    15.994914619570
         C            0.811901585480    -0.678601032406     0.000125341270    12.000000000000
         C           -0.481797214520     0.150189467594    -0.000040258730    12.000000000000
         C            1.974017585480    -0.010775032406    -0.000119658730    12.000000000000
         H            0.798741585480    -1.770407032406     0.000739341270     1.007825032230
         H            2.944332585480    -0.505850032406     0.000214341270     1.007825032230
         H            1.949452585480     1.075026967594    -0.000695658730     1.007825032230

  Basis Set: AUG-CC-PVTZ
    Blend: AUG-CC-PVTZ
  Basis Set: (AUG-CC-PVTZ AUX)
    Blend: AUG-CC-PVTZ-JKFIT
	 Reference Energy          =    -265.1469172367726514 [Eh]
	 Singles Energy            =      -0.0000000000000000 [Eh]
	 Same-Spin Energy          =      -0.2629088490450953 [Eh]
	 Opposite-Spin Energy      =      -0.7976778850088475 [Eh]
	 Correlation Energy        =      -1.0605867340539428 [Eh]
	 Total Energy              =    -266.2075039708266218 [Eh]

	 ================> DF-SCS-MP2 Energies <==================
	-----------------------------------------------------------
	 SCS Same-Spin Scale       =       0.3333333333333333 [-]
	 SCS Opposite-Spin Scale   =       1.2000000000000000 [-]
	 SCS Same-Spin Energy      =      -0.0876362830150317 [Eh]
	 SCS Opposite-Spin Energy  =      -0.9572134620106170 [Eh]
	 SCS Correlation Energy    =      -1.0448497450256486 [Eh]
	 SCS Total Energy          =    -266.1917669817983096 [Eh]
	-----------------------------------------------------------

  Dipole Moment: [D]
     X:     5.1481      Y:     0.1909      Z:     0.0005     Total:     5.1517

*** Psi4 exiting successfully. Buy a developer a beer!
