                               Psi4 1.4a3.dev225

  ==> Input File <==

--------------------------------------------------------------------------
#psi4
#
memory 32 gb

molecule  {
-1 1
  O       -1.5969950    -0.7592220    -0.0000430
  O       -0.6395240     1.3058710     0.0000360
  C        0.7544360    -0.6310910     0.0000040
  C       -0.6288488     0.0480785    -0.0000001
  C        1.9146910     0.0394820     0.0000050
  H        0.7506440    -1.7207470    -0.0000050
  H        2.8778840    -0.4633550     0.0000010
  H        1.9142450     1.1249800     0.0000120
units angstrom
no_reorient  #important for SAPT in psi4, default
symmetry c1  #important for SAPT in psi4, default
}

set PROPERTIES_ORIGIN ["COM"]
properties('MP2/aug-cc-pvtz', properties = ['dipole'])
--------------------------------------------------------------------------

    Molecular point group: c1
  Charge       = -1
  Multiplicity = 1
  Basis Set: AUG-CC-PVTZ
    Blend: AUG-CC-PVTZ
  Basis Set: (AUG-CC-PVTZ AUX)
    Blend: AUG-CC-PVTZ-JKFIT

    Orbital Energies [Eh]
    ---------------------

    Doubly Occupied:

       1A    -20.298089     2A    -20.294966     3A    -11.143804
       4A    -11.077235     5A    -11.074423     6A     -1.169087
       7A     -1.070243     8A     -0.878517     9A     -0.660353
      10A     -0.528503    11A     -0.470524    12A     -0.442270
      13A     -0.392412    14A     -0.364008    15A     -0.361809
      16A     -0.215094    17A     -0.212867    18A     -0.209278
      19A     -0.195725

  @DF-RHF Final Energy:  -265.18859364458672

   => Energetics <=

    Nuclear Repulsion Energy =            151.7542320387238988
    One-Electron Energy =                -671.7672388140005069
    Two-Electron Energy =                 254.8244131306899192
    Total Energy =                       -265.1885936445867173
  Basis Set: (AUG-CC-PVTZ AUX)
    Blend: AUG-CC-PVTZ-RI
    Molecular point group: c1

    Geometry (in Angstrom), charge = -1, multiplicity = 1:

       Center              X                  Y                   Z               Mass
    ------------   -----------------  -----------------  -----------------  -----------------
         O           -1.516679815035    -0.775470059837    -0.000043040812    15.994914619570
         O           -0.559208815035     1.289622940163     0.000035959188    15.994914619570
         C            0.834751184965    -0.647339059837     0.000003959188    12.000000000000
         C           -0.548533615035     0.031830440163    -0.000000140812    12.000000000000
         C            1.995006184965     0.023233940163     0.000004959188    12.000000000000
         H            0.830959184965    -1.736995059837    -0.000005040812     1.007825032230
         H            2.958199184965    -0.479603059837     0.000000959188     1.007825032230
         H            1.994560184965     1.108731940163     0.000011959188     1.007825032230

  Basis Set: AUG-CC-PVTZ
    Blend: AUG-CC-PVTZ
  Basis Set: (AUG-CC-PVTZ AUX)
    Blend: AUG-CC-PVTZ-JKFIT
	 Reference Energy          =    -265.1885936445867173 [Eh]
	 Singles Energy            =      -0.0000000000000000 [Eh]
	 Same-Spin Energy          =      -0.2621420158053229 [Eh]
	 Opposite-Spin Energy      =      -0.7962141584557292 [Eh]
	 Correlation Energy        =      -1.0583561742610521 [Eh]
	 Total Energy              =    -266.2469498188477814 [Eh]

	 ================> DF-SCS-MP2 Energies <==================
	-----------------------------------------------------------
	 SCS Same-Spin Scale       =       0.3333333333333333 [-]
	 SCS Opposite-Spin Scale   =       1.2000000000000000 [-]
	 SCS Same-Spin Energy      =      -0.0873806719351076 [Eh]
	 SCS Opposite-Spin Energy  =      -0.9554569901468750 [Eh]
	 SCS Correlation Energy    =      -1.0428376620819826 [Eh]
	 SCS Total Energy          =    -266.2314313066686964 [Eh]
	-----------------------------------------------------------

  Dipole Moment: [D]
     X:     4.3689      Y:    -1.2667      Z:     0.0000     Total:     4.5488

*** Psi4 exiting successfully. Buy a developer a beer!
