                               Psi4 1.4a3.dev225

  ==> Input File <==

--------------------------------------------------------------------------
#psi4
#
memory 32 gb

molecule  {
-1 1
  O       -1.5969950    -0.7592220    -0.0000430
  O       -0.6395240     1.3058710     0.0000360
  C        0.7544360    -0.6310910     0.0000040
  C       -0.6120258     0.0892512     0.0000014
  C        1.9146910     0.0394820     0.0000050
  H        0.7506440    -1.7207470    -0.0000050
  H        2.8778840    -0.4633550     0.0000010
  H        1.9142450     1.1249800     0.0000120
units angstrom
no_reorient  #important for SAPT in psi4, default
symmetry c1  #important for SAPT in psi4, default
}

set PROPERTIES_ORIGIN ["COM"]
properties('MP2/aug-cc-pvtz', properties = ['dipole'])
--------------------------------------------------------------------------

    Molecular point group: c1
  Charge       = -1
  Multiplicity = 1
  Basis Set: AUG-CC-PVTZ
    Blend: AUG-CC-PVTZ
  Basis Set: (AUG-CC-PVTZ AUX)
    Blend: AUG-CC-PVTZ-JKFIT

    Orbital Energies [Eh]
    ---------------------

    Doubly Occupied:

       1A    -20.305515     2A    -20.288150     3A    -11.143549
       4A    -11.076836     5A    -11.074474     6A     -1.179720
       7A     -1.062965     8A     -0.879231     9A     -0.657788
      10A     -0.530978    11A     -0.470542    12A     -0.444708
      13A     -0.390345    14A     -0.367537    15A     -0.365065
      16A     -0.216599    17A     -0.213702    18A     -0.205112
      19A     -0.194072

  @DF-RHF Final Energy:  -265.18553202032462

   => Energetics <=

    Nuclear Repulsion Energy =            151.8423080642287175
    One-Electron Energy =                -671.9219035130261091
    Two-Electron Energy =                 254.8940634284727480
    Total Energy =                       -265.1855320203246151
  Basis Set: (AUG-CC-PVTZ AUX)
    Blend: AUG-CC-PVTZ-RI
    Molecular point group: c1

    Geometry (in Angstrom), charge = -1, multiplicity = 1:

       Center              X                  Y                   Z               Mass
    ------------   -----------------  -----------------  -----------------  -----------------
         O           -1.519522606283    -0.782427522310    -0.000043294286    15.994914619570
         O           -0.562051606283     1.282665477690     0.000035705714    15.994914619570
         C            0.831908393717    -0.654296522310     0.000003705714    12.000000000000
         C           -0.534553406283     0.066045677690     0.000001105714    12.000000000000
         C            1.992163393717     0.016276477690     0.000004705714    12.000000000000
         H            0.828116393717    -1.743952522310    -0.000005294286     1.007825032230
         H            2.955356393717    -0.486560522310     0.000000705714     1.007825032230
         H            1.991717393717     1.101774477690     0.000011705714     1.007825032230

  Basis Set: AUG-CC-PVTZ
    Blend: AUG-CC-PVTZ
  Basis Set: (AUG-CC-PVTZ AUX)
    Blend: AUG-CC-PVTZ-JKFIT
	 Reference Energy          =    -265.1855320203246151 [Eh]
	 Singles Energy            =      -0.0000000000000000 [Eh]
	 Same-Spin Energy          =      -0.2621748971020803 [Eh]
	 Opposite-Spin Energy      =      -0.7961750253066560 [Eh]
	 Correlation Energy        =      -1.0583499224087363 [Eh]
	 Total Energy              =    -266.2438819427333669 [Eh]

	 ================> DF-SCS-MP2 Energies <==================
	-----------------------------------------------------------
	 SCS Same-Spin Scale       =       0.3333333333333333 [-]
	 SCS Opposite-Spin Scale   =       1.2000000000000000 [-]
	 SCS Same-Spin Energy      =      -0.0873916323673601 [Eh]
	 SCS Opposite-Spin Energy  =      -0.9554100303679871 [Eh]
	 SCS Correlation Energy    =      -1.0428016627353471 [Eh]
	 SCS Total Energy          =    -266.2283336830599865 [Eh]
	-----------------------------------------------------------

  Dipole Moment: [D]
     X:     4.5473      Y:    -0.8404      Z:     0.0000     Total:     4.6243

*** Psi4 exiting successfully. Buy a developer a beer!
