                               Psi4 1.3.2 release

  ==> Input File <==

--------------------------------------------------------------------------
#psi4
#
memory 32 gb

molecule  {
-1 1
  O       -1.6021720    -0.7553910    -0.0001730
  O       -0.6117130     1.3130740     0.0001440
  C        0.7486200    -0.6398630     0.0001060
  C       -0.5732151     0.1432732    -0.0000275
  C        1.9107360     0.0279630    -0.0001390
  H        0.7354600    -1.7316690     0.0007200
  H        2.8810510    -0.4671120     0.0001950
  H        1.8861710     1.1137650    -0.0007150
units angstrom
no_reorient  #important for SAPT in psi4, default
symmetry c1  #important for SAPT in psi4, default
}

set PROPERTIES_ORIGIN ["COM"]
properties('MP2/aug-cc-pvtz', properties = ['dipole'])
--------------------------------------------------------------------------

    Molecular point group: c1
  Charge       = -1
  Multiplicity = 1
  Basis Set: AUG-CC-PVTZ
    Blend: AUG-CC-PVTZ
  Basis Set: (AUG-CC-PVTZ AUX)
    Blend: AUG-CC-PVTZ-JKFIT

    Orbital Energies [Eh]
    ---------------------

    Doubly Occupied:

       1A    -20.320815     2A    -20.275720     3A    -11.143742
       4A    -11.077529     5A    -11.075325     6A     -1.209934
       7A     -1.032736     8A     -0.881797     9A     -0.656843
      10A     -0.536664    11A     -0.477501    12A     -0.447425
      13A     -0.388402    14A     -0.378039    15A     -0.368535
      16A     -0.217768    17A     -0.215807    18A     -0.193444
      19A     -0.183871

  @DF-RHF Final Energy:  -265.16963053065740

   => Energetics <=

    Nuclear Repulsion Energy =            151.9662111137677414
    One-Electron Energy =                -672.1078892991763496
    Two-Electron Energy =                 254.9720476547512362
    Total Energy =                       -265.1696305306574004
  Basis Set: (AUG-CC-PVTZ AUX)
    Blend: AUG-CC-PVTZ-RI
    Molecular point group: c1

    Geometry (in Angstrom), charge = -1, multiplicity = 1:

       Center              X                  Y                   Z               Mass
    ------------   -----------------  -----------------  -----------------  -----------------
         O           -1.534135874464    -0.786414258321    -0.000159083065    15.994914619570
         O           -0.543676874464     1.282050741679     0.000157916935    15.994914619570
         C            0.816656125536    -0.670886258321     0.000119916935    12.000000000000
         C           -0.505178974464     0.112249941679    -0.000013583065    12.000000000000
         C            1.978772125536    -0.003060258321    -0.000125083065    12.000000000000
         H            0.803496125536    -1.762692258321     0.000733916935     1.007825032230
         H            2.949087125536    -0.498135258321     0.000208916935     1.007825032230
         H            1.954207125536     1.082741741679    -0.000701083065     1.007825032230

  Basis Set: AUG-CC-PVTZ
    Blend: AUG-CC-PVTZ
  Basis Set: (AUG-CC-PVTZ AUX)
    Blend: AUG-CC-PVTZ-JKFIT
	 Reference Energy          =    -265.1696305306574004 [Eh]
	 Singles Energy            =      -0.0000000000000000 [Eh]
	 Same-Spin Energy          =      -0.2627349952490141 [Eh]
	 Opposite-Spin Energy      =      -0.7972962030068735 [Eh]
	 Correlation Energy        =      -1.0600311982558877 [Eh]
	 Total Energy              =    -266.2296617289132996 [Eh]

	 ================> DF-SCS-MP2 Energies <==================
	-----------------------------------------------------------
	 SCS Same-Spin Scale       =       0.3333333333333333 [-]
	 SCS Opposite-Spin Scale   =       1.2000000000000000 [-]
	 SCS Same-Spin Energy      =      -0.0875783317496714 [Eh]
	 SCS Opposite-Spin Energy  =      -0.9567554436082482 [Eh]
	 SCS Correlation Energy    =      -1.0443337753579196 [Eh]
	 SCS Total Energy          =    -266.2139643060153276 [Eh]
	-----------------------------------------------------------

  Dipole Moment: [D]
     X:     4.8547      Y:    -0.3063      Z:     0.0005     Total:     4.8644

*** Psi4 exiting successfully. Buy a developer a beer!
