                               Psi4 1.3.2 release

  ==> Input File <==

--------------------------------------------------------------------------
#psi4
#
memory 32 gb

molecule  {
-1 1
  O       -1.6021720    -0.7553910    -0.0001730
  O       -0.6117130     1.3130740     0.0001440
  C        0.7486200    -0.6398630     0.0001060
  C       -0.6256455    -0.0508358     0.0000285
  C        1.9107360     0.0279630    -0.0001390
  H        0.7354600    -1.7316690     0.0007200
  H        2.8810510    -0.4671120     0.0001950
  H        1.8861710     1.1137650    -0.0007150
units angstrom
no_reorient  #important for SAPT in psi4, default
symmetry c1  #important for SAPT in psi4, default
}

set PROPERTIES_ORIGIN ["COM"]
properties('MP2/aug-cc-pvtz', properties = ['dipole'])
--------------------------------------------------------------------------

    Molecular point group: c1
  Charge       = -1
  Multiplicity = 1
  Basis Set: AUG-CC-PVTZ
    Blend: AUG-CC-PVTZ
  Basis Set: (AUG-CC-PVTZ AUX)
    Blend: AUG-CC-PVTZ-JKFIT

    Orbital Energies [Eh]
    ---------------------

    Doubly Occupied:

       1A    -20.318361     2A    -20.273334     3A    -11.143746
       4A    -11.082801     5A    -11.076898     6A     -1.187331
       7A     -1.029684     8A     -0.882605     9A     -0.676601
      10A     -0.529332    11A     -0.478313    12A     -0.446181
      13A     -0.391251    14A     -0.366032    15A     -0.355703
      16A     -0.219261    17A     -0.216743    18A     -0.194009
      19A     -0.179813

  @DF-RHF Final Energy:  -265.17187174804417

   => Energetics <=

    Nuclear Repulsion Energy =            151.5951445333812444
    One-Electron Energy =                -671.4380373451691639
    Two-Electron Energy =                 254.6710210637437513
    Total Energy =                       -265.1718717480441683
  Basis Set: (AUG-CC-PVTZ AUX)
    Blend: AUG-CC-PVTZ-RI
    Molecular point group: c1

    Geometry (in Angstrom), charge = -1, multiplicity = 1:

       Center              X                  Y                   Z               Mass
    ------------   -----------------  -----------------  -----------------  -----------------
         O           -1.525276058604    -0.753613249808    -0.000168546081    15.994914619570
         O           -0.534817058604     1.314851750192     0.000148453919    15.994914619570
         C            0.825515941396    -0.638085249808     0.000110453919    12.000000000000
         C           -0.548749558604    -0.049058049808     0.000032953919    12.000000000000
         C            1.987631941396     0.029740750192    -0.000134546081    12.000000000000
         H            0.812355941396    -1.729891249808     0.000724453919     1.007825032230
         H            2.957946941396    -0.465334249808     0.000199453919     1.007825032230
         H            1.963066941396     1.115542750192    -0.000710546081     1.007825032230

  Basis Set: AUG-CC-PVTZ
    Blend: AUG-CC-PVTZ
  Basis Set: (AUG-CC-PVTZ AUX)
    Blend: AUG-CC-PVTZ-JKFIT
	 Reference Energy          =    -265.1718717480441683 [Eh]
	 Singles Energy            =      -0.0000000000000000 [Eh]
	 Same-Spin Energy          =      -0.2631287979002586 [Eh]
	 Opposite-Spin Energy      =      -0.7987659566401525 [Eh]
	 Correlation Energy        =      -1.0618947545404112 [Eh]
	 Total Energy              =    -266.2337665025845581 [Eh]

	 ================> DF-SCS-MP2 Energies <==================
	-----------------------------------------------------------
	 SCS Same-Spin Scale       =       0.3333333333333333 [-]
	 SCS Opposite-Spin Scale   =       1.2000000000000000 [-]
	 SCS Same-Spin Energy      =      -0.0877095993000862 [Eh]
	 SCS Opposite-Spin Energy  =      -0.9585191479681829 [Eh]
	 SCS Correlation Energy    =      -1.0462287472682692 [Eh]
	 SCS Total Energy          =    -266.2181004953124557 [Eh]
	-----------------------------------------------------------

  Dipole Moment: [D]
     X:     4.2249      Y:    -2.2264      Z:     0.0002     Total:     4.7756

*** Psi4 exiting successfully. Buy a developer a beer!
