                               Psi4 1.3.2 release

  ==> Input File <==

--------------------------------------------------------------------------
#psi4
#
memory 32 gb

molecule  {
-1 1
  O       -1.6021720    -0.7553910    -0.0001730
  O       -0.6117130     1.3130740     0.0001440
  C        0.7486200    -0.6398630     0.0001060
  C       -0.7140041     0.0940053     0.0000325
  C        1.9107360     0.0279630    -0.0001390
  H        0.7354600    -1.7316690     0.0007200
  H        2.8810510    -0.4671120     0.0001950
  H        1.8861710     1.1137650    -0.0007150
units angstrom
no_reorient  #important for SAPT in psi4, default
symmetry c1  #important for SAPT in psi4, default
}

set PROPERTIES_ORIGIN ["COM"]
properties('MP2/aug-cc-pvtz', properties = ['dipole'])
--------------------------------------------------------------------------

    Molecular point group: c1
  Charge       = -1
  Multiplicity = 1
  Basis Set: AUG-CC-PVTZ
    Blend: AUG-CC-PVTZ
  Basis Set: (AUG-CC-PVTZ AUX)
    Blend: AUG-CC-PVTZ-JKFIT

    Orbital Energies [Eh]
    ---------------------

    Doubly Occupied:

       1A    -20.306356     2A    -20.305044     3A    -11.149981
       4A    -11.063914     5A    -11.061921     6A     -1.192432
       7A     -1.104828     8A     -0.860658     9A     -0.633846
      10A     -0.518802    11A     -0.469410    12A     -0.440077
      13A     -0.410972    14A     -0.381527    15A     -0.357066
      16A     -0.234338    17A     -0.213960    18A     -0.202614
      19A     -0.190335

  @DF-RHF Final Energy:  -265.18318541523581

   => Energetics <=

    Nuclear Repulsion Energy =            151.8167449802744216
    One-Electron Energy =                -671.8037000612354177
    Two-Electron Energy =                 254.8037696657252411
    Total Energy =                       -265.1831854152358119
  Basis Set: (AUG-CC-PVTZ AUX)
    Blend: AUG-CC-PVTZ-RI
    Molecular point group: c1

    Geometry (in Angstrom), charge = -1, multiplicity = 1:

       Center              X                  Y                   Z               Mass
    ------------   -----------------  -----------------  -----------------  -----------------
         O           -1.510345008572    -0.778088849363    -0.000169222011    15.994914619570
         O           -0.519886008572     1.290376150637     0.000147777989    15.994914619570
         C            0.840446991428    -0.662560849363     0.000109777989    12.000000000000
         C           -0.622177108572     0.071307450637     0.000036277989    12.000000000000
         C            2.002562991428     0.005265150637    -0.000135222011    12.000000000000
         H            0.827286991428    -1.754366849363     0.000723777989     1.007825032230
         H            2.972877991428    -0.489809849363     0.000198777989     1.007825032230
         H            1.977997991428     1.091067150637    -0.000711222011     1.007825032230

  Basis Set: AUG-CC-PVTZ
    Blend: AUG-CC-PVTZ
  Basis Set: (AUG-CC-PVTZ AUX)
    Blend: AUG-CC-PVTZ-JKFIT
	 Reference Energy          =    -265.1831854152358119 [Eh]
	 Singles Energy            =      -0.0000000000000000 [Eh]
	 Same-Spin Energy          =      -0.2613641263979693 [Eh]
	 Opposite-Spin Energy      =      -0.7938961004385456 [Eh]
	 Correlation Energy        =      -1.0552602268365150 [Eh]
	 Total Energy              =    -266.2384456420723495 [Eh]

	 ================> DF-SCS-MP2 Energies <==================
	-----------------------------------------------------------
	 SCS Same-Spin Scale       =       0.3333333333333333 [-]
	 SCS Opposite-Spin Scale   =       1.2000000000000000 [-]
	 SCS Same-Spin Energy      =      -0.0871213754659898 [Eh]
	 SCS Opposite-Spin Energy  =      -0.9526753205262547 [Eh]
	 SCS Correlation Energy    =      -1.0397966959922444 [Eh]
	 SCS Total Energy          =    -266.2229821112280774 [Eh]
	-----------------------------------------------------------

  Dipole Moment: [D]
     X:     3.5630      Y:    -0.9966      Z:     0.0004     Total:     3.6998

*** Psi4 exiting successfully. Buy a developer a beer!
