                               Psi4 1.4a3.dev225

  ==> Input File <==

--------------------------------------------------------------------------
#psi4
#
memory 32 gb

molecule  {
-1 1
  O       -1.5969950    -0.7592220    -0.0000430
  O       -0.6395240     1.3058710     0.0000360
  C        0.7544360    -0.6310910     0.0000040
  C       -0.6497541     0.0077990    -0.0000017
  C        1.9146910     0.0394820     0.0000050
  H        0.7506440    -1.7207470    -0.0000050
  H        2.8778840    -0.4633550     0.0000010
  H        1.9142450     1.1249800     0.0000120
units angstrom
no_reorient  #important for SAPT in psi4, default
symmetry c1  #important for SAPT in psi4, default
}

set PROPERTIES_ORIGIN ["COM"]
properties('MP2/aug-cc-pvtz', properties = ['dipole'])
--------------------------------------------------------------------------

    Molecular point group: c1
  Charge       = -1
  Multiplicity = 1
  Basis Set: AUG-CC-PVTZ
    Blend: AUG-CC-PVTZ
  Basis Set: (AUG-CC-PVTZ AUX)
    Blend: AUG-CC-PVTZ-JKFIT

    Orbital Energies [Eh]
    ---------------------

    Doubly Occupied:

       1A    -20.308474     2A    -20.284547     3A    -11.143362
       4A    -11.077094     5A    -11.073983     6A     -1.180168
       7A     -1.062047     8A     -0.876862     9A     -0.661729
      10A     -0.526298    11A     -0.472414    12A     -0.443137
      13A     -0.394957    14A     -0.367052    15A     -0.359771
      16A     -0.217654    17A     -0.214821    18A     -0.203230
      19A     -0.192091

  @DF-RHF Final Energy:  -265.18549010211689

   => Energetics <=

    Nuclear Repulsion Energy =            151.7360139292401016
    One-Electron Energy =                -671.7236235090758782
    Two-Electron Energy =                 254.8021194777188612
    Total Energy =                       -265.1854901021168871
  Basis Set: (AUG-CC-PVTZ AUX)
    Blend: AUG-CC-PVTZ-RI
    Molecular point group: c1

    Geometry (in Angstrom), charge = -1, multiplicity = 1:

       Center              X                  Y                   Z               Mass
    ------------   -----------------  -----------------  -----------------  -----------------
         O           -1.513147186856    -0.768663532462    -0.000042770440    15.994914619570
         O           -0.555676186856     1.296429467538     0.000036229560    15.994914619570
         C            0.838283813144    -0.640532532462     0.000004229560    12.000000000000
         C           -0.565906286856    -0.001642532462    -0.000001470440    12.000000000000
         C            1.998538813144     0.030040467538     0.000005229560    12.000000000000
         H            0.834491813144    -1.730188532462    -0.000004770440     1.007825032230
         H            2.961731813144    -0.472796532462     0.000001229560     1.007825032230
         H            1.998092813144     1.115538467538     0.000012229560     1.007825032230

  Basis Set: AUG-CC-PVTZ
    Blend: AUG-CC-PVTZ
  Basis Set: (AUG-CC-PVTZ AUX)
    Blend: AUG-CC-PVTZ-JKFIT
	 Reference Energy          =    -265.1854901021168871 [Eh]
	 Singles Energy            =      -0.0000000000000000 [Eh]
	 Same-Spin Energy          =      -0.2620008487053643 [Eh]
	 Opposite-Spin Energy      =      -0.7960484416396343 [Eh]
	 Correlation Energy        =      -1.0580492903449987 [Eh]
	 Total Energy              =    -266.2435393924619120 [Eh]

	 ================> DF-SCS-MP2 Energies <==================
	-----------------------------------------------------------
	 SCS Same-Spin Scale       =       0.3333333333333333 [-]
	 SCS Opposite-Spin Scale   =       1.2000000000000000 [-]
	 SCS Same-Spin Energy      =      -0.0873336162351214 [Eh]
	 SCS Opposite-Spin Energy  =      -0.9552581299675611 [Eh]
	 SCS Correlation Energy    =      -1.0425917462026826 [Eh]
	 SCS Total Energy          =    -266.2280818483195617 [Eh]
	-----------------------------------------------------------

  Dipole Moment: [D]
     X:     4.1608      Y:    -1.6925      Z:     0.0000     Total:     4.4919

*** Psi4 exiting successfully. Buy a developer a beer!
