                               Psi4 1.3.2 release

  ==> Input File <==

--------------------------------------------------------------------------
#psi4
#
memory 32 gb

molecule  {
-1 1
  O       -1.6021720    -0.7553910    -0.0001730
  O       -0.6117130     1.3130740     0.0001440
  C        0.7486200    -0.6398630     0.0001060
  C       -0.6225811     0.2491486     0.0000539
  C        1.9107360     0.0279630    -0.0001390
  H        0.7354600    -1.7316690     0.0007200
  H        2.8810510    -0.4671120     0.0001950
  H        1.8861710     1.1137650    -0.0007150
units angstrom
no_reorient  #important for SAPT in psi4, default
symmetry c1  #important for SAPT in psi4, default
}

set PROPERTIES_ORIGIN ["COM"]
properties('MP2/aug-cc-pvtz', properties = ['dipole'])
--------------------------------------------------------------------------

    Molecular point group: c1
  Charge       = -1
  Multiplicity = 1
  Basis Set: AUG-CC-PVTZ
    Blend: AUG-CC-PVTZ
  Basis Set: (AUG-CC-PVTZ AUX)
    Blend: AUG-CC-PVTZ-JKFIT

    Orbital Energies [Eh]
    ---------------------

    Doubly Occupied:

       1A    -20.346551     2A    -20.265312     3A    -11.142266
       4A    -11.065695     5A    -11.064024     6A     -1.303832
       7A     -1.015609     8A     -0.866354     9A     -0.631258
      10A     -0.540805    11A     -0.504303    12A     -0.434759
      13A     -0.430658    14A     -0.416529    15A     -0.367415
      16A     -0.213807    17A     -0.211414    18A     -0.179973
      19A     -0.168868

  @DF-RHF Final Energy:  -265.11537552612259

   => Energetics <=

    Nuclear Repulsion Energy =            152.6480141808695237
    One-Electron Energy =                -673.1879138755174381
    Two-Electron Energy =                 255.4245241685253518
    Total Energy =                       -265.1153755261225911
  Basis Set: (AUG-CC-PVTZ AUX)
    Blend: AUG-CC-PVTZ-RI
    Molecular point group: c1

    Geometry (in Angstrom), charge = -1, multiplicity = 1:

       Center              X                  Y                   Z               Mass
    ------------   -----------------  -----------------  -----------------  -----------------
         O           -1.525793888331    -0.804305339603    -0.000172838234    15.994914619570
         O           -0.535334888331     1.264159660397     0.000144161766    15.994914619570
         C            0.824998111669    -0.688777339603     0.000106161766    12.000000000000
         C           -0.546202988331     0.200234260397     0.000054061766    12.000000000000
         C            1.987114111669    -0.020951339603    -0.000138838234    12.000000000000
         H            0.811838111669    -1.780583339603     0.000720161766     1.007825032230
         H            2.957429111669    -0.516026339603     0.000195161766     1.007825032230
         H            1.962549111669     1.064850660397    -0.000714838234     1.007825032230

  Basis Set: AUG-CC-PVTZ
    Blend: AUG-CC-PVTZ
  Basis Set: (AUG-CC-PVTZ AUX)
    Blend: AUG-CC-PVTZ-JKFIT
	 Reference Energy          =    -265.1153755261225911 [Eh]
	 Singles Energy            =      -0.0000000000000000 [Eh]
	 Same-Spin Energy          =      -0.2613846112137899 [Eh]
	 Opposite-Spin Energy      =      -0.7940838107646873 [Eh]
	 Correlation Energy        =      -1.0554684219784771 [Eh]
	 Total Energy              =    -266.1708439481010942 [Eh]

	 ================> DF-SCS-MP2 Energies <==================
	-----------------------------------------------------------
	 SCS Same-Spin Scale       =       0.3333333333333333 [-]
	 SCS Opposite-Spin Scale   =       1.2000000000000000 [-]
	 SCS Same-Spin Energy      =      -0.0871282037379300 [Eh]
	 SCS Opposite-Spin Energy  =      -0.9529005729176246 [Eh]
	 SCS Correlation Energy    =      -1.0400287766555545 [Eh]
	 SCS Total Energy          =    -266.1554043027781518 [Eh]
	-----------------------------------------------------------

  Dipole Moment: [D]
     X:     4.5759      Y:     0.7567      Z:     0.0007     Total:     4.6381

*** Psi4 exiting successfully. Buy a developer a beer!
