                               Psi4 1.3.2 release

  ==> Input File <==

--------------------------------------------------------------------------
#psi4
#
memory 32 gb

molecule  {
-1 1
  O       -1.6021720    -0.7553910    -0.0001730
  O       -0.6117130     1.3130740     0.0001440
  C        0.7486200    -0.6398630     0.0001060
  C       -0.7018360    -0.0143887     0.0000204
  C        1.9107360     0.0279630    -0.0001390
  H        0.7354600    -1.7316690     0.0007200
  H        2.8810510    -0.4671120     0.0001950
  H        1.8861710     1.1137650    -0.0007150
units angstrom
no_reorient  #important for SAPT in psi4, default
symmetry c1  #important for SAPT in psi4, default
}

set PROPERTIES_ORIGIN ["COM"]
properties('MP2/aug-cc-pvtz', properties = ['dipole'])
--------------------------------------------------------------------------

    Molecular point group: c1
  Charge       = -1
  Multiplicity = 1
  Basis Set: AUG-CC-PVTZ
    Blend: AUG-CC-PVTZ
  Basis Set: (AUG-CC-PVTZ AUX)
    Blend: AUG-CC-PVTZ-JKFIT

    Orbital Energies [Eh]
    ---------------------

    Doubly Occupied:

       1A    -20.323000     2A    -20.278128     3A    -11.145068
       4A    -11.071631     5A    -11.069103     6A     -1.215636
       7A     -1.052745     8A     -0.867996     9A     -0.652192
      10A     -0.522298    11A     -0.474499    12A     -0.447056
      13A     -0.401054    14A     -0.382321    15A     -0.358140
      16A     -0.221013    17A     -0.215478    18A     -0.191437
      19A     -0.189300

  @DF-RHF Final Energy:  -265.17344871924621

   => Energetics <=

    Nuclear Repulsion Energy =            151.7634046462383424
    One-Electron Energy =                -671.7175184589045784
    Two-Electron Energy =                 254.7806650934200547
    Total Energy =                       -265.1734487192462097
  Basis Set: (AUG-CC-PVTZ AUX)
    Blend: AUG-CC-PVTZ-RI
    Molecular point group: c1

    Geometry (in Angstrom), charge = -1, multiplicity = 1:

       Center              X                  Y                   Z               Mass
    ------------   -----------------  -----------------  -----------------  -----------------
         O           -1.512401203553    -0.759772168959    -0.000167177323    15.994914619570
         O           -0.521942203553     1.308692831041     0.000149822677    15.994914619570
         C            0.838390796447    -0.644244168959     0.000111822677    12.000000000000
         C           -0.612065203553    -0.018769868959     0.000026222677    12.000000000000
         C            2.000506796447     0.023581831041    -0.000133177323    12.000000000000
         H            0.825230796447    -1.736050168959     0.000725822677     1.007825032230
         H            2.970821796447    -0.471493168959     0.000200822677     1.007825032230
         H            1.975941796447     1.109383831041    -0.000709177323     1.007825032230

  Basis Set: AUG-CC-PVTZ
    Blend: AUG-CC-PVTZ
  Basis Set: (AUG-CC-PVTZ AUX)
    Blend: AUG-CC-PVTZ-JKFIT
	 Reference Energy          =    -265.1734487192462097 [Eh]
	 Singles Energy            =      -0.0000000000000000 [Eh]
	 Same-Spin Energy          =      -0.2616242250423858 [Eh]
	 Opposite-Spin Energy      =      -0.7952096542219451 [Eh]
	 Correlation Energy        =      -1.0568338792643308 [Eh]
	 Total Energy              =    -266.2302825985105414 [Eh]

	 ================> DF-SCS-MP2 Energies <==================
	-----------------------------------------------------------
	 SCS Same-Spin Scale       =       0.3333333333333333 [-]
	 SCS Opposite-Spin Scale   =       1.2000000000000000 [-]
	 SCS Same-Spin Energy      =      -0.0872080750141286 [Eh]
	 SCS Opposite-Spin Energy  =      -0.9542515850663341 [Eh]
	 SCS Correlation Energy    =      -1.0414596600804626 [Eh]
	 SCS Total Energy          =    -266.2149083793266868 [Eh]
	-----------------------------------------------------------

  Dipole Moment: [D]
     X:     3.6143      Y:    -2.0657      Z:     0.0002     Total:     4.1630

*** Psi4 exiting successfully. Buy a developer a beer!
