                               Psi4 1.3.2 release

  ==> Input File <==

--------------------------------------------------------------------------
#psi4
#
memory 32 gb

molecule  {
-1 1
  O       -1.6021720    -0.7553910    -0.0001730
  O       -0.6117130     1.3130740     0.0001440
  C        0.7486200    -0.6398630     0.0001060
  C       -0.4702000     0.1762544     0.0000702
  C        1.9107360     0.0279630    -0.0001390
  H        0.7354600    -1.7316690     0.0007200
  H        2.8810510    -0.4671120     0.0001950
  H        1.8861710     1.1137650    -0.0007150
units angstrom
no_reorient  #important for SAPT in psi4, default
symmetry c1  #important for SAPT in psi4, default
}

set PROPERTIES_ORIGIN ["COM"]
properties('MP2/aug-cc-pvtz', properties = ['dipole'])
--------------------------------------------------------------------------

    Molecular point group: c1
  Charge       = -1
  Multiplicity = 1
  Basis Set: AUG-CC-PVTZ
    Blend: AUG-CC-PVTZ
  Basis Set: (AUG-CC-PVTZ AUX)
    Blend: AUG-CC-PVTZ-JKFIT

    Orbital Energies [Eh]
    ---------------------

    Doubly Occupied:

       1A    -20.332727     2A    -20.257508     3A    -11.141862
       4A    -11.087077     5A    -11.082457     6A     -1.231166
       7A     -0.982603     8A     -0.897634     9A     -0.674926
      10A     -0.552005    11A     -0.486793    12A     -0.455334
      13A     -0.387428    14A     -0.386633    15A     -0.375325
      16A     -0.227744    17A     -0.200113    18A     -0.173960
      19A     -0.159906

  @DF-RHF Final Energy:  -265.13459085818789

   => Energetics <=

    Nuclear Repulsion Energy =            152.1770534255437042
    One-Electron Energy =                -672.4368868630770066
    Two-Electron Energy =                 255.1252425793454393
    Total Energy =                       -265.1345908581878348
  Basis Set: (AUG-CC-PVTZ AUX)
    Blend: AUG-CC-PVTZ-RI
    Molecular point group: c1

    Geometry (in Angstrom), charge = -1, multiplicity = 1:

       Center              X                  Y                   Z               Mass
    ------------   -----------------  -----------------  -----------------  -----------------
         O           -1.551543615331    -0.791987501302    -0.000175592648    15.994914619570
         O           -0.561084615331     1.276477498698     0.000141407352    15.994914619570
         C            0.799248384669    -0.676459501302     0.000103407352    12.000000000000
         C           -0.419571615331     0.139657898698     0.000067607352    12.000000000000
         C            1.961364384669    -0.008633501302    -0.000141592648    12.000000000000
         H            0.786088384669    -1.768265501302     0.000717407352     1.007825032230
         H            2.931679384669    -0.503708501302     0.000192407352     1.007825032230
         H            1.936799384669     1.077168498698    -0.000717592648     1.007825032230

  Basis Set: AUG-CC-PVTZ
    Blend: AUG-CC-PVTZ
  Basis Set: (AUG-CC-PVTZ AUX)
    Blend: AUG-CC-PVTZ-JKFIT
	 Reference Energy          =    -265.1345908581878916 [Eh]
	 Singles Energy            =      -0.0000000000000000 [Eh]
	 Same-Spin Energy          =      -0.2648787150071015 [Eh]
	 Opposite-Spin Energy      =      -0.8019080246460270 [Eh]
	 Correlation Energy        =      -1.0667867396531285 [Eh]
	 Total Energy              =    -266.2013775978410308 [Eh]

	 ================> DF-SCS-MP2 Energies <==================
	-----------------------------------------------------------
	 SCS Same-Spin Scale       =       0.3333333333333333 [-]
	 SCS Opposite-Spin Scale   =       1.2000000000000000 [-]
	 SCS Same-Spin Energy      =      -0.0882929050023672 [Eh]
	 SCS Opposite-Spin Energy  =      -0.9622896295752323 [Eh]
	 SCS Correlation Energy    =      -1.0505825345775994 [Eh]
	 SCS Total Energy          =    -266.1851733927654777 [Eh]
	-----------------------------------------------------------

  Dipole Moment: [D]
     X:     5.6398      Y:     0.1441      Z:     0.0007     Total:     5.6417

*** Psi4 exiting successfully. Buy a developer a beer!
