                               Psi4 1.3.2 release

  ==> Input File <==

--------------------------------------------------------------------------
#psi4
#
memory 32 gb

molecule  {
-1 1
  O       -1.6021720    -0.7553910    -0.0001730
  O       -0.6117130     1.3130740     0.0001440
  C        0.7486200    -0.6398630     0.0001060
  C       -0.8033843     0.1388516     0.0000280
  C        1.9107360     0.0279630    -0.0001390
  H        0.7354600    -1.7316690     0.0007200
  H        2.8810510    -0.4671120     0.0001950
  H        1.8861710     1.1137650    -0.0007150
units angstrom
no_reorient  #important for SAPT in psi4, default
symmetry c1  #important for SAPT in psi4, default
}

set PROPERTIES_ORIGIN ["COM"]
properties('MP2/aug-cc-pvtz', properties = ['dipole'])
--------------------------------------------------------------------------

    Molecular point group: c1
  Charge       = -1
  Multiplicity = 1
  Basis Set: AUG-CC-PVTZ
    Blend: AUG-CC-PVTZ
  Basis Set: (AUG-CC-PVTZ AUX)
    Blend: AUG-CC-PVTZ-JKFIT

    Orbital Energies [Eh]
    ---------------------

    Doubly Occupied:

       1A    -20.319048     2A    -20.318274     3A    -11.160065
       4A    -11.049001     5A    -11.043464     6A     -1.219644
       7A     -1.142248     8A     -0.842734     9A     -0.610968
      10A     -0.517193    11A     -0.470474    12A     -0.445025
      13A     -0.421854    14A     -0.404898    15A     -0.351963
      16A     -0.253869    17A     -0.233640    18A     -0.190214
      19A     -0.164641

  @DF-RHF Final Energy:  -265.16357688766692

   => Energetics <=

    Nuclear Repulsion Energy =            151.9047911201666068
    One-Electron Energy =                -671.8183033192898392
    Two-Electron Energy =                 254.7499353114563405
    Total Energy =                       -265.1635768876669204
  Basis Set: (AUG-CC-PVTZ AUX)
    Blend: AUG-CC-PVTZ-RI
    Molecular point group: c1

    Geometry (in Angstrom), charge = -1, multiplicity = 1:

       Center              X                  Y                   Z               Mass
    ------------   -----------------  -----------------  -----------------  -----------------
         O           -1.495241326099    -0.785667085654    -0.000168461590    15.994914619570
         O           -0.504782326099     1.282797914346     0.000148538410    15.994914619570
         C            0.855550673901    -0.670139085654     0.000110538410    12.000000000000
         C           -0.696453626099     0.108575514346     0.000032538410    12.000000000000
         C            2.017666673901    -0.002313085654    -0.000134461590    12.000000000000
         H            0.842390673901    -1.761945085654     0.000724538410     1.007825032230
         H            2.987981673901    -0.497388085654     0.000199538410     1.007825032230
         H            1.993101673901     1.083488914346    -0.000710461590     1.007825032230

  Basis Set: AUG-CC-PVTZ
    Blend: AUG-CC-PVTZ
  Basis Set: (AUG-CC-PVTZ AUX)
    Blend: AUG-CC-PVTZ-JKFIT
	 Reference Energy          =    -265.1635768876669204 [Eh]
	 Singles Energy            =      -0.0000000000000000 [Eh]
	 Same-Spin Energy          =      -0.2613249581727797 [Eh]
	 Opposite-Spin Energy      =      -0.7928218731872225 [Eh]
	 Correlation Energy        =      -1.0541468313600022 [Eh]
	 Total Energy              =    -266.2177237190269352 [Eh]

	 ================> DF-SCS-MP2 Energies <==================
	-----------------------------------------------------------
	 SCS Same-Spin Scale       =       0.3333333333333333 [-]
	 SCS Opposite-Spin Scale   =       1.2000000000000000 [-]
	 SCS Same-Spin Energy      =      -0.0871083193909266 [Eh]
	 SCS Opposite-Spin Energy  =      -0.9513862478246670 [Eh]
	 SCS Correlation Energy    =      -1.0384945672155936 [Eh]
	 SCS Total Energy          =    -266.2020714548825140 [Eh]
	-----------------------------------------------------------

  Dipole Moment: [D]
     X:     2.5781      Y:    -0.6224      Z:     0.0003     Total:     2.6522

*** Psi4 exiting successfully. Buy a developer a beer!
