                               Psi4 1.3.2 release

  ==> Input File <==

--------------------------------------------------------------------------
#psi4
#
memory 32 gb

molecule  {
-1 1
  O       -1.5127185    -0.8531652    -0.0001751
  O       -0.6117130     1.3130740     0.0001440
  C        0.7486200    -0.6398630     0.0001060
  C       -0.6246240     0.0491590     0.0000370
  C        1.9107360     0.0279630    -0.0001390
  H        0.7354600    -1.7316690     0.0007200
  H        2.8810510    -0.4671120     0.0001950
  H        1.8861710     1.1137650    -0.0007150
units angstrom
no_reorient  #important for SAPT in psi4, default
symmetry c1  #important for SAPT in psi4, default
}

set PROPERTIES_ORIGIN ["COM"]
properties('MP2/aug-cc-pvtz', properties = ['dipole'])
--------------------------------------------------------------------------

    Molecular point group: c1
  Charge       = -1
  Multiplicity = 1
  Basis Set: AUG-CC-PVTZ
    Blend: AUG-CC-PVTZ
  Basis Set: (AUG-CC-PVTZ AUX)
    Blend: AUG-CC-PVTZ-JKFIT

    Orbital Energies [Eh]
    ---------------------

    Doubly Occupied:

       1A    -20.303921     2A    -20.303828     3A    -11.148921
       4A    -11.070641     5A    -11.066701     6A     -1.167969
       7A     -1.080056     8A     -0.872290     9A     -0.654508
      10A     -0.527074    11A     -0.468086    12A     -0.441956
      13A     -0.395669    14A     -0.366029    15A     -0.356431
      16A     -0.225834    17A     -0.206819    18A     -0.203687
      19A     -0.203597

  @DF-RHF Final Energy:  -265.18295515704301

   => Energetics <=

    Nuclear Repulsion Energy =            151.9602408855318743
    One-Electron Energy =                -672.1583584676002374
    Two-Electron Energy =                 255.0151624250253235
    Total Energy =                       -265.1829551570430112
  Basis Set: (AUG-CC-PVTZ AUX)
    Blend: AUG-CC-PVTZ-RI
    Molecular point group: c1

    Geometry (in Angstrom), charge = -1, multiplicity = 1:

       Center              X                  Y                   Z               Mass
    ------------   -----------------  -----------------  -----------------  -----------------
         O           -1.456143526744    -0.846262320308    -0.000171609431    15.994914619570
         O           -0.555138026744     1.319976879692     0.000147490569    15.994914619570
         C            0.805194973256    -0.632960120308     0.000109490569    12.000000000000
         C           -0.568049026744     0.056061879692     0.000040490569    12.000000000000
         C            1.967310973256     0.034865879692    -0.000135509431    12.000000000000
         H            0.792034973256    -1.724766120308     0.000723490569     1.007825032230
         H            2.937625973256    -0.460209120308     0.000198490569     1.007825032230
         H            1.942745973256     1.120667879692    -0.000711509431     1.007825032230

  Basis Set: AUG-CC-PVTZ
    Blend: AUG-CC-PVTZ
  Basis Set: (AUG-CC-PVTZ AUX)
    Blend: AUG-CC-PVTZ-JKFIT
	 Reference Energy          =    -265.1829551570430112 [Eh]
	 Singles Energy            =      -0.0000000000000000 [Eh]
	 Same-Spin Energy          =      -0.2628710648740146 [Eh]
	 Opposite-Spin Energy      =      -0.7973895364015366 [Eh]
	 Correlation Energy        =      -1.0602606012755511 [Eh]
	 Total Energy              =    -266.2432157583185699 [Eh]

	 ================> DF-SCS-MP2 Energies <==================
	-----------------------------------------------------------
	 SCS Same-Spin Scale       =       0.3333333333333333 [-]
	 SCS Opposite-Spin Scale   =       1.2000000000000000 [-]
	 SCS Same-Spin Energy      =      -0.0876236882913382 [Eh]
	 SCS Opposite-Spin Energy  =      -0.9568674436818440 [Eh]
	 SCS Correlation Energy    =      -1.0444911319731822 [Eh]
	 SCS Total Energy          =    -266.2274462890161999 [Eh]
	-----------------------------------------------------------

  Dipole Moment: [D]
     X:     4.0329      Y:    -1.1424      Z:     0.0004     Total:     4.1916

*** Psi4 exiting successfully. Buy a developer a beer!
