                               Psi4 1.3.2 release

  ==> Input File <==

--------------------------------------------------------------------------
#psi4
#
memory 32 gb

molecule  {
-1 1
  O       -1.6021720    -0.7553910    -0.0001730
  O       -0.6117130     1.3130740     0.0001440
  C        0.7486200    -0.6398630     0.0001060
  C       -0.6266669    -0.1508306     0.0000201
  C        1.9107360     0.0279630    -0.0001390
  H        0.7354600    -1.7316690     0.0007200
  H        2.8810510    -0.4671120     0.0001950
  H        1.8861710     1.1137650    -0.0007150
units angstrom
no_reorient  #important for SAPT in psi4, default
symmetry c1  #important for SAPT in psi4, default
}

set PROPERTIES_ORIGIN ["COM"]
properties('MP2/aug-cc-pvtz', properties = ['dipole'])
--------------------------------------------------------------------------

    Molecular point group: c1
  Charge       = -1
  Multiplicity = 1
  Basis Set: AUG-CC-PVTZ
    Blend: AUG-CC-PVTZ
  Basis Set: (AUG-CC-PVTZ AUX)
    Blend: AUG-CC-PVTZ-JKFIT

    Orbital Energies [Eh]
    ---------------------

    Doubly Occupied:

       1A    -20.336505     2A    -20.252157     3A    -11.141060
       4A    -11.088901     5A    -11.079769     6A     -1.231641
       7A     -0.981890     8A     -0.885188     9A     -0.693556
      10A     -0.532331    11A     -0.487473    12A     -0.462870
      13A     -0.393571    14A     -0.384846    15A     -0.360262
      16A     -0.226243    17A     -0.199212    18A     -0.171075
      19A     -0.158361

  @DF-RHF Final Energy:  -265.13420788922065

   => Energetics <=

    Nuclear Repulsion Energy =            151.6917525093400059
    One-Electron Energy =                -671.5181010133254631
    Two-Electron Energy =                 254.6921406147647815
    Total Energy =                       -265.1342078892206473
  Basis Set: (AUG-CC-PVTZ AUX)
    Blend: AUG-CC-PVTZ-RI
    Molecular point group: c1

    Geometry (in Angstrom), charge = -1, multiplicity = 1:

       Center              X                  Y                   Z               Mass
    ------------   -----------------  -----------------  -----------------  -----------------
         O           -1.525103459960    -0.736715886544    -0.000167126629    15.994914619570
         O           -0.534644459960     1.331749113456     0.000149873371    15.994914619570
         C            0.825688540040    -0.621187886544     0.000111873371    12.000000000000
         C           -0.549598359960    -0.132155486544     0.000025973371    12.000000000000
         C            1.987804540040     0.046638113456    -0.000133126629    12.000000000000
         H            0.812528540040    -1.712993886544     0.000725873371     1.007825032230
         H            2.958119540040    -0.448436886544     0.000200873371     1.007825032230
         H            1.963239540040     1.132440113456    -0.000709126629     1.007825032230

  Basis Set: AUG-CC-PVTZ
    Blend: AUG-CC-PVTZ
  Basis Set: (AUG-CC-PVTZ AUX)
    Blend: AUG-CC-PVTZ-JKFIT
	 Reference Energy          =    -265.1342078892206473 [Eh]
	 Singles Energy            =      -0.0000000000000000 [Eh]
	 Same-Spin Energy          =      -0.2640369966916246 [Eh]
	 Opposite-Spin Energy      =      -0.8012506405291615 [Eh]
	 Correlation Energy        =      -1.0652876372207860 [Eh]
	 Total Energy              =    -266.1994955264414102 [Eh]

	 ================> DF-SCS-MP2 Energies <==================
	-----------------------------------------------------------
	 SCS Same-Spin Scale       =       0.3333333333333333 [-]
	 SCS Opposite-Spin Scale   =       1.2000000000000000 [-]
	 SCS Same-Spin Energy      =      -0.0880123322305415 [Eh]
	 SCS Opposite-Spin Energy  =      -0.9615007686349938 [Eh]
	 SCS Correlation Energy    =      -1.0495131008655354 [Eh]
	 SCS Total Energy          =    -266.1837209900861581 [Eh]
	-----------------------------------------------------------

  Dipole Moment: [D]
     X:     4.1266      Y:    -3.1429      Z:     0.0001     Total:     5.1872

*** Psi4 exiting successfully. Buy a developer a beer!
