                               Psi4 1.4a3.dev225

  ==> Input File <==

--------------------------------------------------------------------------
#psi4
#
memory 32 gb

molecule  {
-1 1
  O       -1.5969950    -0.7592220    -0.0000430
  O       -0.6395240     1.3058710     0.0000360
  C        0.7544360    -0.6310910     0.0000040
  C       -0.6557781     0.0613003    -0.0000001
  C        1.9146910     0.0394820     0.0000050
  H        0.7506440    -1.7207470    -0.0000050
  H        2.8778840    -0.4633550     0.0000010
  H        1.9142450     1.1249800     0.0000120
units angstrom
no_reorient  #important for SAPT in psi4, default
symmetry c1  #important for SAPT in psi4, default
}

set PROPERTIES_ORIGIN ["COM"]
properties('MP2/aug-cc-pvtz', properties = ['dipole'])
--------------------------------------------------------------------------

    Molecular point group: c1
  Charge       = -1
  Multiplicity = 1
  Basis Set: AUG-CC-PVTZ
    Blend: AUG-CC-PVTZ
  Basis Set: (AUG-CC-PVTZ AUX)
    Blend: AUG-CC-PVTZ-JKFIT

    Orbital Energies [Eh]
    ---------------------

    Doubly Occupied:

       1A    -20.299530     2A    -20.297166     3A    -11.144459
       4A    -11.073407     5A    -11.071287     6A     -1.177139
       7A     -1.080921     8A     -0.873209     9A     -0.652065
      10A     -0.525054    11A     -0.469476    12A     -0.442287
      13A     -0.398065    14A     -0.369343    15A     -0.361435
      16A     -0.220365    17A     -0.210729    18A     -0.204326
      19A     -0.200484

  @DF-RHF Final Energy:  -265.18920333696190

   => Energetics <=

    Nuclear Repulsion Energy =            151.8130903663676463
    One-Electron Energy =                -671.8630935030392948
    Two-Electron Energy =                 254.8607997997097527
    Total Energy =                       -265.1892033369618957
  Basis Set: (AUG-CC-PVTZ AUX)
    Blend: AUG-CC-PVTZ-RI
    Molecular point group: c1

    Geometry (in Angstrom), charge = -1, multiplicity = 1:

       Center              X                  Y                   Z               Mass
    ------------   -----------------  -----------------  -----------------  -----------------
         O           -1.512129236760    -0.777704311594    -0.000043040812    15.994914619570
         O           -0.554658236760     1.287388688406     0.000035959188    15.994914619570
         C            0.839301763240    -0.649573311594     0.000003959188    12.000000000000
         C           -0.570912336760     0.042817988406    -0.000000140812    12.000000000000
         C            1.999556763240     0.020999688406     0.000004959188    12.000000000000
         H            0.835509763240    -1.739229311594    -0.000005040812     1.007825032230
         H            2.962749763240    -0.481837311594     0.000000959188     1.007825032230
         H            1.999110763240     1.106497688406     0.000011959188     1.007825032230

  Basis Set: AUG-CC-PVTZ
    Blend: AUG-CC-PVTZ
  Basis Set: (AUG-CC-PVTZ AUX)
    Blend: AUG-CC-PVTZ-JKFIT
	 Reference Energy          =    -265.1892033369618957 [Eh]
	 Singles Energy            =      -0.0000000000000000 [Eh]
	 Same-Spin Energy          =      -0.2616607762675364 [Eh]
	 Opposite-Spin Energy      =      -0.7950377777840356 [Eh]
	 Correlation Energy        =      -1.0566985540515721 [Eh]
	 Total Energy              =    -266.2459018910134887 [Eh]

	 ================> DF-SCS-MP2 Energies <==================
	-----------------------------------------------------------
	 SCS Same-Spin Scale       =       0.3333333333333333 [-]
	 SCS Opposite-Spin Scale   =       1.2000000000000000 [-]
	 SCS Same-Spin Energy      =      -0.0872202587558455 [Eh]
	 SCS Opposite-Spin Energy  =      -0.9540453333408427 [Eh]
	 SCS Correlation Energy    =      -1.0412655920966882 [Eh]
	 SCS Total Energy          =    -266.2304689290585884 [Eh]
	-----------------------------------------------------------

  Dipole Moment: [D]
     X:     4.1560      Y:    -1.1838      Z:     0.0000     Total:     4.3213

*** Psi4 exiting successfully. Buy a developer a beer!
