                               Psi4 1.3.2 release

  ==> Input File <==

--------------------------------------------------------------------------
#psi4
#
memory 32 gb

molecule  {
-1 1
  O       -1.6021720    -0.7553910    -0.0001730
  O       -0.6117130     1.3130740     0.0001440
  C        0.7486200    -0.6398630     0.0001060
  C       -0.6123898     0.0730205     0.0000208
  C        1.9107360     0.0279630    -0.0001390
  H        0.7354600    -1.7316690     0.0007200
  H        2.8810510    -0.4671120     0.0001950
  H        1.8861710     1.1137650    -0.0007150
units angstrom
no_reorient  #important for SAPT in psi4, default
symmetry c1  #important for SAPT in psi4, default
}

set PROPERTIES_ORIGIN ["COM"]
properties('MP2/aug-cc-pvtz', properties = ['dipole'])
--------------------------------------------------------------------------

    Molecular point group: c1
  Charge       = -1
  Multiplicity = 1
  Basis Set: AUG-CC-PVTZ
    Blend: AUG-CC-PVTZ
  Basis Set: (AUG-CC-PVTZ AUX)
    Blend: AUG-CC-PVTZ-JKFIT

    Orbital Energies [Eh]
    ---------------------

    Doubly Occupied:

       1A    -20.302477     2A    -20.293799     3A    -11.145649
       4A    -11.077126     5A    -11.074305     6A     -1.169551
       7A     -1.066030     8A     -0.879090     9A     -0.659235
      10A     -0.529944    11A     -0.470853    12A     -0.442574
      13A     -0.389917    14A     -0.363711    15A     -0.361822
      16A     -0.216620    17A     -0.212426    18A     -0.208379
      19A     -0.195709

  @DF-RHF Final Energy:  -265.18622867427661

   => Energetics <=

    Nuclear Repulsion Energy =            151.7086128226628148
    One-Electron Energy =                -671.6712473143969646
    Two-Electron Energy =                 254.7764058174576007
    Total Energy =                       -265.1862286742766059
  Basis Set: (AUG-CC-PVTZ AUX)
    Blend: AUG-CC-PVTZ-RI
    Molecular point group: c1

    Geometry (in Angstrom), charge = -1, multiplicity = 1:

       Center              X                  Y                   Z               Mass
    ------------   -----------------  -----------------  -----------------  -----------------
         O           -1.527516038865    -0.774542787082    -0.000167244916    15.994914619570
         O           -0.537057038865     1.293922212918     0.000149755084    15.994914619570
         C            0.823275961135    -0.659014787082     0.000111755084    12.000000000000
         C           -0.537733838865     0.053868712918     0.000026555084    12.000000000000
         C            1.985391961135     0.008811212918    -0.000133244916    12.000000000000
         H            0.810115961135    -1.750820787082     0.000725755084     1.007825032230
         H            2.955706961135    -0.486263787082     0.000200755084     1.007825032230
         H            1.960826961135     1.094613212918    -0.000709244916     1.007825032230

  Basis Set: AUG-CC-PVTZ
    Blend: AUG-CC-PVTZ
  Basis Set: (AUG-CC-PVTZ AUX)
    Blend: AUG-CC-PVTZ-JKFIT
	 Reference Energy          =    -265.1862286742766059 [Eh]
	 Singles Energy            =      -0.0000000000000000 [Eh]
	 Same-Spin Energy          =      -0.2625649315300240 [Eh]
	 Opposite-Spin Energy      =      -0.7970237633625574 [Eh]
	 Correlation Energy        =      -1.0595886948925815 [Eh]
	 Total Energy              =    -266.2458173691691741 [Eh]

	 ================> DF-SCS-MP2 Energies <==================
	-----------------------------------------------------------
	 SCS Same-Spin Scale       =       0.3333333333333333 [-]
	 SCS Opposite-Spin Scale   =       1.2000000000000000 [-]
	 SCS Same-Spin Energy      =      -0.0875216438433413 [Eh]
	 SCS Opposite-Spin Energy  =      -0.9564285160350688 [Eh]
	 SCS Correlation Energy    =      -1.0439501598784102 [Eh]
	 SCS Total Energy          =    -266.2301788341550264 [Eh]
	-----------------------------------------------------------

  Dipole Moment: [D]
     X:     4.4562      Y:    -1.0482      Z:     0.0004     Total:     4.5778

*** Psi4 exiting successfully. Buy a developer a beer!
