                               Psi4 1.3.2 release

  ==> Input File <==

--------------------------------------------------------------------------
#psi4
#
memory 32 gb

molecule  {
-1 1
  O       -1.6021720    -0.7553910    -0.0001730
  O       -0.6117130     1.3130740     0.0001440
  C        0.7486200    -0.6398630     0.0001060
  C       -0.5352439     0.0043127     0.0000415
  C        1.9107360     0.0279630    -0.0001390
  H        0.7354600    -1.7316690     0.0007200
  H        2.8810510    -0.4671120     0.0001950
  H        1.8861710     1.1137650    -0.0007150
units angstrom
no_reorient  #important for SAPT in psi4, default
symmetry c1  #important for SAPT in psi4, default
}

set PROPERTIES_ORIGIN ["COM"]
properties('MP2/aug-cc-pvtz', properties = ['dipole'])
--------------------------------------------------------------------------

    Molecular point group: c1
  Charge       = -1
  Multiplicity = 1
  Basis Set: AUG-CC-PVTZ
    Blend: AUG-CC-PVTZ
  Basis Set: (AUG-CC-PVTZ AUX)
    Blend: AUG-CC-PVTZ-JKFIT

    Orbital Energies [Eh]
    ---------------------

    Doubly Occupied:

       1A    -20.297055     2A    -20.290884     3A    -11.145190
       4A    -11.089975     5A    -11.079828     6A     -1.140044
       7A     -1.036015     8A     -0.896790     9A     -0.690457
      10A     -0.540588    11A     -0.478263    12A     -0.438301
      13A     -0.380749    14A     -0.352869    15A     -0.349509
      16A     -0.221212    17A     -0.216252    18A     -0.199489
      19A     -0.181717

  @DF-RHF Final Energy:  -265.16981704869096

   => Energetics <=

    Nuclear Repulsion Energy =            151.5238548413915964
    One-Electron Energy =                -671.3369693031248744
    Two-Electron Energy =                 254.6432974130422622
    Total Energy =                       -265.1698170486909589
  Basis Set: (AUG-CC-PVTZ AUX)
    Blend: AUG-CC-PVTZ-RI
    Molecular point group: c1

    Geometry (in Angstrom), charge = -1, multiplicity = 1:

       Center              X                  Y                   Z               Mass
    ------------   -----------------  -----------------  -----------------  -----------------
         O           -1.540552339720    -0.762932376783    -0.000170742852    15.994914619570
         O           -0.550093339720     1.305532623217     0.000146257148    15.994914619570
         C            0.810239660280    -0.647404376783     0.000108257148    12.000000000000
         C           -0.473624239720    -0.003228676783     0.000043757148    12.000000000000
         C            1.972355660280     0.020421623217    -0.000136742852    12.000000000000
         H            0.797079660280    -1.739210376783     0.000722257148     1.007825032230
         H            2.942670660280    -0.474653376783     0.000197257148     1.007825032230
         H            1.947790660280     1.106223623217    -0.000712742852     1.007825032230

  Basis Set: AUG-CC-PVTZ
    Blend: AUG-CC-PVTZ
  Basis Set: (AUG-CC-PVTZ AUX)
    Blend: AUG-CC-PVTZ-JKFIT
	 Reference Energy          =    -265.1698170486909589 [Eh]
	 Singles Energy            =      -0.0000000000000000 [Eh]
	 Same-Spin Energy          =      -0.2649558080892705 [Eh]
	 Opposite-Spin Energy      =      -0.8023520867140642 [Eh]
	 Correlation Energy        =      -1.0673078948033348 [Eh]
	 Total Energy              =    -266.2371249434942797 [Eh]

	 ================> DF-SCS-MP2 Energies <==================
	-----------------------------------------------------------
	 SCS Same-Spin Scale       =       0.3333333333333333 [-]
	 SCS Opposite-Spin Scale   =       1.2000000000000000 [-]
	 SCS Same-Spin Energy      =      -0.0883186026964235 [Eh]
	 SCS Opposite-Spin Energy  =      -0.9628225040568770 [Eh]
	 SCS Correlation Energy    =      -1.0511411067533005 [Eh]
	 SCS Total Energy          =    -266.2209581554442366 [Eh]
	-----------------------------------------------------------

  Dipole Moment: [D]
     X:     4.9065      Y:    -1.5360      Z:     0.0004     Total:     5.1413

*** Psi4 exiting successfully. Buy a developer a beer!
