                               Psi4 1.3.2 release

  ==> Input File <==

--------------------------------------------------------------------------
#psi4
#
memory 32 gb

molecule  {
-1 1
  O       -1.5436682    -0.8216215    -0.0001699
  O       -0.6117130     1.3130740     0.0001440
  C        0.7486200    -0.6398630     0.0001060
  C       -0.6246240     0.0491590     0.0000370
  C        1.9107360     0.0279630    -0.0001390
  H        0.7354600    -1.7316690     0.0007200
  H        2.8810510    -0.4671120     0.0001950
  H        1.8861710     1.1137650    -0.0007150
units angstrom
no_reorient  #important for SAPT in psi4, default
symmetry c1  #important for SAPT in psi4, default
}

set PROPERTIES_ORIGIN ["COM"]
properties('MP2/aug-cc-pvtz', properties = ['dipole'])
--------------------------------------------------------------------------

    Molecular point group: c1
  Charge       = -1
  Multiplicity = 1
  Basis Set: AUG-CC-PVTZ
    Blend: AUG-CC-PVTZ
  Basis Set: (AUG-CC-PVTZ AUX)
    Blend: AUG-CC-PVTZ-JKFIT

    Orbital Energies [Eh]
    ---------------------

    Doubly Occupied:

       1A    -20.302572     2A    -20.301408     3A    -11.147853
       4A    -11.072869     5A    -11.069205     6A     -1.167207
       7A     -1.076527     8A     -0.874342     9A     -0.656461
      10A     -0.527412    11A     -0.469151    12A     -0.441693
      13A     -0.394400    14A     -0.364860    15A     -0.357701
      16A     -0.222835    17A     -0.208696    18A     -0.205792
      19A     -0.201246

  @DF-RHF Final Energy:  -265.18519448116001

   => Energetics <=

    Nuclear Repulsion Energy =            151.8450854945710944
    One-Electron Energy =                -671.9360960099326121
    Two-Electron Energy =                 254.9058160342015071
    Total Energy =                       -265.1851944811600106
  Basis Set: (AUG-CC-PVTZ AUX)
    Blend: AUG-CC-PVTZ-RI
    Molecular point group: c1

    Geometry (in Angstrom), charge = -1, multiplicity = 1:

       Center              X                  Y                   Z               Mass
    ------------   -----------------  -----------------  -----------------  -----------------
         O           -1.480122169509    -0.821823469082    -0.000167580670    15.994914619570
         O           -0.548166969509     1.312872030918     0.000146319330    15.994914619570
         C            0.812166030491    -0.640064969082     0.000108319330    12.000000000000
         C           -0.561077969509     0.048957030918     0.000039319330    12.000000000000
         C            1.974282030491     0.027761030918    -0.000136680670    12.000000000000
         H            0.799006030491    -1.731870969082     0.000722319330     1.007825032230
         H            2.944597030491    -0.467313969082     0.000197319330     1.007825032230
         H            1.949717030491     1.113563030918    -0.000712680670     1.007825032230

  Basis Set: AUG-CC-PVTZ
    Blend: AUG-CC-PVTZ
  Basis Set: (AUG-CC-PVTZ AUX)
    Blend: AUG-CC-PVTZ-JKFIT
	 Reference Energy          =    -265.1851944811600106 [Eh]
	 Singles Energy            =      -0.0000000000000000 [Eh]
	 Same-Spin Energy          =      -0.2627166960463366 [Eh]
	 Opposite-Spin Energy      =      -0.7971917168955163 [Eh]
	 Correlation Energy        =      -1.0599084129418528 [Eh]
	 Total Energy              =    -266.2451028941018762 [Eh]

	 ================> DF-SCS-MP2 Energies <==================
	-----------------------------------------------------------
	 SCS Same-Spin Scale       =       0.3333333333333333 [-]
	 SCS Opposite-Spin Scale   =       1.2000000000000000 [-]
	 SCS Same-Spin Energy      =      -0.0875722320154455 [Eh]
	 SCS Opposite-Spin Energy  =      -0.9566300602746195 [Eh]
	 SCS Correlation Energy    =      -1.0442022922900651 [Eh]
	 SCS Total Energy          =    -266.2293967734500484 [Eh]
	-----------------------------------------------------------

  Dipole Moment: [D]
     X:     4.1363      Y:    -1.1916      Z:     0.0004     Total:     4.3045

*** Psi4 exiting successfully. Buy a developer a beer!
