                               Psi4 1.4a3.dev225

  ==> Input File <==

--------------------------------------------------------------------------
#psi4
#
memory 32 gb

molecule  {
-1 1
  O       -1.5969950    -0.7592220    -0.0000430
  O       -0.6395240     1.3058710     0.0000360
  C        0.7544360    -0.6310910     0.0000040
  C       -0.5720379     0.0707290     0.0000017
  C        1.9146910     0.0394820     0.0000050
  H        0.7506440    -1.7207470    -0.0000050
  H        2.8778840    -0.4633550     0.0000010
  H        1.9142450     1.1249800     0.0000120
units angstrom
no_reorient  #important for SAPT in psi4, default
symmetry c1  #important for SAPT in psi4, default
}

set PROPERTIES_ORIGIN ["COM"]
properties('MP2/aug-cc-pvtz', properties = ['dipole'])
--------------------------------------------------------------------------

    Molecular point group: c1
  Charge       = -1
  Multiplicity = 1
  Basis Set: AUG-CC-PVTZ
    Blend: AUG-CC-PVTZ
  Basis Set: (AUG-CC-PVTZ AUX)
    Blend: AUG-CC-PVTZ-JKFIT

    Orbital Energies [Eh]
    ---------------------

    Doubly Occupied:

       1A    -20.302866     2A    -20.286489     3A    -11.143232
       4A    -11.082358     5A    -11.078131     6A     -1.166725
       7A     -1.048796     8A     -0.887303     9A     -0.670330
      10A     -0.536534    11A     -0.471913    12A     -0.444714
      13A     -0.382738    14A     -0.364935    15A     -0.360258
      16A     -0.216330    17A     -0.215955    18A     -0.204273
      19A     -0.187432

  @DF-RHF Final Energy:  -265.18170523410362

   => Energetics <=

    Nuclear Repulsion Energy =            151.7570100126811781
    One-Electron Energy =                -671.7748070575842121
    Two-Electron Energy =                 254.8360918107994735
    Total Energy =                       -265.1817052341036174
  Basis Set: (AUG-CC-PVTZ AUX)
    Blend: AUG-CC-PVTZ-RI
    Molecular point group: c1

    Geometry (in Angstrom), charge = -1, multiplicity = 1:

       Center              X                  Y                   Z               Mass
    ------------   -----------------  -----------------  -----------------  -----------------
         O           -1.526279858385    -0.779297596135    -0.000043344980    15.994914619570
         O           -0.568808858385     1.285795403865     0.000035655020    15.994914619570
         C            0.825151141615    -0.651166596135     0.000003655020    12.000000000000
         C           -0.501322758385     0.050653403865     0.000001355020    12.000000000000
         C            1.985406141615     0.019406403865     0.000004655020    12.000000000000
         H            0.821359141615    -1.740822596135    -0.000005344980     1.007825032230
         H            2.948599141615    -0.483430596135     0.000000655020     1.007825032230
         H            1.984960141615     1.104904403865     0.000011655020     1.007825032230

  Basis Set: AUG-CC-PVTZ
    Blend: AUG-CC-PVTZ
  Basis Set: (AUG-CC-PVTZ AUX)
    Blend: AUG-CC-PVTZ-JKFIT
	 Reference Energy          =    -265.1817052341036174 [Eh]
	 Singles Energy            =      -0.0000000000000000 [Eh]
	 Same-Spin Energy          =      -0.2631026275347613 [Eh]
	 Opposite-Spin Energy      =      -0.7982869049003747 [Eh]
	 Correlation Energy        =      -1.0613895324351361 [Eh]
	 Total Energy              =    -266.2430947665387748 [Eh]

	 ================> DF-SCS-MP2 Energies <==================
	-----------------------------------------------------------
	 SCS Same-Spin Scale       =       0.3333333333333333 [-]
	 SCS Opposite-Spin Scale   =       1.2000000000000000 [-]
	 SCS Same-Spin Energy      =      -0.0877008758449204 [Eh]
	 SCS Opposite-Spin Energy  =      -0.9579442858804496 [Eh]
	 SCS Correlation Energy    =      -1.0456451617253699 [Eh]
	 SCS Total Energy          =    -266.2273503958289780 [Eh]
	-----------------------------------------------------------

  Dipole Moment: [D]
     X:     4.8249      Y:    -0.9580      Z:     0.0000     Total:     4.9191

*** Psi4 exiting successfully. Buy a developer a beer!
