                               Psi4 1.3.2 release

  ==> Input File <==

--------------------------------------------------------------------------
#psi4
#
memory 32 gb

molecule  {
-1 1
  O       -1.6559133    -0.6852409    -0.0001703
  O       -0.6117130     1.3130740     0.0001440
  C        0.7486200    -0.6398630     0.0001060
  C       -0.6246240     0.0491590     0.0000370
  C        1.9107360     0.0279630    -0.0001390
  H        0.7354600    -1.7316690     0.0007200
  H        2.8810510    -0.4671120     0.0001950
  H        1.8861710     1.1137650    -0.0007150
units angstrom
no_reorient  #important for SAPT in psi4, default
symmetry c1  #important for SAPT in psi4, default
}

set PROPERTIES_ORIGIN ["COM"]
properties('MP2/aug-cc-pvtz', properties = ['dipole'])
--------------------------------------------------------------------------

    Molecular point group: c1
  Charge       = -1
  Multiplicity = 1
  Basis Set: AUG-CC-PVTZ
    Blend: AUG-CC-PVTZ
  Basis Set: (AUG-CC-PVTZ AUX)
    Blend: AUG-CC-PVTZ-JKFIT

    Orbital Energies [Eh]
    ---------------------

    Doubly Occupied:

       1A    -20.296961     2A    -20.290965     3A    -11.143728
       4A    -11.081066     5A    -11.078720     6A     -1.165192
       7A     -1.061639     8A     -0.881821     9A     -0.663793
      10A     -0.529252    11A     -0.472929    12A     -0.440845
      13A     -0.389381    14A     -0.361230    15A     -0.360528
      16A     -0.215518    17A     -0.213411    18A     -0.208238
      19A     -0.190958

  @DF-RHF Final Energy:  -265.18642666480787

   => Energetics <=

    Nuclear Repulsion Energy =            151.5503891883197412
    One-Electron Energy =                -671.3812819019335620
    Two-Electron Energy =                 254.6444660488059526
    Total Energy =                       -265.1864266648078683
  Basis Set: (AUG-CC-PVTZ AUX)
    Blend: AUG-CC-PVTZ-RI
    Molecular point group: c1

    Geometry (in Angstrom), charge = -1, multiplicity = 1:

       Center              X                  Y                   Z               Mass
    ------------   -----------------  -----------------  -----------------  -----------------
         O           -1.567085376098    -0.716161001032    -0.000167890575    15.994914619570
         O           -0.522885076098     1.282153898968     0.000146409425    15.994914619570
         C            0.837447923902    -0.670783101032     0.000108409425    12.000000000000
         C           -0.535796076098     0.018238898968     0.000039409425    12.000000000000
         C            1.999563923902    -0.002957101032    -0.000136590575    12.000000000000
         H            0.824287923902    -1.762589101032     0.000722409425     1.007825032230
         H            2.969878923902    -0.498032101032     0.000197409425     1.007825032230
         H            1.974998923902     1.082844898968    -0.000712590575     1.007825032230

  Basis Set: AUG-CC-PVTZ
    Blend: AUG-CC-PVTZ
  Basis Set: (AUG-CC-PVTZ AUX)
    Blend: AUG-CC-PVTZ-JKFIT
	 Reference Energy          =    -265.1864266648078683 [Eh]
	 Singles Energy            =      -0.0000000000000000 [Eh]
	 Same-Spin Energy          =      -0.2624212124744199 [Eh]
	 Opposite-Spin Energy      =      -0.7969434686613357 [Eh]
	 Correlation Energy        =      -1.0593646811357555 [Eh]
	 Total Energy              =    -266.2457913459436440 [Eh]

	 ================> DF-SCS-MP2 Energies <==================
	-----------------------------------------------------------
	 SCS Same-Spin Scale       =       0.3333333333333333 [-]
	 SCS Opposite-Spin Scale   =       1.2000000000000000 [-]
	 SCS Same-Spin Energy      =      -0.0874737374914733 [Eh]
	 SCS Opposite-Spin Energy  =      -0.9563321623936027 [Eh]
	 SCS Correlation Energy    =      -1.0438058998850761 [Eh]
	 SCS Total Energy          =    -266.2302325646929262 [Eh]
	-----------------------------------------------------------

  Dipole Moment: [D]
     X:     4.5155      Y:    -1.4085      Z:     0.0004     Total:     4.7301

*** Psi4 exiting successfully. Buy a developer a beer!
