                               Psi4 1.4a3.dev225

  ==> Input File <==

--------------------------------------------------------------------------
#psi4
#
memory 32 gb

molecule  {
-1 1
  O       -1.5969950    -0.7592220    -0.0000430
  O       -0.6395240     1.3058710     0.0000360
  C        0.7544360    -0.6310910     0.0000040
  C       -0.5953528     0.0518500     0.0000007
  C        1.9146910     0.0394820     0.0000050
  H        0.7506440    -1.7207470    -0.0000050
  H        2.8778840    -0.4633550     0.0000010
  H        1.9142450     1.1249800     0.0000120
units angstrom
no_reorient  #important for SAPT in psi4, default
symmetry c1  #important for SAPT in psi4, default
}

set PROPERTIES_ORIGIN ["COM"]
properties('MP2/aug-cc-pvtz', properties = ['dipole'])
--------------------------------------------------------------------------

    Molecular point group: c1
  Charge       = -1
  Multiplicity = 1
  Basis Set: AUG-CC-PVTZ
    Blend: AUG-CC-PVTZ
  Basis Set: (AUG-CC-PVTZ AUX)
    Blend: AUG-CC-PVTZ-JKFIT

    Orbital Energies [Eh]
    ---------------------

    Doubly Occupied:

       1A    -20.297356     2A    -20.292949     3A    -11.143488
       4A    -11.080818     5A    -11.076973     6A     -1.162873
       7A     -1.059094     8A     -0.884183     9A     -0.667795
      10A     -0.533107    11A     -0.471552    12A     -0.442701
      13A     -0.386315    14A     -0.362893    15A     -0.359910
      16A     -0.214667    17A     -0.213804    18A     -0.209384
      19A     -0.191169

  @DF-RHF Final Energy:  -265.18572488654911

   => Energetics <=

    Nuclear Repulsion Energy =            151.7252444029672063
    One-Electron Energy =                -671.7198794134990294
    Two-Electron Energy =                 254.8089101239827414
    Total Energy =                       -265.1857248865491101
  Basis Set: (AUG-CC-PVTZ AUX)
    Blend: AUG-CC-PVTZ-RI
    Molecular point group: c1

    Geometry (in Angstrom), charge = -1, multiplicity = 1:

       Center              X                  Y                   Z               Mass
    ------------   -----------------  -----------------  -----------------  -----------------
         O           -1.522340050167    -0.776107377033    -0.000043175998    15.994914619570
         O           -0.564869050167     1.288985622967     0.000035824002    15.994914619570
         C            0.829090949833    -0.647976377033     0.000003824002    12.000000000000
         C           -0.520697850167     0.034964622967     0.000000524002    12.000000000000
         C            1.989345949833     0.022596622967     0.000004824002    12.000000000000
         H            0.825298949833    -1.737632377033    -0.000005175998     1.007825032230
         H            2.952538949833    -0.480240377033     0.000000824002     1.007825032230
         H            1.988899949833     1.108094622967     0.000011824002     1.007825032230

  Basis Set: AUG-CC-PVTZ
    Blend: AUG-CC-PVTZ
  Basis Set: (AUG-CC-PVTZ AUX)
    Blend: AUG-CC-PVTZ-JKFIT
	 Reference Energy          =    -265.1857248865491101 [Eh]
	 Singles Energy            =      -0.0000000000000000 [Eh]
	 Same-Spin Energy          =      -0.2627520704990797 [Eh]
	 Opposite-Spin Energy      =      -0.7975701869639792 [Eh]
	 Correlation Energy        =      -1.0603222574630589 [Eh]
	 Total Energy              =    -266.2460471440121523 [Eh]

	 ================> DF-SCS-MP2 Energies <==================
	-----------------------------------------------------------
	 SCS Same-Spin Scale       =       0.3333333333333333 [-]
	 SCS Opposite-Spin Scale   =       1.2000000000000000 [-]
	 SCS Same-Spin Energy      =      -0.0875840234996932 [Eh]
	 SCS Opposite-Spin Energy  =      -0.9570842243567750 [Eh]
	 SCS Correlation Energy    =      -1.0446682478564682 [Eh]
	 SCS Total Energy          =    -266.2303931344055741 [Eh]
	-----------------------------------------------------------

  Dipole Moment: [D]
     X:     4.6318      Y:    -1.1732      Z:     0.0000     Total:     4.7781

*** Psi4 exiting successfully. Buy a developer a beer!
