                               Psi4 1.3.2 release

  ==> Input File <==

--------------------------------------------------------------------------
#psi4
#
memory 32 gb

molecule  {
-1 1
  O       -1.6160644    -0.7382079    -0.0001736
  O       -0.6117130     1.3130740     0.0001440
  C        0.7486200    -0.6398630     0.0001060
  C       -0.6246240     0.0491590     0.0000370
  C        1.9107360     0.0279630    -0.0001390
  H        0.7354600    -1.7316690     0.0007200
  H        2.8810510    -0.4671120     0.0001950
  H        1.8861710     1.1137650    -0.0007150
units angstrom
no_reorient  #important for SAPT in psi4, default
symmetry c1  #important for SAPT in psi4, default
}

set PROPERTIES_ORIGIN ["COM"]
properties('MP2/aug-cc-pvtz', properties = ['dipole'])
--------------------------------------------------------------------------

    Molecular point group: c1
  Charge       = -1
  Multiplicity = 1
  Basis Set: AUG-CC-PVTZ
    Blend: AUG-CC-PVTZ
  Basis Set: (AUG-CC-PVTZ AUX)
    Blend: AUG-CC-PVTZ-JKFIT

    Orbital Energies [Eh]
    ---------------------

    Doubly Occupied:

       1A    -20.299176     2A    -20.294959     3A    -11.145248
       4A    -11.078114     5A    -11.075260     6A     -1.165755
       7A     -1.067383     8A     -0.879152     9A     -0.661135
      10A     -0.528491    11A     -0.471595    12A     -0.441133
      13A     -0.391226    14A     -0.362090    15A     -0.360249
      16A     -0.214731    17A     -0.213096    18A     -0.210200
      19A     -0.194915

  @DF-RHF Final Energy:  -265.18738360341183

   => Energetics <=

    Nuclear Repulsion Energy =            151.6301912720038274
    One-Electron Energy =                -671.5273317961305111
    Two-Electron Energy =                 254.7097569207148808
    Total Energy =                       -265.1873836034118312
  Basis Set: (AUG-CC-PVTZ AUX)
    Blend: AUG-CC-PVTZ-RI
    Molecular point group: c1

    Geometry (in Angstrom), charge = -1, multiplicity = 1:

       Center              X                  Y                   Z               Mass
    ------------   -----------------  -----------------  -----------------  -----------------
         O           -1.536211973846    -0.757197804985    -0.000170447288    15.994914619570
         O           -0.531860573846     1.294084095015     0.000147152712    15.994914619570
         C            0.828472426154    -0.658852904985     0.000109152712    12.000000000000
         C           -0.544771573846     0.030169095015     0.000040152712    12.000000000000
         C            1.990588426154     0.008973095015    -0.000135847288    12.000000000000
         H            0.815312426154    -1.750658904985     0.000723152712     1.007825032230
         H            2.960903426154    -0.486101904985     0.000198152712     1.007825032230
         H            1.966023426154     1.094775095015    -0.000711847288     1.007825032230

  Basis Set: AUG-CC-PVTZ
    Blend: AUG-CC-PVTZ
  Basis Set: (AUG-CC-PVTZ AUX)
    Blend: AUG-CC-PVTZ-JKFIT
	 Reference Energy          =    -265.1873836034118312 [Eh]
	 Singles Energy            =      -0.0000000000000000 [Eh]
	 Same-Spin Energy          =      -0.2624733187886726 [Eh]
	 Opposite-Spin Energy      =      -0.7969380301942068 [Eh]
	 Correlation Energy        =      -1.0594113489828794 [Eh]
	 Total Energy              =    -266.2467949523947368 [Eh]

	 ================> DF-SCS-MP2 Energies <==================
	-----------------------------------------------------------
	 SCS Same-Spin Scale       =       0.3333333333333333 [-]
	 SCS Opposite-Spin Scale   =       1.2000000000000000 [-]
	 SCS Same-Spin Energy      =      -0.0874911062628909 [Eh]
	 SCS Opposite-Spin Energy  =      -0.9563256362330481 [Eh]
	 SCS Correlation Energy    =      -1.0438167424959390 [Eh]
	 SCS Total Energy          =    -266.2312003459077800 [Eh]
	-----------------------------------------------------------

  Dipole Moment: [D]
     X:     4.3798      Y:    -1.3238      Z:     0.0004     Total:     4.5755

*** Psi4 exiting successfully. Buy a developer a beer!
