                               Psi4 1.4a3.dev225

  ==> Input File <==

--------------------------------------------------------------------------
#psi4
#
memory 32 gb

molecule  {
-1 1
  O       -1.5969950    -0.7592220    -0.0000430
  O       -0.6395240     1.3058710     0.0000360
  C        0.7544360    -0.6310910     0.0000040
  C       -0.5660139     0.0172277     0.0000001
  C        1.9146910     0.0394820     0.0000050
  H        0.7506440    -1.7207470    -0.0000050
  H        2.8778840    -0.4633550     0.0000010
  H        1.9142450     1.1249800     0.0000120
units angstrom
no_reorient  #important for SAPT in psi4, default
symmetry c1  #important for SAPT in psi4, default
}

set PROPERTIES_ORIGIN ["COM"]
properties('MP2/aug-cc-pvtz', properties = ['dipole'])
--------------------------------------------------------------------------

    Molecular point group: c1
  Charge       = -1
  Multiplicity = 1
  Basis Set: AUG-CC-PVTZ
    Blend: AUG-CC-PVTZ
  Basis Set: (AUG-CC-PVTZ AUX)
    Blend: AUG-CC-PVTZ-JKFIT

    Orbital Energies [Eh]
    ---------------------

    Doubly Occupied:

       1A    -20.295956     2A    -20.290978     3A    -11.143473
       4A    -11.086187     5A    -11.079364     6A     -1.150465
       7A     -1.046227     8A     -0.891278     9A     -0.681071
      10A     -0.537323    11A     -0.475141    12A     -0.440452
      13A     -0.382954    14A     -0.358530    15A     -0.353669
      16A     -0.218549    17A     -0.216410    18A     -0.202859
      19A     -0.185183

  @DF-RHF Final Energy:  -265.17931083042106

   => Energetics <=

    Nuclear Repulsion Energy =            151.6245768556283906
    One-Electron Energy =                -671.5356420335415351
    Two-Electron Energy =                 254.7317543474920001
    Total Energy =                       -265.1793108304210591
  Basis Set: (AUG-CC-PVTZ AUX)
    Blend: AUG-CC-PVTZ-RI
    Molecular point group: c1

    Geometry (in Angstrom), charge = -1, multiplicity = 1:

       Center              X                  Y                   Z               Mass
    ------------   -----------------  -----------------  -----------------  -----------------
         O           -1.527297808481    -0.770256817002    -0.000043074609    15.994914619570
         O           -0.569826808481     1.294836182998     0.000035925391    15.994914619570
         C            0.824133191519    -0.642125817002     0.000003925391    12.000000000000
         C           -0.496316708481     0.006192882998     0.000000025391    12.000000000000
         C            1.984388191519     0.028447182998     0.000004925391    12.000000000000
         H            0.820341191519    -1.731781817002    -0.000005074609     1.007825032230
         H            2.947581191519    -0.474389817002     0.000000925391     1.007825032230
         H            1.983942191519     1.113945182998     0.000011925391     1.007825032230

  Basis Set: AUG-CC-PVTZ
    Blend: AUG-CC-PVTZ
  Basis Set: (AUG-CC-PVTZ AUX)
    Blend: AUG-CC-PVTZ-JKFIT
	 Reference Energy          =    -265.1793108304210591 [Eh]
	 Singles Energy            =      -0.0000000000000000 [Eh]
	 Same-Spin Energy          =      -0.2637308500930374 [Eh]
	 Opposite-Spin Energy      =      -0.7997854499407903 [Eh]
	 Correlation Energy        =      -1.0635163000338277 [Eh]
	 Total Energy              =    -266.2428271304548844 [Eh]

	 ================> DF-SCS-MP2 Energies <==================
	-----------------------------------------------------------
	 SCS Same-Spin Scale       =       0.3333333333333333 [-]
	 SCS Opposite-Spin Scale   =       1.2000000000000000 [-]
	 SCS Same-Spin Energy      =      -0.0879102833643458 [Eh]
	 SCS Opposite-Spin Energy  =      -0.9597425399289483 [Eh]
	 SCS Correlation Energy    =      -1.0476528232932940 [Eh]
	 SCS Total Energy          =    -266.2269636537143356 [Eh]
	-----------------------------------------------------------

  Dipole Moment: [D]
     X:     4.7959      Y:    -1.4395      Z:     0.0000     Total:     5.0073

*** Psi4 exiting successfully. Buy a developer a beer!
