                               Psi4 1.3.2 release

  ==> Input File <==

--------------------------------------------------------------------------
#psi4
#
memory 32 gb

molecule  {
-1 1
  O       -1.6021720    -0.7553910    -0.0001730
  O       -0.6117130     1.3130740     0.0001440
  C        0.7486200    -0.6398630     0.0001060
  C       -0.5474120     0.1127067     0.0000536
  C        1.9107360     0.0279630    -0.0001390
  H        0.7354600    -1.7316690     0.0007200
  H        2.8810510    -0.4671120     0.0001950
  H        1.8861710     1.1137650    -0.0007150
units angstrom
no_reorient  #important for SAPT in psi4, default
symmetry c1  #important for SAPT in psi4, default
}

set PROPERTIES_ORIGIN ["COM"]
properties('MP2/aug-cc-pvtz', properties = ['dipole'])
--------------------------------------------------------------------------

    Molecular point group: c1
  Charge       = -1
  Multiplicity = 1
  Basis Set: AUG-CC-PVTZ
    Blend: AUG-CC-PVTZ
  Basis Set: (AUG-CC-PVTZ AUX)
    Blend: AUG-CC-PVTZ-JKFIT

    Orbital Energies [Eh]
    ---------------------

    Doubly Occupied:

       1A    -20.314680     2A    -20.278046     3A    -11.144084
       4A    -11.082083     5A    -11.078131     6A     -1.186791
       7A     -1.030726     8A     -0.888264     9A     -0.667919
      10A     -0.539579    11A     -0.474144    12A     -0.448474
      13A     -0.381288    14A     -0.367637    15A     -0.367098
      16A     -0.218679    17A     -0.216030    18A     -0.196600
      19A     -0.181925

  @DF-RHF Final Energy:  -265.17204895922362

   => Energetics <=

    Nuclear Repulsion Energy =            151.8304757630737072
    One-Electron Energy =                -671.8806951445149025
    Two-Electron Energy =                 254.8781704222175222
    Total Energy =                       -265.1720489592236163
  Basis Set: (AUG-CC-PVTZ AUX)
    Blend: AUG-CC-PVTZ-RI
    Molecular point group: c1

    Geometry (in Angstrom), charge = -1, multiplicity = 1:

       Center              X                  Y                   Z               Mass
    ------------   -----------------  -----------------  -----------------  -----------------
         O           -1.538496144738    -0.781249057188    -0.000172787540    15.994914619570
         O           -0.548037144738     1.287215942812     0.000144212460    15.994914619570
         C            0.812295855262    -0.665721057188     0.000106212460    12.000000000000
         C           -0.483736144738     0.086848642812     0.000053812460    12.000000000000
         C            1.974411855262     0.002104942812    -0.000138787540    12.000000000000
         H            0.799135855262    -1.757527057188     0.000720212460     1.007825032230
         H            2.944726855262    -0.492970057188     0.000195212460     1.007825032230
         H            1.949846855262     1.087906942812    -0.000714787540     1.007825032230

  Basis Set: AUG-CC-PVTZ
    Blend: AUG-CC-PVTZ
  Basis Set: (AUG-CC-PVTZ AUX)
    Blend: AUG-CC-PVTZ-JKFIT
	 Reference Energy          =    -265.1720489592236163 [Eh]
	 Singles Energy            =      -0.0000000000000000 [Eh]
	 Same-Spin Energy          =      -0.2635204941317471 [Eh]
	 Opposite-Spin Energy      =      -0.7990646142346649 [Eh]
	 Correlation Energy        =      -1.0625851083664120 [Eh]
	 Total Energy              =    -266.2346340675900365 [Eh]

	 ================> DF-SCS-MP2 Energies <==================
	-----------------------------------------------------------
	 SCS Same-Spin Scale       =       0.3333333333333333 [-]
	 SCS Opposite-Spin Scale   =       1.2000000000000000 [-]
	 SCS Same-Spin Energy      =      -0.0878401647105824 [Eh]
	 SCS Opposite-Spin Energy  =      -0.9588775370815978 [Eh]
	 SCS Correlation Energy    =      -1.0467177017921803 [Eh]
	 SCS Total Energy          =    -266.2187666610158203 [Eh]
	-----------------------------------------------------------

  Dipole Moment: [D]
     X:     4.9949      Y:    -0.5721      Z:     0.0005     Total:     5.0276

*** Psi4 exiting successfully. Buy a developer a beer!
