                               Psi4 1.3.2 release

  ==> Input File <==

--------------------------------------------------------------------------
#psi4
#
memory 32 gb

molecule  {
-1 1
  O       -1.6296549    -0.7207850    -0.0001718
  O       -0.6117130     1.3130740     0.0001440
  C        0.7486200    -0.6398630     0.0001060
  C       -0.6246240     0.0491590     0.0000370
  C        1.9107360     0.0279630    -0.0001390
  H        0.7354600    -1.7316690     0.0007200
  H        2.8810510    -0.4671120     0.0001950
  H        1.8861710     1.1137650    -0.0007150
units angstrom
no_reorient  #important for SAPT in psi4, default
symmetry c1  #important for SAPT in psi4, default
}

set PROPERTIES_ORIGIN ["COM"]
properties('MP2/aug-cc-pvtz', properties = ['dipole'])
--------------------------------------------------------------------------

    Molecular point group: c1
  Charge       = -1
  Multiplicity = 1
  Basis Set: AUG-CC-PVTZ
    Blend: AUG-CC-PVTZ
  Basis Set: (AUG-CC-PVTZ AUX)
    Blend: AUG-CC-PVTZ-JKFIT

    Orbital Energies [Eh]
    ---------------------

    Doubly Occupied:

       1A    -20.298453     2A    -20.293639     3A    -11.144738
       4A    -11.079112     5A    -11.076430     6A     -1.165541
       7A     -1.065491     8A     -0.880059     9A     -0.662033
      10A     -0.528737    11A     -0.472050    12A     -0.441034
      13A     -0.390601    14A     -0.361561    15A     -0.360628
      16A     -0.213922    17A     -0.213389    18A     -0.210533
      19A     -0.193610

  @DF-RHF Final Energy:  -265.18725177251633

   => Energetics <=

    Nuclear Repulsion Energy =            151.5995288897281341
    One-Electron Energy =                -671.4704365517545739
    Two-Electron Energy =                 254.6836558895100779
    Total Energy =                       -265.1872517725163334
  Basis Set: (AUG-CC-PVTZ AUX)
    Blend: AUG-CC-PVTZ-RI
    Molecular point group: c1

    Geometry (in Angstrom), charge = -1, multiplicity = 1:

       Center              X                  Y                   Z               Mass
    ------------   -----------------  -----------------  -----------------  -----------------
         O           -1.546741372984    -0.743699209037    -0.000169052717    15.994914619570
         O           -0.528799472984     1.290159790963     0.000146747283    15.994914619570
         C            0.831533527016    -0.662777209037     0.000108747283    12.000000000000
         C           -0.541710472984     0.026244790963     0.000039747283    12.000000000000
         C            1.993649527016     0.005048790963    -0.000136252717    12.000000000000
         H            0.818373527016    -1.754583209037     0.000722747283     1.007825032230
         H            2.963964527016    -0.490026209037     0.000197747283     1.007825032230
         H            1.969084527016     1.090850790963    -0.000712252717     1.007825032230

  Basis Set: AUG-CC-PVTZ
    Blend: AUG-CC-PVTZ
  Basis Set: (AUG-CC-PVTZ AUX)
    Blend: AUG-CC-PVTZ-JKFIT
	 Reference Energy          =    -265.1872517725163334 [Eh]
	 Singles Energy            =      -0.0000000000000000 [Eh]
	 Same-Spin Energy          =      -0.2624482602481251 [Eh]
	 Opposite-Spin Energy      =      -0.7969268843817779 [Eh]
	 Correlation Energy        =      -1.0593751446299031 [Eh]
	 Total Energy              =    -266.2466269171462159 [Eh]

	 ================> DF-SCS-MP2 Energies <==================
	-----------------------------------------------------------
	 SCS Same-Spin Scale       =       0.3333333333333333 [-]
	 SCS Opposite-Spin Scale   =       1.2000000000000000 [-]
	 SCS Same-Spin Energy      =      -0.0874827534160417 [Eh]
	 SCS Opposite-Spin Energy  =      -0.9563122612581335 [Eh]
	 SCS Correlation Energy    =      -1.0437950146741752 [Eh]
	 SCS Total Energy          =    -266.2310467871905075 [Eh]
	-----------------------------------------------------------

  Dipole Moment: [D]
     X:     4.4260      Y:    -1.3516      Z:     0.0004     Total:     4.6277

*** Psi4 exiting successfully. Buy a developer a beer!
