                               Psi4 1.4a3.dev225

  ==> Input File <==

--------------------------------------------------------------------------
#psi4
#
memory 32 gb

molecule  {
-1 1
  O       -1.5969950    -0.7592220    -0.0000430
  O       -0.6395240     1.3058710     0.0000360
  C        0.7544360    -0.6310910     0.0000040
  C       -0.6097662    -0.0107232    -0.0000014
  C        1.9146910     0.0394820     0.0000050
  H        0.7506440    -1.7207470    -0.0000050
  H        2.8778840    -0.4633550     0.0000010
  H        1.9142450     1.1249800     0.0000120
units angstrom
no_reorient  #important for SAPT in psi4, default
symmetry c1  #important for SAPT in psi4, default
}

set PROPERTIES_ORIGIN ["COM"]
properties('MP2/aug-cc-pvtz', properties = ['dipole'])
--------------------------------------------------------------------------

    Molecular point group: c1
  Charge       = -1
  Multiplicity = 1
  Basis Set: AUG-CC-PVTZ
    Blend: AUG-CC-PVTZ
  Basis Set: (AUG-CC-PVTZ AUX)
    Blend: AUG-CC-PVTZ-JKFIT

    Orbital Energies [Eh]
    ---------------------

    Doubly Occupied:

       1A    -20.306566     2A    -20.282250     3A    -11.143012
       4A    -11.082803     5A    -11.077535     6A     -1.167328
       7A     -1.047849     8A     -0.884702     9A     -0.674645
      10A     -0.531466    11A     -0.475073    12A     -0.442079
      13A     -0.389148    14A     -0.359762    15A     -0.358027
      16A     -0.217376    17A     -0.216904    18A     -0.202077
      19A     -0.186108

  @DF-RHF Final Energy:  -265.18163363696294

   => Energetics <=

    Nuclear Repulsion Energy =            151.6473417259419989
    One-Electron Energy =                -671.5685314531677932
    Two-Electron Energy =                 254.7395560902627949
    Total Energy =                       -265.1816336369629425
  Basis Set: (AUG-CC-PVTZ AUX)
    Blend: AUG-CC-PVTZ-RI
    Molecular point group: c1

    Geometry (in Angstrom), charge = -1, multiplicity = 1:

       Center              X                  Y                   Z               Mass
    ------------   -----------------  -----------------  -----------------  -----------------
         O           -1.519904438958    -0.765533606287    -0.000042821135    15.994914619570
         O           -0.562433438958     1.299559393713     0.000036178865    15.994914619570
         C            0.831526561042    -0.637402606287     0.000004178865    12.000000000000
         C           -0.532675638958    -0.017034806287    -0.000001221135    12.000000000000
         C            1.991781561042     0.033170393713     0.000005178865    12.000000000000
         H            0.827734561042    -1.727058606287    -0.000004821135     1.007825032230
         H            2.954974561042    -0.469666606287     0.000001178865     1.007825032230
         H            1.991335561042     1.118668393713     0.000012178865     1.007825032230

  Basis Set: AUG-CC-PVTZ
    Blend: AUG-CC-PVTZ
  Basis Set: (AUG-CC-PVTZ AUX)
    Blend: AUG-CC-PVTZ-JKFIT
	 Reference Energy          =    -265.1816336369629425 [Eh]
	 Singles Energy            =      -0.0000000000000000 [Eh]
	 Same-Spin Energy          =      -0.2629076239565639 [Eh]
	 Opposite-Spin Energy      =      -0.7981326113093066 [Eh]
	 Correlation Energy        =      -1.0610402352658705 [Eh]
	 Total Energy              =    -266.2426738722288064 [Eh]

	 ================> DF-SCS-MP2 Energies <==================
	-----------------------------------------------------------
	 SCS Same-Spin Scale       =       0.3333333333333333 [-]
	 SCS Opposite-Spin Scale   =       1.2000000000000000 [-]
	 SCS Same-Spin Energy      =      -0.0876358746521879 [Eh]
	 SCS Opposite-Spin Energy  =      -0.9577591335711678 [Eh]
	 SCS Correlation Energy    =      -1.0453950082233558 [Eh]
	 SCS Total Energy          =    -266.2270286451862944 [Eh]
	-----------------------------------------------------------

  Dipole Moment: [D]
     X:     4.4564      Y:    -1.7814      Z:     0.0000     Total:     4.7993

*** Psi4 exiting successfully. Buy a developer a beer!
