                               Psi4 1.3.2 release

  ==> Input File <==

--------------------------------------------------------------------------
#psi4
#
memory 32 gb

molecule  {
-1 1
  O       -1.6021720    -0.7553910    -0.0001730
  O       -0.6117130     1.3130740     0.0001440
  C        0.7486200    -0.6398630     0.0001060
  C       -0.4458637    -0.0405336     0.0000460
  C        1.9107360     0.0279630    -0.0001390
  H        0.7354600    -1.7316690     0.0007200
  H        2.8810510    -0.4671120     0.0001950
  H        1.8861710     1.1137650    -0.0007150
units angstrom
no_reorient  #important for SAPT in psi4, default
symmetry c1  #important for SAPT in psi4, default
}

set PROPERTIES_ORIGIN ["COM"]
properties('MP2/aug-cc-pvtz', properties = ['dipole'])
--------------------------------------------------------------------------

    Molecular point group: c1
  Charge       = -1
  Multiplicity = 1
  Basis Set: AUG-CC-PVTZ
    Blend: AUG-CC-PVTZ
  Basis Set: (AUG-CC-PVTZ AUX)
    Blend: AUG-CC-PVTZ-JKFIT

    Orbital Energies [Eh]
    ---------------------

    Doubly Occupied:

       1A    -20.295886     2A    -20.286889     3A    -11.145052
       4A    -11.103992     5A    -11.079910     6A     -1.114900
       7A     -1.005165     8A     -0.917486     9A     -0.723062
      10A     -0.552910    11A     -0.489382    12A     -0.433037
      13A     -0.382451    14A     -0.343940    15A     -0.330319
      16A     -0.225458    17A     -0.214560    18A     -0.183851
      19A     -0.168717

  @DF-RHF Final Energy:  -265.12483834949990

   => Energetics <=

    Nuclear Repulsion Energy =            151.4681283491208887
    One-Electron Energy =                -671.1919990042988502
    Two-Electron Energy =                 254.5990323056780937
    Total Energy =                       -265.1248383494998961
  Basis Set: (AUG-CC-PVTZ AUX)
    Blend: AUG-CC-PVTZ-RI
    Molecular point group: c1

    Geometry (in Angstrom), charge = -1, multiplicity = 1:

       Center              X                  Y                   Z               Mass
    ------------   -----------------  -----------------  -----------------  -----------------
         O           -1.555656022192    -0.755354140493    -0.000171503273    15.994914619570
         O           -0.565197022192     1.313110859507     0.000145496727    15.994914619570
         C            0.795135977808    -0.639826140493     0.000107496727    12.000000000000
         C           -0.399347722192    -0.040496740493     0.000047496727    12.000000000000
         C            1.957251977808     0.027999859507    -0.000137503273    12.000000000000
         H            0.781975977808    -1.731632140493     0.000721496727     1.007825032230
         H            2.927566977808    -0.467075140493     0.000196496727     1.007825032230
         H            1.932686977808     1.113801859507    -0.000713503273     1.007825032230

  Basis Set: AUG-CC-PVTZ
    Blend: AUG-CC-PVTZ
  Basis Set: (AUG-CC-PVTZ AUX)
    Blend: AUG-CC-PVTZ-JKFIT
	 Reference Energy          =    -265.1248383494998961 [Eh]
	 Singles Energy            =      -0.0000000000000000 [Eh]
	 Same-Spin Energy          =      -0.2687223694989495 [Eh]
	 Opposite-Spin Energy      =      -0.8100851940731433 [Eh]
	 Correlation Energy        =      -1.0788075635720928 [Eh]
	 Total Energy              =    -266.2036459130719663 [Eh]

	 ================> DF-SCS-MP2 Energies <==================
	-----------------------------------------------------------
	 SCS Same-Spin Scale       =       0.3333333333333333 [-]
	 SCS Opposite-Spin Scale   =       1.2000000000000000 [-]
	 SCS Same-Spin Energy      =      -0.0895741231663165 [Eh]
	 SCS Opposite-Spin Energy  =      -0.9721022328877719 [Eh]
	 SCS Correlation Energy    =      -1.0616763560540883 [Eh]
	 SCS Total Energy          =    -266.1865147055539751 [Eh]
	-----------------------------------------------------------

  Dipole Moment: [D]
     X:     5.3056      Y:    -1.7406      Z:     0.0004     Total:     5.5839

*** Psi4 exiting successfully. Buy a developer a beer!
