                               Psi4 1.4a3.dev225

  ==> Input File <==

--------------------------------------------------------------------------
#psi4
#
memory 32 gb

molecule  {
-1 1
  O       -1.5969950    -0.7592220    -0.0000430
  O       -0.6395240     1.3058710     0.0000360
  C        0.7544360    -0.6310910     0.0000040
  C       -0.5929432     0.0304495     0.0000001
  C        1.9146910     0.0394820     0.0000050
  H        0.7506440    -1.7207470    -0.0000050
  H        2.8778840    -0.4633550     0.0000010
  H        1.9142450     1.1249800     0.0000120
units angstrom
no_reorient  #important for SAPT in psi4, default
symmetry c1  #important for SAPT in psi4, default
}

set PROPERTIES_ORIGIN ["COM"]
properties('MP2/aug-cc-pvtz', properties = ['dipole'])
--------------------------------------------------------------------------

    Molecular point group: c1
  Charge       = -1
  Multiplicity = 1
  Basis Set: AUG-CC-PVTZ
    Blend: AUG-CC-PVTZ
  Basis Set: (AUG-CC-PVTZ AUX)
    Blend: AUG-CC-PVTZ-JKFIT

    Orbital Energies [Eh]
    ---------------------

    Doubly Occupied:

       1A    -20.296688     2A    -20.292520     3A    -11.143453
       4A    -11.082329     5A    -11.077642     6A     -1.158418
       7A     -1.056363     8A     -0.885723     9A     -0.671964
      10A     -0.533464    11A     -0.472826    12A     -0.441502
      13A     -0.386070    14A     -0.360949    15A     -0.357715
      16A     -0.215221    17A     -0.215185    18A     -0.207840
      19A     -0.189586

  @DF-RHF Final Energy:  -265.18471515458674

   => Energetics <=

    Nuclear Repulsion Energy =            151.6777689693118703
    One-Electron Energy =                -671.6340518718869816
    Two-Electron Energy =                 254.7715677479883993
    Total Energy =                       -265.1847151545867405
  Basis Set: (AUG-CC-PVTZ AUX)
    Blend: AUG-CC-PVTZ-RI
    Molecular point group: c1

    Geometry (in Angstrom), charge = -1, multiplicity = 1:

       Center              X                  Y                   Z               Mass
    ------------   -----------------  -----------------  -----------------  -----------------
         O           -1.522747230205    -0.772491068760    -0.000043074609    15.994914619570
         O           -0.565276230205     1.292601931240     0.000035925391    15.994914619570
         C            0.828683769795    -0.644360068760     0.000003925391    12.000000000000
         C           -0.518695430205     0.017180431240     0.000000025391    12.000000000000
         C            1.988938769795     0.026212931240     0.000004925391    12.000000000000
         H            0.824891769795    -1.734016068760    -0.000005074609     1.007825032230
         H            2.952131769795    -0.476624068760     0.000000925391     1.007825032230
         H            1.988492769795     1.111710931240     0.000011925391     1.007825032230

  Basis Set: AUG-CC-PVTZ
    Blend: AUG-CC-PVTZ
  Basis Set: (AUG-CC-PVTZ AUX)
    Blend: AUG-CC-PVTZ-JKFIT
	 Reference Energy          =    -265.1847151545867405 [Eh]
	 Singles Energy            =      -0.0000000000000000 [Eh]
	 Same-Spin Energy          =      -0.2629690356049678 [Eh]
	 Opposite-Spin Energy      =      -0.7981112846996078 [Eh]
	 Correlation Energy        =      -1.0610803203045756 [Eh]
	 Total Energy              =    -266.2457954748913380 [Eh]

	 ================> DF-SCS-MP2 Energies <==================
	-----------------------------------------------------------
	 SCS Same-Spin Scale       =       0.3333333333333333 [-]
	 SCS Opposite-Spin Scale   =       1.2000000000000000 [-]
	 SCS Same-Spin Energy      =      -0.0876563452016559 [Eh]
	 SCS Opposite-Spin Energy  =      -0.9577335416395293 [Eh]
	 SCS Correlation Energy    =      -1.0453898868411853 [Eh]
	 SCS Total Energy          =    -266.2301050414279189 [Eh]
	-----------------------------------------------------------

  Dipole Moment: [D]
     X:     4.6244      Y:    -1.3687      Z:     0.0000     Total:     4.8227

*** Psi4 exiting successfully. Buy a developer a beer!
