                               Psi4 1.4a3.dev225

  ==> Input File <==

--------------------------------------------------------------------------
#psi4
#
memory 32 gb

molecule  {
-1 1
  O       -1.5969950    -0.7592220    -0.0000430
  O       -0.6395240     1.3058710     0.0000360
  C        0.7544360    -0.6310910     0.0000040
  C       -0.6264392     0.0266780    -0.0000007
  C        1.9146910     0.0394820     0.0000050
  H        0.7506440    -1.7207470    -0.0000050
  H        2.8778840    -0.4633550     0.0000010
  H        1.9142450     1.1249800     0.0000120
units angstrom
no_reorient  #important for SAPT in psi4, default
symmetry c1  #important for SAPT in psi4, default
}

set PROPERTIES_ORIGIN ["COM"]
properties('MP2/aug-cc-pvtz', properties = ['dipole'])
--------------------------------------------------------------------------

    Molecular point group: c1
  Charge       = -1
  Multiplicity = 1
  Basis Set: AUG-CC-PVTZ
    Blend: AUG-CC-PVTZ
  Basis Set: (AUG-CC-PVTZ AUX)
    Blend: AUG-CC-PVTZ-JKFIT

    Orbital Energies [Eh]
    ---------------------

    Doubly Occupied:

       1A    -20.301744     2A    -20.290013     3A    -11.143554
       4A    -11.078720     5A    -11.075329     6A     -1.167922
       7A     -1.064701     8A     -0.880006     9A     -0.664347
      10A     -0.528929    11A     -0.471744    12A     -0.441912
      13A     -0.391612    14A     -0.362506    15A     -0.360633
      16A     -0.215148    17A     -0.214095    18A     -0.208302
      19A     -0.193086

  @DF-RHF Final Energy:  -265.18737826338918

   => Energetics <=

    Nuclear Repulsion Energy =            151.7156058572753636
    One-Electron Energy =                -671.6973629289925611
    Two-Electron Energy =                 254.7943788083280197
    Total Energy =                       -265.1873782633891778
  Basis Set: (AUG-CC-PVTZ AUX)
    Blend: AUG-CC-PVTZ-RI
    Molecular point group: c1

    Geometry (in Angstrom), charge = -1, multiplicity = 1:

       Center              X                  Y                   Z               Mass
    ------------   -----------------  -----------------  -----------------  -----------------
         O           -1.517086995074    -0.771853751564    -0.000042939423    15.994914619570
         O           -0.559615995074     1.293239248436     0.000036060577    15.994914619570
         C            0.834344004926    -0.643722751564     0.000004060577    12.000000000000
         C           -0.546531195074     0.014046248436    -0.000000639423    12.000000000000
         C            1.994599004926     0.026850248436     0.000005060577    12.000000000000
         H            0.830552004926    -1.733378751564    -0.000004939423     1.007825032230
         H            2.957792004926    -0.475986751564     0.000001060577     1.007825032230
         H            1.994153004926     1.112348248436     0.000012060577     1.007825032230

  Basis Set: AUG-CC-PVTZ
    Blend: AUG-CC-PVTZ
  Basis Set: (AUG-CC-PVTZ AUX)
    Blend: AUG-CC-PVTZ-JKFIT
	 Reference Energy          =    -265.1873782633891778 [Eh]
	 Singles Energy            =      -0.0000000000000000 [Eh]
	 Same-Spin Energy          =      -0.2623125992448433 [Eh]
	 Opposite-Spin Energy      =      -0.7966766342038040 [Eh]
	 Correlation Energy        =      -1.0589892334486473 [Eh]
	 Total Energy              =    -266.2463674968378200 [Eh]

	 ================> DF-SCS-MP2 Energies <==================
	-----------------------------------------------------------
	 SCS Same-Spin Scale       =       0.3333333333333333 [-]
	 SCS Opposite-Spin Scale   =       1.2000000000000000 [-]
	 SCS Same-Spin Energy      =      -0.0874375330816144 [Eh]
	 SCS Opposite-Spin Energy  =      -0.9560119610445648 [Eh]
	 SCS Correlation Energy    =      -1.0434494941261792 [Eh]
	 SCS Total Energy          =    -266.2308277575153852 [Eh]
	-----------------------------------------------------------

  Dipole Moment: [D]
     X:     4.3668      Y:    -1.4665      Z:     0.0000     Total:     4.6065

*** Psi4 exiting successfully. Buy a developer a beer!
