                               Psi4 1.3.2 release

  ==> Input File <==

--------------------------------------------------------------------------
#psi4
#
memory 32 gb

molecule  {
-1 1
  O       -1.6809153    -0.6488020    -0.0001686
  O       -0.6117130     1.3130740     0.0001440
  C        0.7486200    -0.6398630     0.0001060
  C       -0.6246240     0.0491590     0.0000370
  C        1.9107360     0.0279630    -0.0001390
  H        0.7354600    -1.7316690     0.0007200
  H        2.8810510    -0.4671120     0.0001950
  H        1.8861710     1.1137650    -0.0007150
units angstrom
no_reorient  #important for SAPT in psi4, default
symmetry c1  #important for SAPT in psi4, default
}

set PROPERTIES_ORIGIN ["COM"]
properties('MP2/aug-cc-pvtz', properties = ['dipole'])
--------------------------------------------------------------------------

    Molecular point group: c1
  Charge       = -1
  Multiplicity = 1
  Basis Set: AUG-CC-PVTZ
    Blend: AUG-CC-PVTZ
  Basis Set: (AUG-CC-PVTZ AUX)
    Blend: AUG-CC-PVTZ-JKFIT

    Orbital Energies [Eh]
    ---------------------

    Doubly Occupied:

       1A    -20.295406     2A    -20.288249     3A    -11.142733
       4A    -11.082972     5A    -11.080935     6A     -1.164948
       7A     -1.057688     8A     -0.883512     9A     -0.665504
      10A     -0.529792    11A     -0.473771    12A     -0.440660
      13A     -0.388225    14A     -0.361595    15A     -0.359529
      16A     -0.217045    17A     -0.214664    18A     -0.204382
      19A     -0.188248

  @DF-RHF Final Energy:  -265.18485450383133

   => Energetics <=

    Nuclear Repulsion Energy =            151.5174201269461776
    One-Electron Energy =                -671.3248348224500432
    Two-Electron Energy =                 254.6225601916725623
    Total Energy =                       -265.1848545038313318
  Basis Set: (AUG-CC-PVTZ AUX)
    Blend: AUG-CC-PVTZ-RI
    Molecular point group: c1

    Geometry (in Angstrom), charge = -1, multiplicity = 1:

       Center              X                  Y                   Z               Mass
    ------------   -----------------  -----------------  -----------------  -----------------
         O           -1.586455968588    -0.687929536241    -0.000166573480    15.994914619570
         O           -0.517253668588     1.273946463759     0.000146026520    15.994914619570
         C            0.843079331412    -0.678990536241     0.000108026520    12.000000000000
         C           -0.530164668588     0.010031463759     0.000039026520    12.000000000000
         C            2.005195331412    -0.011164536241    -0.000136973480    12.000000000000
         H            0.829919331412    -1.770796536241     0.000722026520     1.007825032230
         H            2.975510331412    -0.506239536241     0.000197026520     1.007825032230
         H            1.980630331412     1.074637463759    -0.000712973480     1.007825032230

  Basis Set: AUG-CC-PVTZ
    Blend: AUG-CC-PVTZ
  Basis Set: (AUG-CC-PVTZ AUX)
    Blend: AUG-CC-PVTZ-JKFIT
	 Reference Energy          =    -265.1848545038313318 [Eh]
	 Singles Energy            =      -0.0000000000000000 [Eh]
	 Same-Spin Energy          =      -0.2624246951922928 [Eh]
	 Opposite-Spin Energy      =      -0.7970121419128824 [Eh]
	 Correlation Energy        =      -1.0594368371051752 [Eh]
	 Total Energy              =    -266.2442913409365133 [Eh]

	 ================> DF-SCS-MP2 Energies <==================
	-----------------------------------------------------------
	 SCS Same-Spin Scale       =       0.3333333333333333 [-]
	 SCS Opposite-Spin Scale   =       1.2000000000000000 [-]
	 SCS Same-Spin Energy      =      -0.0874748983974309 [Eh]
	 SCS Opposite-Spin Energy  =      -0.9564145702954588 [Eh]
	 SCS Correlation Energy    =      -1.0438894686928899 [Eh]
	 SCS Total Energy          =    -266.2287439725242280 [Eh]
	-----------------------------------------------------------

  Dipole Moment: [D]
     X:     4.6015      Y:    -1.4669      Z:     0.0004     Total:     4.8296

*** Psi4 exiting successfully. Buy a developer a beer!
