                               Psi4 1.3.2 release

  ==> Input File <==

--------------------------------------------------------------------------
#psi4
#
memory 32 gb

molecule  {
-1 1
  O       -1.6021720    -0.7553910    -0.0001730
  O       -0.6117130     1.3130740     0.0001440
  C        0.7486200    -0.6398630     0.0001060
  C       -0.6364399     0.0250876     0.0000437
  C        1.9107360     0.0279630    -0.0001390
  H        0.7354600    -1.7316690     0.0007200
  H        2.8810510    -0.4671120     0.0001950
  H        1.8861710     1.1137650    -0.0007150
units angstrom
no_reorient  #important for SAPT in psi4, default
symmetry c1  #important for SAPT in psi4, default
}

set PROPERTIES_ORIGIN ["COM"]
properties('MP2/aug-cc-pvtz', properties = ['dipole'])
--------------------------------------------------------------------------

    Molecular point group: c1
  Charge       = -1
  Multiplicity = 1
  Basis Set: AUG-CC-PVTZ
    Blend: AUG-CC-PVTZ
  Basis Set: (AUG-CC-PVTZ AUX)
    Blend: AUG-CC-PVTZ-JKFIT

    Orbital Energies [Eh]
    ---------------------

    Doubly Occupied:

       1A    -20.305964     2A    -20.290054     3A    -11.145585
       4A    -11.077121     5A    -11.073894     6A     -1.170055
       7A     -1.065906     8A     -0.877379     9A     -0.661312
      10A     -0.526898    11A     -0.472095    12A     -0.441145
      13A     -0.393573    14A     -0.363542    15A     -0.358305
      16A     -0.217715    17A     -0.213386    18A     -0.206759
      19A     -0.194350

  @DF-RHF Final Energy:  -265.18623716342086

   => Energetics <=

    Nuclear Repulsion Energy =            151.6427469623391175
    One-Electron Energy =                -671.5478964985527455
    Two-Electron Energy =                 254.7189123727928290
    Total Energy =                       -265.1862371634208557
  Basis Set: (AUG-CC-PVTZ AUX)
    Blend: AUG-CC-PVTZ-RI
    Molecular point group: c1

    Geometry (in Angstrom), charge = -1, multiplicity = 1:

       Center              X                  Y                   Z               Mass
    ------------   -----------------  -----------------  -----------------  -----------------
         O           -1.523451994772    -0.766442969655    -0.000171114614    15.994914619570
         O           -0.532992994772     1.302022030345     0.000145885386    15.994914619570
         C            0.827340005228    -0.650914969655     0.000107885386    12.000000000000
         C           -0.557719894772     0.014035630345     0.000045585386    12.000000000000
         C            1.989456005228     0.016911030345    -0.000137114614    12.000000000000
         H            0.814180005228    -1.742720969655     0.000721885386     1.007825032230
         H            2.959771005228    -0.478163969655     0.000196885386     1.007825032230
         H            1.964891005228     1.102713030345    -0.000713114614     1.007825032230

  Basis Set: AUG-CC-PVTZ
    Blend: AUG-CC-PVTZ
  Basis Set: (AUG-CC-PVTZ AUX)
    Blend: AUG-CC-PVTZ-JKFIT
	 Reference Energy          =    -265.1862371634208557 [Eh]
	 Singles Energy            =      -0.0000000000000000 [Eh]
	 Same-Spin Energy          =      -0.2624418703214990 [Eh]
	 Opposite-Spin Energy      =      -0.7969065309815020 [Eh]
	 Correlation Energy        =      -1.0593484013030010 [Eh]
	 Total Energy              =    -266.2455855647238536 [Eh]

	 ================> DF-SCS-MP2 Energies <==================
	-----------------------------------------------------------
	 SCS Same-Spin Scale       =       0.3333333333333333 [-]
	 SCS Opposite-Spin Scale   =       1.2000000000000000 [-]
	 SCS Same-Spin Energy      =      -0.0874806234404996 [Eh]
	 SCS Opposite-Spin Energy  =      -0.9562878371778023 [Eh]
	 SCS Correlation Energy    =      -1.0437684606183020 [Eh]
	 SCS Total Energy          =    -266.2300056240391655 [Eh]
	-----------------------------------------------------------

  Dipole Moment: [D]
     X:     4.2136      Y:    -1.5465      Z:     0.0003     Total:     4.4884

*** Psi4 exiting successfully. Buy a developer a beer!
