                               Psi4 1.3.2 release

  ==> Input File <==

--------------------------------------------------------------------------
#psi4
#
memory 32 gb

molecule  {
-1 1
  O       -1.6021720    -0.7553910    -0.0001730
  O       -0.6117130     1.3130740     0.0001440
  C        0.7486200    -0.6398630     0.0001060
  C       -0.7790480    -0.0779364     0.0000038
  C        1.9107360     0.0279630    -0.0001390
  H        0.7354600    -1.7316690     0.0007200
  H        2.8810510    -0.4671120     0.0001950
  H        1.8861710     1.1137650    -0.0007150
units angstrom
no_reorient  #important for SAPT in psi4, default
symmetry c1  #important for SAPT in psi4, default
}

set PROPERTIES_ORIGIN ["COM"]
properties('MP2/aug-cc-pvtz', properties = ['dipole'])
--------------------------------------------------------------------------

    Molecular point group: c1
  Charge       = -1
  Multiplicity = 1
  Basis Set: AUG-CC-PVTZ
    Blend: AUG-CC-PVTZ
  Basis Set: (AUG-CC-PVTZ AUX)
    Blend: AUG-CC-PVTZ-JKFIT

    Orbital Energies [Eh]
    ---------------------

    Doubly Occupied:

       1A    -20.347354     2A    -20.261523     3A    -11.141866
       4A    -11.065186     5A    -11.062408     6A     -1.303042
       7A     -1.014297     8A     -0.857475     9A     -0.644714
      10A     -0.534231    11A     -0.483501    12A     -0.457889
      13A     -0.429027    14A     -0.406293    15A     -0.361142
      16A     -0.213814    17A     -0.209315    18A     -0.175365
      19A     -0.166659

  @DF-RHF Final Energy:  -265.11544334465361

   => Energetics <=

    Nuclear Repulsion Energy =            152.2194981827199456
    One-Electron Energy =                -672.3996800932824272
    Two-Electron Energy =                 255.0647385659088968
    Total Energy =                       -265.1154433446536132
  Basis Set: (AUG-CC-PVTZ AUX)
    Blend: AUG-CC-PVTZ-RI
    Molecular point group: c1

    Geometry (in Angstrom), charge = -1, multiplicity = 1:

       Center              X                  Y                   Z               Mass
    ------------   -----------------  -----------------  -----------------  -----------------
         O           -1.499353732961    -0.749033724844    -0.000164372215    15.994914619570
         O           -0.508894732961     1.319431275156     0.000152627785    15.994914619570
         C            0.851438267039    -0.633505724844     0.000114627785    12.000000000000
         C           -0.676229732961    -0.071579124844     0.000012427785    12.000000000000
         C            2.013554267039     0.034320275156    -0.000130372215    12.000000000000
         H            0.838278267039    -1.725311724844     0.000728627785     1.007825032230
         H            2.983869267039    -0.460754724844     0.000203627785     1.007825032230
         H            1.988989267039     1.120122275156    -0.000706372215     1.007825032230

  Basis Set: AUG-CC-PVTZ
    Blend: AUG-CC-PVTZ
  Basis Set: (AUG-CC-PVTZ AUX)
    Blend: AUG-CC-PVTZ-JKFIT
	 Reference Energy          =    -265.1154433446536132 [Eh]
	 Singles Energy            =      -0.0000000000000000 [Eh]
	 Same-Spin Energy          =      -0.2608591157530624 [Eh]
	 Opposite-Spin Energy      =      -0.7938262903853779 [Eh]
	 Correlation Energy        =      -1.0546854061384403 [Eh]
	 Total Energy              =    -266.1701287507920597 [Eh]

	 ================> DF-SCS-MP2 Energies <==================
	-----------------------------------------------------------
	 SCS Same-Spin Scale       =       0.3333333333333333 [-]
	 SCS Opposite-Spin Scale   =       1.2000000000000000 [-]
	 SCS Same-Spin Energy      =      -0.0869530385843541 [Eh]
	 SCS Opposite-Spin Energy  =      -0.9525915484624534 [Eh]
	 SCS Correlation Energy    =      -1.0395445870468076 [Eh]
	 SCS Total Energy          =    -266.1549879317004184 [Eh]
	-----------------------------------------------------------

  Dipole Moment: [D]
     X:     2.8153      Y:    -2.8963      Z:     0.0000     Total:     4.0391

*** Psi4 exiting successfully. Buy a developer a beer!
