                               Psi4 1.3.2 release

  ==> Input File <==

--------------------------------------------------------------------------
#psi4
#
memory 32 gb

molecule  {
-1 1
  O       -1.5879818    -0.7723290    -0.0001723
  O       -0.6117130     1.3130740     0.0001440
  C        0.7486200    -0.6398630     0.0001060
  C       -0.6246240     0.0491590     0.0000370
  C        1.9107360     0.0279630    -0.0001390
  H        0.7354600    -1.7316690     0.0007200
  H        2.8810510    -0.4671120     0.0001950
  H        1.8861710     1.1137650    -0.0007150
units angstrom
no_reorient  #important for SAPT in psi4, default
symmetry c1  #important for SAPT in psi4, default
}

set PROPERTIES_ORIGIN ["COM"]
properties('MP2/aug-cc-pvtz', properties = ['dipole'])
--------------------------------------------------------------------------

    Molecular point group: c1
  Charge       = -1
  Multiplicity = 1
  Basis Set: AUG-CC-PVTZ
    Blend: AUG-CC-PVTZ
  Basis Set: (AUG-CC-PVTZ AUX)
    Blend: AUG-CC-PVTZ-JKFIT

    Orbital Energies [Eh]
    ---------------------

    Doubly Occupied:

       1A    -20.300579     2A    -20.297569     3A    -11.146280
       4A    -11.076068     5A    -11.072876     6A     -1.166260
       7A     -1.071101     8A     -0.877283     9A     -0.659302
      10A     -0.528026    11A     -0.470653    12A     -0.441342
      13A     -0.392491    14A     -0.363173    15A     -0.359351
      16A     -0.218014    17A     -0.211391    18A     -0.208672
      19A     -0.197484

  @DF-RHF Final Energy:  -265.18708188194893

   => Energetics <=

    Nuclear Repulsion Energy =            151.7037680365361609
    One-Electron Energy =                -671.6658713990934757
    Two-Electron Energy =                 254.7750214806083591
    Total Energy =                       -265.1870818819489273
  Basis Set: (AUG-CC-PVTZ AUX)
    Blend: AUG-CC-PVTZ-RI
    Molecular point group: c1

    Geometry (in Angstrom), charge = -1, multiplicity = 1:

       Center              X                  Y                   Z               Mass
    ------------   -----------------  -----------------  -----------------  -----------------
         O           -1.514454650405    -0.783633527064    -0.000169440098    15.994914619570
         O           -0.538185850405     1.301769472936     0.000146859902    15.994914619570
         C            0.822147149595    -0.651167527064     0.000108859902    12.000000000000
         C           -0.551096850405     0.037854472936     0.000039859902    12.000000000000
         C            1.984263149595     0.016658472936    -0.000136140098    12.000000000000
         H            0.808987149595    -1.742973527064     0.000722859902     1.007825032230
         H            2.954578149595    -0.478416527064     0.000197859902     1.007825032230
         H            1.959698149595     1.102460472936    -0.000712140098     1.007825032230

  Basis Set: AUG-CC-PVTZ
    Blend: AUG-CC-PVTZ
  Basis Set: (AUG-CC-PVTZ AUX)
    Blend: AUG-CC-PVTZ-JKFIT
	 Reference Energy          =    -265.1870818819489273 [Eh]
	 Singles Energy            =      -0.0000000000000000 [Eh]
	 Same-Spin Energy          =      -0.2625468005265768 [Eh]
	 Opposite-Spin Energy      =      -0.7969994618779883 [Eh]
	 Correlation Energy        =      -1.0595462624045651 [Eh]
	 Total Energy              =    -266.2466281443535081 [Eh]

	 ================> DF-SCS-MP2 Energies <==================
	-----------------------------------------------------------
	 SCS Same-Spin Scale       =       0.3333333333333333 [-]
	 SCS Opposite-Spin Scale   =       1.2000000000000000 [-]
	 SCS Same-Spin Energy      =      -0.0875156001755256 [Eh]
	 SCS Opposite-Spin Energy  =      -0.9563993542535859 [Eh]
	 SCS Correlation Energy    =      -1.0439149544291115 [Eh]
	 SCS Total Energy          =    -266.2309968363780399 [Eh]
	-----------------------------------------------------------

  Dipole Moment: [D]
     X:     4.2850      Y:    -1.2694      Z:     0.0004     Total:     4.4691

*** Psi4 exiting successfully. Buy a developer a beer!
