                               Psi4 1.4a3.dev225

  ==> Input File <==

--------------------------------------------------------------------------
#psi4
#
memory 32 gb

molecule  {
-1 1
  O       -1.5969950    -0.7592220    -0.0000430
  O       -0.6395240     1.3058710     0.0000360
  C        0.7544360    -0.6310910     0.0000040
  C       -0.6113479     0.0592589     0.0000006
  C        1.9146910     0.0394820     0.0000050
  H        0.7506440    -1.7207470    -0.0000050
  H        2.8778840    -0.4633550     0.0000010
  H        1.9142450     1.1249800     0.0000120
units angstrom
no_reorient  #important for SAPT in psi4, default
symmetry c1  #important for SAPT in psi4, default
}

set PROPERTIES_ORIGIN ["COM"]
properties('MP2/aug-cc-pvtz', properties = ['dipole'])
--------------------------------------------------------------------------

    Molecular point group: c1
  Charge       = -1
  Multiplicity = 1
  Basis Set: AUG-CC-PVTZ
    Blend: AUG-CC-PVTZ
  Basis Set: (AUG-CC-PVTZ AUX)
    Blend: AUG-CC-PVTZ-JKFIT

    Orbital Energies [Eh]
    ---------------------

    Doubly Occupied:

       1A    -20.298368     2A    -20.293635     3A    -11.143633
       4A    -11.078589     5A    -11.075541     6A     -1.167676
       7A     -1.065123     8A     -0.880979     9A     -0.662726
      10A     -0.530875    11A     -0.470666    12A     -0.442945
      13A     -0.389292    14A     -0.363081    15A     -0.362705
      16A     -0.213605    17A     -0.213564    18A     -0.210203
      19A     -0.193903

  @DF-RHF Final Energy:  -265.18739895116482

   => Energetics <=

    Nuclear Repulsion Energy =            151.7585252809431609
    One-Electron Energy =                -671.7776256764294658
    Two-Electron Energy =                 254.8317014443214532
    Total Energy =                       -265.1873989511648233
  Basis Set: (AUG-CC-PVTZ AUX)
    Blend: AUG-CC-PVTZ-RI
    Molecular point group: c1

    Geometry (in Angstrom), charge = -1, multiplicity = 1:

       Center              X                  Y                   Z               Mass
    ------------   -----------------  -----------------  -----------------  -----------------
         O           -1.519637159465    -0.777359350883    -0.000043159100    15.994914619570
         O           -0.562166159465     1.287733649117     0.000035840900    15.994914619570
         C            0.831793840535    -0.649228350883     0.000003840900    12.000000000000
         C           -0.533990059465     0.041121549117     0.000000440900    12.000000000000
         C            1.992048840535     0.021344649117     0.000004840900    12.000000000000
         H            0.828001840535    -1.738884350883    -0.000005159100     1.007825032230
         H            2.955241840535    -0.481492350883     0.000000840900     1.007825032230
         H            1.991602840535     1.106842649117     0.000011840900     1.007825032230

  Basis Set: AUG-CC-PVTZ
    Blend: AUG-CC-PVTZ
  Basis Set: (AUG-CC-PVTZ AUX)
    Blend: AUG-CC-PVTZ-JKFIT
	 Reference Energy          =    -265.1873989511648233 [Eh]
	 Singles Energy            =      -0.0000000000000000 [Eh]
	 Same-Spin Energy          =      -0.2623848438926126 [Eh]
	 Opposite-Spin Energy      =      -0.7967308384123477 [Eh]
	 Correlation Energy        =      -1.0591156823049603 [Eh]
	 Total Energy              =    -266.2465146334697579 [Eh]

	 ================> DF-SCS-MP2 Energies <==================
	-----------------------------------------------------------
	 SCS Same-Spin Scale       =       0.3333333333333333 [-]
	 SCS Opposite-Spin Scale   =       1.2000000000000000 [-]
	 SCS Same-Spin Energy      =      -0.0874616146308709 [Eh]
	 SCS Opposite-Spin Energy  =      -0.9560770060948172 [Eh]
	 SCS Correlation Energy    =      -1.0435386207256880 [Eh]
	 SCS Total Energy          =    -266.2309375718905358 [Eh]
	-----------------------------------------------------------

  Dipole Moment: [D]
     X:     4.5190      Y:    -1.1297      Z:     0.0000     Total:     4.6580

*** Psi4 exiting successfully. Buy a developer a beer!
