                               Psi4 1.3.2 release

  ==> Input File <==

--------------------------------------------------------------------------
#psi4
#
memory 32 gb

molecule  {
-1 1
  O       -1.6021720    -0.7553910    -0.0001730
  O       -0.6117130     1.3130740     0.0001440
  C        0.7486200    -0.6398630     0.0001060
  C       -0.6693426    -0.0483121     0.0000638
  C        1.9107360     0.0279630    -0.0001390
  H        0.7354600    -1.7316690     0.0007200
  H        2.8810510    -0.4671120     0.0001950
  H        1.8861710     1.1137650    -0.0007150
units angstrom
no_reorient  #important for SAPT in psi4, default
symmetry c1  #important for SAPT in psi4, default
}

set PROPERTIES_ORIGIN ["COM"]
properties('MP2/aug-cc-pvtz', properties = ['dipole'])
--------------------------------------------------------------------------

    Molecular point group: c1
  Charge       = -1
  Multiplicity = 1
  Basis Set: AUG-CC-PVTZ
    Blend: AUG-CC-PVTZ
  Basis Set: (AUG-CC-PVTZ AUX)
    Blend: AUG-CC-PVTZ-JKFIT

    Orbital Energies [Eh]
    ---------------------

    Doubly Occupied:

       1A    -20.323946     2A    -20.271606     3A    -11.143445
       4A    -11.077481     5A    -11.073689     6A     -1.211710
       7A     -1.032592     8A     -0.874929     9A     -0.665189
      10A     -0.525501    11A     -0.477413    12A     -0.449716
      13A     -0.395363    14A     -0.377721    15A     -0.358472
      16A     -0.218290    17A     -0.215953    18A     -0.190975
      19A     -0.181500

  @DF-RHF Final Energy:  -265.16947273243528

   => Energetics <=

    Nuclear Repulsion Energy =            151.7046779559590561
    One-Electron Energy =                -671.6173199008566144
    Two-Electron Energy =                 254.7431692124623055
    Total Energy =                       -265.1694727324352812
  Basis Set: (AUG-CC-PVTZ AUX)
    Blend: AUG-CC-PVTZ-RI
    Molecular point group: c1

    Geometry (in Angstrom), charge = -1, multiplicity = 1:

       Center              X                  Y                   Z               Mass
    ------------   -----------------  -----------------  -----------------  -----------------
         O           -1.517892016911    -0.754039710741    -0.000174511160    15.994914619570
         O           -0.527433016911     1.314425289259     0.000142488840    15.994914619570
         C            0.832899983089    -0.638511710741     0.000104488840    12.000000000000
         C           -0.585062616911    -0.046960810741     0.000062288840    12.000000000000
         C            1.995015983089     0.029314289259    -0.000140511160    12.000000000000
         H            0.819739983089    -1.730317710741     0.000718488840     1.007825032230
         H            2.965330983089    -0.465760710741     0.000193488840     1.007825032230
         H            1.970450983089     1.115116289259    -0.000716511160     1.007825032230

  Basis Set: AUG-CC-PVTZ
    Blend: AUG-CC-PVTZ
  Basis Set: (AUG-CC-PVTZ AUX)
    Blend: AUG-CC-PVTZ-JKFIT
	 Reference Energy          =    -265.1694727324352812 [Eh]
	 Singles Energy            =      -0.0000000000000000 [Eh]
	 Same-Spin Energy          =      -0.2622412144413415 [Eh]
	 Opposite-Spin Energy      =      -0.7968276108001751 [Eh]
	 Correlation Energy        =      -1.0590688252415166 [Eh]
	 Total Energy              =    -266.2285415576768060 [Eh]

	 ================> DF-SCS-MP2 Energies <==================
	-----------------------------------------------------------
	 SCS Same-Spin Scale       =       0.3333333333333333 [-]
	 SCS Opposite-Spin Scale   =       1.2000000000000000 [-]
	 SCS Same-Spin Energy      =      -0.0874137381471138 [Eh]
	 SCS Opposite-Spin Energy  =      -0.9561931329602100 [Eh]
	 SCS Correlation Energy    =      -1.0436068711073239 [Eh]
	 SCS Total Energy          =    -266.2130796035426101 [Eh]
	-----------------------------------------------------------

  Dipole Moment: [D]
     X:     3.8763      Y:    -2.3157      Z:     0.0002     Total:     4.5154

*** Psi4 exiting successfully. Buy a developer a beer!
