                               Psi4 1.3.2 release

  ==> Input File <==

--------------------------------------------------------------------------
#psi4
#
memory 32 gb

molecule  {
-1 1
  O       -1.6021720    -0.7553910    -0.0001730
  O       -0.6117130     1.3130740     0.0001440
  C        0.7486200    -0.6398630     0.0001060
  C       -0.5997409     0.0966648     0.0000047
  C        1.9107360     0.0279630    -0.0001390
  H        0.7354600    -1.7316690     0.0007200
  H        2.8810510    -0.4671120     0.0001950
  H        1.8861710     1.1137650    -0.0007150
units angstrom
no_reorient  #important for SAPT in psi4, default
symmetry c1  #important for SAPT in psi4, default
}

set PROPERTIES_ORIGIN ["COM"]
properties('MP2/aug-cc-pvtz', properties = ['dipole'])
--------------------------------------------------------------------------

    Molecular point group: c1
  Charge       = -1
  Multiplicity = 1
  Basis Set: AUG-CC-PVTZ
    Blend: AUG-CC-PVTZ
  Basis Set: (AUG-CC-PVTZ AUX)
    Blend: AUG-CC-PVTZ-JKFIT

    Orbital Energies [Eh]
    ---------------------

    Doubly Occupied:

       1A    -20.308652     2A    -20.287730     3A    -11.145256
       4A    -11.077202     5A    -11.074586     6A     -1.179490
       7A     -1.057459     8A     -0.879972     9A     -0.658341
      10A     -0.531927    11A     -0.471596    12A     -0.444507
      13A     -0.388330    14A     -0.366733    15A     -0.364075
      16A     -0.217562    17A     -0.213824    18A     -0.204365
      19A     -0.192989

  @DF-RHF Final Energy:  -265.18293686960442

   => Energetics <=

    Nuclear Repulsion Energy =            151.7736246694008457
    One-Electron Energy =                -671.7839278652861594
    Two-Electron Energy =                 254.8273663262808668
    Total Energy =                       -265.1829368696044185
  Basis Set: (AUG-CC-PVTZ AUX)
    Blend: AUG-CC-PVTZ-RI
    Molecular point group: c1

    Geometry (in Angstrom), charge = -1, multiplicity = 1:

       Center              X                  Y                   Z               Mass
    ------------   -----------------  -----------------  -----------------  -----------------
         O           -1.529653480594    -0.778538258109    -0.000164524299    15.994914619570
         O           -0.539194480594     1.289926741891     0.000152475701    15.994914619570
         C            0.821138519406    -0.663010258109     0.000114475701    12.000000000000
         C           -0.527222380594     0.073517541891     0.000013175701    12.000000000000
         C            1.983254519406     0.004815741891    -0.000130524299    12.000000000000
         H            0.807978519406    -1.754816258109     0.000728475701     1.007825032230
         H            2.953569519406    -0.490259258109     0.000203475701     1.007825032230
         H            1.958689519406     1.090617741891    -0.000706524299     1.007825032230

  Basis Set: AUG-CC-PVTZ
    Blend: AUG-CC-PVTZ
  Basis Set: (AUG-CC-PVTZ AUX)
    Blend: AUG-CC-PVTZ-JKFIT
	 Reference Energy          =    -265.1829368696044185 [Eh]
	 Singles Energy            =      -0.0000000000000000 [Eh]
	 Same-Spin Energy          =      -0.2626196488484879 [Eh]
	 Opposite-Spin Energy      =      -0.7970939497976068 [Eh]
	 Correlation Energy        =      -1.0597135986460948 [Eh]
	 Total Energy              =    -266.2426504682505310 [Eh]

	 ================> DF-SCS-MP2 Energies <==================
	-----------------------------------------------------------
	 SCS Same-Spin Scale       =       0.3333333333333333 [-]
	 SCS Opposite-Spin Scale   =       1.2000000000000000 [-]
	 SCS Same-Spin Energy      =      -0.0875398829494960 [Eh]
	 SCS Opposite-Spin Energy  =      -0.9565127397571281 [Eh]
	 SCS Correlation Energy    =      -1.0440526227066240 [Eh]
	 SCS Total Energy          =    -266.2269894923110201 [Eh]
	-----------------------------------------------------------

  Dipole Moment: [D]
     X:     4.5840      Y:    -0.8009      Z:     0.0004     Total:     4.6534

*** Psi4 exiting successfully. Buy a developer a beer!
