                               Psi4 1.3.2 release

  ==> Input File <==

--------------------------------------------------------------------------
#psi4
#
memory 32 gb

molecule  {
-1 1
  O       -1.6021720    -0.7553910    -0.0001730
  O       -0.6117130     1.3130740     0.0001440
  C        0.7486200    -0.6398630     0.0001060
  C       -0.6478340     0.0008138     0.0000694
  C        1.9107360     0.0279630    -0.0001390
  H        0.7354600    -1.7316690     0.0007200
  H        2.8810510    -0.4671120     0.0001950
  H        1.8861710     1.1137650    -0.0007150
units angstrom
no_reorient  #important for SAPT in psi4, default
symmetry c1  #important for SAPT in psi4, default
}

set PROPERTIES_ORIGIN ["COM"]
properties('MP2/aug-cc-pvtz', properties = ['dipole'])
--------------------------------------------------------------------------

    Molecular point group: c1
  Charge       = -1
  Multiplicity = 1
  Basis Set: AUG-CC-PVTZ
    Blend: AUG-CC-PVTZ
  Basis Set: (AUG-CC-PVTZ AUX)
    Blend: AUG-CC-PVTZ-JKFIT

    Orbital Energies [Eh]
    ---------------------

    Doubly Occupied:

       1A    -20.312014     2A    -20.283856     3A    -11.145123
       4A    -11.077190     5A    -11.073764     6A     -1.180442
       7A     -1.057278     8A     -0.876547     9A     -0.662499
      10A     -0.525934    11A     -0.473534    12A     -0.442640
      13A     -0.394691    14A     -0.366435    15A     -0.357490
      16A     -0.218609    17A     -0.215096    18A     -0.202236
      19A     -0.190889

  @DF-RHF Final Energy:  -265.18293540761357

   => Energetics <=

    Nuclear Repulsion Energy =            151.6420857968398934
    One-Electron Energy =                -671.5375075718797007
    Two-Electron Energy =                 254.7124863674262656
    Total Energy =                       -265.1829354076135701
  Basis Set: (AUG-CC-PVTZ AUX)
    Blend: AUG-CC-PVTZ-RI
    Molecular point group: c1

    Geometry (in Angstrom), charge = -1, multiplicity = 1:

       Center              X                  Y                   Z               Mass
    ------------   -----------------  -----------------  -----------------  -----------------
         O           -1.521526592184    -0.762341124195    -0.000175457462    15.994914619570
         O           -0.531067592184     1.306123875805     0.000141542538    15.994914619570
         C            0.829265407816    -0.646813124195     0.000103542538    12.000000000000
         C           -0.567188592184    -0.006136324195     0.000066942538    12.000000000000
         C            1.991381407816     0.021012875805    -0.000141457462    12.000000000000
         H            0.816105407816    -1.738619124195     0.000717542538     1.007825032230
         H            2.961696407816    -0.474062124195     0.000192542538     1.007825032230
         H            1.966816407816     1.106814875805    -0.000717457462     1.007825032230

  Basis Set: AUG-CC-PVTZ
    Blend: AUG-CC-PVTZ
  Basis Set: (AUG-CC-PVTZ AUX)
    Blend: AUG-CC-PVTZ-JKFIT
	 Reference Energy          =    -265.1829354076135701 [Eh]
	 Singles Energy            =      -0.0000000000000000 [Eh]
	 Same-Spin Energy          =      -0.2623733514183391 [Eh]
	 Opposite-Spin Energy      =      -0.7968595370785926 [Eh]
	 Correlation Energy        =      -1.0592328884969318 [Eh]
	 Total Energy              =    -266.2421682961104921 [Eh]

	 ================> DF-SCS-MP2 Energies <==================
	-----------------------------------------------------------
	 SCS Same-Spin Scale       =       0.3333333333333333 [-]
	 SCS Opposite-Spin Scale   =       1.2000000000000000 [-]
	 SCS Same-Spin Energy      =      -0.0874577838061130 [Eh]
	 SCS Opposite-Spin Energy  =      -0.9562314444943111 [Eh]
	 SCS Correlation Energy    =      -1.0436892283004242 [Eh]
	 SCS Total Energy          =    -266.2266246359139927 [Eh]
	-----------------------------------------------------------

  Dipole Moment: [D]
     X:     4.0979      Y:    -1.7992      Z:     0.0003     Total:     4.4754

*** Psi4 exiting successfully. Buy a developer a beer!
