                               Psi4 1.3.2 release

  ==> Input File <==

--------------------------------------------------------------------------
#psi4
#
memory 32 gb

molecule  {
0 1
  O        1.8230110    -0.1562000     0.0000460
  N        0.5872960    -0.8583550    -0.0000260
  C       -0.3212742    -0.0877328    -0.0000177
  C       -1.7709560    -0.6228440     0.0000070
  C       -0.2172690     1.4669500    -0.0000150
  H       -1.7049950    -1.7124010    -0.0004820
  H       -2.3322460    -0.2988480     0.8830240
  H       -2.3326640    -0.2980280    -0.8824330
  H       -1.1822450     1.9774040    -0.0005330
  H        0.3560010     1.7784360     0.8780530
  H        0.3569220     1.7783250    -0.8775160
  H        2.4586410    -0.8931450    -0.0001530
units angstrom
no_reorient  #important for SAPT in psi4, default
symmetry c1  #important for SAPT in psi4, default
}

set PROPERTIES_ORIGIN ["COM"]
properties('MP2/aug-cc-pvtz', properties = ['dipole'])
--------------------------------------------------------------------------

    Molecular point group: c1
  Charge       = 0
  Multiplicity = 1
  Basis Set: AUG-CC-PVTZ
    Blend: AUG-CC-PVTZ
  Basis Set: (AUG-CC-PVTZ AUX)
    Blend: AUG-CC-PVTZ-JKFIT

    Orbital Energies [Eh]
    ---------------------

    Doubly Occupied:

       1A    -20.590696     2A    -15.600481     3A    -11.271134
       4A    -11.231275     5A    -11.230097     6A     -1.417578
       7A     -1.191901     8A     -0.989843     9A     -0.948053
      10A     -0.727164    11A     -0.695081    12A     -0.640963
      13A     -0.622306    14A     -0.565460    15A     -0.559681
      16A     -0.558667    17A     -0.544073    18A     -0.511033
      19A     -0.419830    20A     -0.403804

  @DF-RHF Final Energy:  -247.01303537263908

   => Energetics <=

    Nuclear Repulsion Energy =            178.8804320269245807
    One-Electron Energy =                -690.3486954372726814
    Two-Electron Energy =                 264.4552280377089915
    Total Energy =                       -247.0130353726390808
  Basis Set: (AUG-CC-PVTZ AUX)
    Blend: AUG-CC-PVTZ-RI
    Molecular point group: c1

    Geometry (in Angstrom), charge = 0, multiplicity = 1:

       Center              X                  Y                   Z               Mass
    ------------   -----------------  -----------------  -----------------  -----------------
         O            1.751090380676    -0.113880630771     0.000045685527    15.994914619570
         N            0.515375380676    -0.816035630771    -0.000026314473    14.003074004430
         C           -0.393194819324    -0.045413430771    -0.000018014473    12.000000000000
         C           -1.842876619324    -0.580524630771     0.000006685527    12.000000000000
         C           -0.289189619324     1.509269369229    -0.000015314473    12.000000000000
         H           -1.776915619324    -1.670081630771    -0.000482314473     1.007825032230
         H           -2.404166619324    -0.256528630771     0.883023685527     1.007825032230
         H           -2.404584619324    -0.255708630771    -0.882433314473     1.007825032230
         H           -1.254165619324     2.019723369229    -0.000533314473     1.007825032230
         H            0.284080380676     1.820755369229     0.878052685527     1.007825032230
         H            0.285001380676     1.820644369229    -0.877516314473     1.007825032230
         H            2.386720380676    -0.850825630771    -0.000153314473     1.007825032230

  Basis Set: AUG-CC-PVTZ
    Blend: AUG-CC-PVTZ
  Basis Set: (AUG-CC-PVTZ AUX)
    Blend: AUG-CC-PVTZ-JKFIT
	 Reference Energy          =    -247.0130353726390808 [Eh]
	 Singles Energy            =      -0.0000000000000000 [Eh]
	 Same-Spin Energy          =      -0.2450335755191549 [Eh]
	 Opposite-Spin Energy      =      -0.8154822847995411 [Eh]
	 Correlation Energy        =      -1.0605158603186959 [Eh]
	 Total Energy              =    -248.0735512329577830 [Eh]

	 ================> DF-SCS-MP2 Energies <==================
	-----------------------------------------------------------
	 SCS Same-Spin Scale       =       0.3333333333333333 [-]
	 SCS Opposite-Spin Scale   =       1.2000000000000000 [-]
	 SCS Same-Spin Energy      =      -0.0816778585063850 [Eh]
	 SCS Opposite-Spin Energy  =      -0.9785787417594493 [Eh]
	 SCS Correlation Energy    =      -1.0602566002658342 [Eh]
	 SCS Total Energy          =    -248.0732919729049115 [Eh]
	-----------------------------------------------------------

  Dipole Moment: [D]
     X:    -0.6910      Y:     0.4923      Z:    -0.0002     Total:     0.8484

*** Psi4 exiting successfully. Buy a developer a beer!
