                               Psi4 1.3.2 release

  ==> Input File <==

--------------------------------------------------------------------------
#psi4
#
memory 32 gb

molecule  {
0 1
  O        1.8230110    -0.1562000     0.0000460
  N        0.6742403    -0.8089517    -0.0000209
  C       -0.3975370    -0.0230490    -0.0000170
  C       -1.7709560    -0.6228440     0.0000070
  C       -0.2172690     1.4669500    -0.0000150
  H       -1.7049950    -1.7124010    -0.0004820
  H       -2.3322460    -0.2988480     0.8830240
  H       -2.3326640    -0.2980280    -0.8824330
  H       -1.1822450     1.9774040    -0.0005330
  H        0.3560010     1.7784360     0.8780530
  H        0.3569220     1.7783250    -0.8775160
  H        2.4586410    -0.8931450    -0.0001530
units angstrom
no_reorient  #important for SAPT in psi4, default
symmetry c1  #important for SAPT in psi4, default
}

set PROPERTIES_ORIGIN ["COM"]
properties('MP2/aug-cc-pvtz', properties = ['dipole'])
--------------------------------------------------------------------------

    Molecular point group: c1
  Charge       = 0
  Multiplicity = 1
  Basis Set: AUG-CC-PVTZ
    Blend: AUG-CC-PVTZ
  Basis Set: (AUG-CC-PVTZ AUX)
    Blend: AUG-CC-PVTZ-JKFIT

    Orbital Energies [Eh]
    ---------------------

    Doubly Occupied:

       1A    -20.598711     2A    -15.607627     3A    -11.277876
       4A    -11.231275     5A    -11.224993     6A     -1.456396
       7A     -1.141280     8A     -0.986878     9A     -0.955349
      10A     -0.748680    11A     -0.705070    12A     -0.652712
      13A     -0.625722    14A     -0.570946    15A     -0.569700
      16A     -0.550476    17A     -0.547749    18A     -0.516494
      19A     -0.421335    20A     -0.350552

  @DF-RHF Final Energy:  -247.01383968871772

   => Energetics <=

    Nuclear Repulsion Energy =            178.8625163705337684
    One-Electron Energy =                -690.2730686859954403
    Two-Electron Energy =                 264.3967126267439767
    Total Energy =                       -247.0138396887177237
  Basis Set: (AUG-CC-PVTZ AUX)
    Blend: AUG-CC-PVTZ-RI
    Molecular point group: c1

    Geometry (in Angstrom), charge = 0, multiplicity = 1:

       Center              X                  Y                   Z               Mass
    ------------   -----------------  -----------------  -----------------  -----------------
         O            1.746951812178    -0.133975745434     0.000044592951    15.994914619570
         N            0.598181112178    -0.786727445434    -0.000022307049    14.003074004430
         C           -0.473596187822    -0.000824745434    -0.000018407049    12.000000000000
         C           -1.847015187822    -0.600619745434     0.000005592951    12.000000000000
         C           -0.293328187822     1.489174254566    -0.000016407049    12.000000000000
         H           -1.781054187822    -1.690176745434    -0.000483407049     1.007825032230
         H           -2.408305187822    -0.276623745434     0.883022592951     1.007825032230
         H           -2.408723187822    -0.275803745434    -0.882434407049     1.007825032230
         H           -1.258304187822     1.999628254566    -0.000534407049     1.007825032230
         H            0.279941812178     1.800660254566     0.878051592951     1.007825032230
         H            0.280862812178     1.800549254566    -0.877517407049     1.007825032230
         H            2.382581812178    -0.870920745434    -0.000154407049     1.007825032230

  Basis Set: AUG-CC-PVTZ
    Blend: AUG-CC-PVTZ
  Basis Set: (AUG-CC-PVTZ AUX)
    Blend: AUG-CC-PVTZ-JKFIT
	 Reference Energy          =    -247.0138396887177237 [Eh]
	 Singles Energy            =      -0.0000000000000000 [Eh]
	 Same-Spin Energy          =      -0.2479498853479297 [Eh]
	 Opposite-Spin Energy      =      -0.8193489583979420 [Eh]
	 Correlation Energy        =      -1.0672988437458717 [Eh]
	 Total Energy              =    -248.0811385324635978 [Eh]

	 ================> DF-SCS-MP2 Energies <==================
	-----------------------------------------------------------
	 SCS Same-Spin Scale       =       0.3333333333333333 [-]
	 SCS Opposite-Spin Scale   =       1.2000000000000000 [-]
	 SCS Same-Spin Energy      =      -0.0826499617826432 [Eh]
	 SCS Opposite-Spin Energy  =      -0.9832187500775303 [Eh]
	 SCS Correlation Energy    =      -1.0658687118601735 [Eh]
	 SCS Total Energy          =    -248.0797084005778856 [Eh]
	-----------------------------------------------------------

  Dipole Moment: [D]
     X:    -0.3552      Y:     0.4412      Z:    -0.0002     Total:     0.5664

*** Psi4 exiting successfully. Buy a developer a beer!
