                               Psi4 1.3.2 release

  ==> Input File <==

--------------------------------------------------------------------------
#psi4
#
memory 32 gb

molecule  {
0 1
  O        1.8230110    -0.1562000     0.0000460
  N        0.5635439    -0.8148014    -0.0000151
  C       -0.3975370    -0.0230490    -0.0000170
  C       -1.7709560    -0.6228440     0.0000070
  C       -0.2172690     1.4669500    -0.0000150
  H       -1.7049950    -1.7124010    -0.0004820
  H       -2.3322460    -0.2988480     0.8830240
  H       -2.3326640    -0.2980280    -0.8824330
  H       -1.1822450     1.9774040    -0.0005330
  H        0.3560010     1.7784360     0.8780530
  H        0.3569220     1.7783250    -0.8775160
  H        2.4586410    -0.8931450    -0.0001530
units angstrom
no_reorient  #important for SAPT in psi4, default
symmetry c1  #important for SAPT in psi4, default
}

set PROPERTIES_ORIGIN ["COM"]
properties('MP2/aug-cc-pvtz', properties = ['dipole'])
--------------------------------------------------------------------------

    Molecular point group: c1
  Charge       = 0
  Multiplicity = 1
  Basis Set: AUG-CC-PVTZ
    Blend: AUG-CC-PVTZ
  Basis Set: (AUG-CC-PVTZ AUX)
    Blend: AUG-CC-PVTZ-JKFIT

    Orbital Energies [Eh]
    ---------------------

    Doubly Occupied:

       1A    -20.588441     2A    -15.602634     3A    -11.273451
       4A    -11.231179     5A    -11.227616     6A     -1.405959
       7A     -1.178635     8A     -0.993527     9A     -0.958552
      10A     -0.732202    11A     -0.687187    12A     -0.647833
      13A     -0.621172    14A     -0.571653    15A     -0.560627
      16A     -0.549642    17A     -0.543953    18A     -0.521405
      19A     -0.423438    20A     -0.385840

  @DF-RHF Final Energy:  -247.02328467963162

   => Energetics <=

    Nuclear Repulsion Energy =            179.0029755336274491
    One-Electron Energy =                -690.6426283309431255
    Two-Electron Energy =                 264.6163681176840328
    Total Energy =                       -247.0232846796316153
  Basis Set: (AUG-CC-PVTZ AUX)
    Blend: AUG-CC-PVTZ-RI
    Molecular point group: c1

    Geometry (in Angstrom), charge = 0, multiplicity = 1:

       Center              X                  Y                   Z               Mass
    ------------   -----------------  -----------------  -----------------  -----------------
         O            1.768170583372    -0.132854449295     0.000043481181    15.994914619570
         N            0.508703483372    -0.791455849295    -0.000017618819    14.003074004430
         C           -0.452377416628     0.000296550705    -0.000019518819    12.000000000000
         C           -1.825796416628    -0.599498449295     0.000004481181    12.000000000000
         C           -0.272109416628     1.490295550705    -0.000017518819    12.000000000000
         H           -1.759835416628    -1.689055449295    -0.000484518819     1.007825032230
         H           -2.387086416628    -0.275502449295     0.883021481181     1.007825032230
         H           -2.387504416628    -0.274682449295    -0.882435518819     1.007825032230
         H           -1.237085416628     2.000749550705    -0.000535518819     1.007825032230
         H            0.301160583372     1.801781550705     0.878050481181     1.007825032230
         H            0.302081583372     1.801670550705    -0.877518518819     1.007825032230
         H            2.403800583372    -0.869799449295    -0.000155518819     1.007825032230

  Basis Set: AUG-CC-PVTZ
    Blend: AUG-CC-PVTZ
  Basis Set: (AUG-CC-PVTZ AUX)
    Blend: AUG-CC-PVTZ-JKFIT
	 Reference Energy          =    -247.0232846796316153 [Eh]
	 Singles Energy            =      -0.0000000000000000 [Eh]
	 Same-Spin Energy          =      -0.2463510195207263 [Eh]
	 Opposite-Spin Energy      =      -0.8175804919120577 [Eh]
	 Correlation Energy        =      -1.0639315114327841 [Eh]
	 Total Energy              =    -248.0872161910643854 [Eh]

	 ================> DF-SCS-MP2 Energies <==================
	-----------------------------------------------------------
	 SCS Same-Spin Scale       =       0.3333333333333333 [-]
	 SCS Opposite-Spin Scale   =       1.2000000000000000 [-]
	 SCS Same-Spin Energy      =      -0.0821170065069088 [Eh]
	 SCS Opposite-Spin Energy  =      -0.9810965902944693 [Eh]
	 SCS Correlation Energy    =      -1.0632135968013781 [Eh]
	 SCS Total Energy          =    -248.0864982764329909 [Eh]
	-----------------------------------------------------------

  Dipole Moment: [D]
     X:    -0.7450      Y:     0.5051      Z:    -0.0002     Total:     0.9001

*** Psi4 exiting successfully. Buy a developer a beer!
