                               Psi4 1.3.2 release

  ==> Input File <==

--------------------------------------------------------------------------
#psi4
#
memory 32 gb

molecule  {
0 1
  O        1.8230110    -0.1562000     0.0000460
  N        0.5739593    -0.8737752     0.0095826
  C       -0.3975370    -0.0230490    -0.0000170
  C       -1.7709560    -0.6228440     0.0000070
  C       -0.2172690     1.4669500    -0.0000150
  H       -1.7049950    -1.7124010    -0.0004820
  H       -2.3322460    -0.2988480     0.8830240
  H       -2.3326640    -0.2980280    -0.8824330
  H       -1.1822450     1.9774040    -0.0005330
  H        0.3560010     1.7784360     0.8780530
  H        0.3569220     1.7783250    -0.8775160
  H        2.4586410    -0.8931450    -0.0001530
units angstrom
no_reorient  #important for SAPT in psi4, default
symmetry c1  #important for SAPT in psi4, default
}

set PROPERTIES_ORIGIN ["COM"]
properties('MP2/aug-cc-pvtz', properties = ['dipole'])
--------------------------------------------------------------------------

    Molecular point group: c1
  Charge       = 0
  Multiplicity = 1
  Basis Set: AUG-CC-PVTZ
    Blend: AUG-CC-PVTZ
  Basis Set: (AUG-CC-PVTZ AUX)
    Blend: AUG-CC-PVTZ-JKFIT

    Orbital Energies [Eh]
    ---------------------

    Doubly Occupied:

       1A    -20.584873     2A    -15.610754     3A    -11.284288
       4A    -11.232331     5A    -11.231687     6A     -1.395107
       7A     -1.162957     8A     -0.993911     9A     -0.959646
      10A     -0.726649    11A     -0.684697    12A     -0.644328
      13A     -0.617024    14A     -0.570774    15A     -0.560054
      16A     -0.545791    17A     -0.542983    18A     -0.520634
      19A     -0.435037    20A     -0.377460

  @DF-RHF Final Energy:  -247.01981800951046

   => Energetics <=

    Nuclear Repulsion Energy =            177.7316609727859031
    One-Electron Energy =                -688.1409856784736121
    Two-Electron Energy =                 263.3895066961772500
    Total Energy =                       -247.0198180095104590
  Basis Set: (AUG-CC-PVTZ AUX)
    Blend: AUG-CC-PVTZ-RI
    Molecular point group: c1

    Geometry (in Angstrom), charge = 0, multiplicity = 1:

       Center              X                  Y                   Z               Mass
    ------------   -----------------  -----------------  -----------------  -----------------
         O            1.766174113844    -0.121550092797    -0.001796248026    15.994914619570
         N            0.517122413844    -0.839125292797     0.007740351974    14.003074004430
         C           -0.454373886156     0.011600907203    -0.001859248026    12.000000000000
         C           -1.827792886156    -0.588194092797    -0.001835248026    12.000000000000
         C           -0.274105886156     1.501599907203    -0.001857248026    12.000000000000
         H           -1.761831886156    -1.677751092797    -0.002324248026     1.007825032230
         H           -2.389082886156    -0.264198092797     0.881181751974     1.007825032230
         H           -2.389500886156    -0.263378092797    -0.884275248026     1.007825032230
         H           -1.239081886156     2.012053907203    -0.002375248026     1.007825032230
         H            0.299164113844     1.813085907203     0.876210751974     1.007825032230
         H            0.300085113844     1.812974907203    -0.879358248026     1.007825032230
         H            2.401804113844    -0.858495092797    -0.001995248026     1.007825032230

  Basis Set: AUG-CC-PVTZ
    Blend: AUG-CC-PVTZ
  Basis Set: (AUG-CC-PVTZ AUX)
    Blend: AUG-CC-PVTZ-JKFIT
	 Reference Energy          =    -247.0198180095104590 [Eh]
	 Singles Energy            =      -0.0000000000000000 [Eh]
	 Same-Spin Energy          =      -0.2474537893466829 [Eh]
	 Opposite-Spin Energy      =      -0.8209748602028206 [Eh]
	 Correlation Energy        =      -1.0684286495495035 [Eh]
	 Total Energy              =    -248.0882466590599620 [Eh]

	 ================> DF-SCS-MP2 Energies <==================
	-----------------------------------------------------------
	 SCS Same-Spin Scale       =       0.3333333333333333 [-]
	 SCS Opposite-Spin Scale   =       1.2000000000000000 [-]
	 SCS Same-Spin Energy      =      -0.0824845964488943 [Eh]
	 SCS Opposite-Spin Energy  =      -0.9851698322433847 [Eh]
	 SCS Correlation Energy    =      -1.0676544286922791 [Eh]
	 SCS Total Energy          =    -248.0874724382027239 [Eh]
	-----------------------------------------------------------

  Dipole Moment: [D]
     X:    -0.8060      Y:     0.5998      Z:    -0.0108     Total:     1.0047

*** Psi4 exiting successfully. Buy a developer a beer!
