                               Psi4 1.3.2 release

  ==> Input File <==

--------------------------------------------------------------------------
#psi4
#
memory 32 gb

molecule  {
0 1
  O        1.8230110    -0.1562000     0.0000460
  N        0.5003517    -0.9077583    -0.0000311
  C       -0.3975370    -0.0230490    -0.0000170
  C       -1.7709560    -0.6228440     0.0000070
  C       -0.2172690     1.4669500    -0.0000150
  H       -1.7049950    -1.7124010    -0.0004820
  H       -2.3322460    -0.2988480     0.8830240
  H       -2.3326640    -0.2980280    -0.8824330
  H       -1.1822450     1.9774040    -0.0005330
  H        0.3560010     1.7784360     0.8780530
  H        0.3569220     1.7783250    -0.8775160
  H        2.4586410    -0.8931450    -0.0001530
units angstrom
no_reorient  #important for SAPT in psi4, default
symmetry c1  #important for SAPT in psi4, default
}

set PROPERTIES_ORIGIN ["COM"]
properties('MP2/aug-cc-pvtz', properties = ['dipole'])
--------------------------------------------------------------------------

    Molecular point group: c1
  Charge       = 0
  Multiplicity = 1
  Basis Set: AUG-CC-PVTZ
    Blend: AUG-CC-PVTZ
  Basis Set: (AUG-CC-PVTZ AUX)
    Blend: AUG-CC-PVTZ-JKFIT

    Orbital Energies [Eh]
    ---------------------

    Doubly Occupied:

       1A    -20.576242     2A    -15.614371     3A    -11.285717
       4A    -11.235418     5A    -11.232942     6A     -1.365617
       7A     -1.180974     8A     -0.998884     9A     -0.961344
      10A     -0.718693    11A     -0.675574    12A     -0.637323
      13A     -0.617446    14A     -0.570246    15A     -0.559252
      16A     -0.544530    17A     -0.531994    18A     -0.523159
      19A     -0.436587    20A     -0.395142

  @DF-RHF Final Energy:  -247.01244589527786

   => Energetics <=

    Nuclear Repulsion Energy =            177.3153897330418829
    One-Electron Energy =                -687.3327632761489667
    Two-Electron Energy =                 263.0049276478292199
    Total Energy =                       -247.0124458952778355
  Basis Set: (AUG-CC-PVTZ AUX)
    Blend: AUG-CC-PVTZ-RI
    Molecular point group: c1

    Geometry (in Angstrom), charge = 0, multiplicity = 1:

       Center              X                  Y                   Z               Mass
    ------------   -----------------  -----------------  -----------------  -----------------
         O            1.780283541273    -0.115036063223     0.000046548132    15.994914619570
         N            0.457624241273    -0.866594363223    -0.000030551868    14.003074004430
         C           -0.440264458727     0.018114936777    -0.000016451868    12.000000000000
         C           -1.813683458727    -0.581680063223     0.000007548132    12.000000000000
         C           -0.259996458727     1.508113936777    -0.000014451868    12.000000000000
         H           -1.747722458727    -1.671237063223    -0.000481451868     1.007825032230
         H           -2.374973458727    -0.257684063223     0.883024548132     1.007825032230
         H           -2.375391458727    -0.256864063223    -0.882432451868     1.007825032230
         H           -1.224972458727     2.018567936777    -0.000532451868     1.007825032230
         H            0.313273541273     1.819599936777     0.878053548132     1.007825032230
         H            0.314194541273     1.819488936777    -0.877515451868     1.007825032230
         H            2.415913541273    -0.851981063223    -0.000152451868     1.007825032230

  Basis Set: AUG-CC-PVTZ
    Blend: AUG-CC-PVTZ
  Basis Set: (AUG-CC-PVTZ AUX)
    Blend: AUG-CC-PVTZ-JKFIT
	 Reference Energy          =    -247.0124458952778639 [Eh]
	 Singles Energy            =      -0.0000000000000000 [Eh]
	 Same-Spin Energy          =      -0.2475297891121560 [Eh]
	 Opposite-Spin Energy      =      -0.8227397667424294 [Eh]
	 Correlation Energy        =      -1.0702695558545854 [Eh]
	 Total Energy              =    -248.0827154511324579 [Eh]

	 ================> DF-SCS-MP2 Energies <==================
	-----------------------------------------------------------
	 SCS Same-Spin Scale       =       0.3333333333333333 [-]
	 SCS Opposite-Spin Scale   =       1.2000000000000000 [-]
	 SCS Same-Spin Energy      =      -0.0825099297040520 [Eh]
	 SCS Opposite-Spin Energy  =      -0.9872877200909153 [Eh]
	 SCS Correlation Energy    =      -1.0697976497949673 [Eh]
	 SCS Total Energy          =    -248.0822435450728278 [Eh]
	-----------------------------------------------------------

  Dipole Moment: [D]
     X:    -1.0560      Y:     0.6770      Z:    -0.0002     Total:     1.2544

*** Psi4 exiting successfully. Buy a developer a beer!
