                               Psi4 1.4a3.dev225

  ==> Input File <==

--------------------------------------------------------------------------
#psi4
#
memory 32 gb

molecule  {
0 1
  O        1.8229650    -0.1562770     0.0000010
  N        0.5698807    -0.8682319    -0.0000020
  C       -0.3975690    -0.0229950    -0.0000020
  C       -1.7709740    -0.6228220     0.0000010
  C       -0.2171790     1.4669690     0.0000000
  H       -1.7049630    -1.7123800    -0.0000360
  H       -2.3324870    -0.2984810     0.8827490
  H       -2.3325170    -0.2984190    -0.8827050
  H       -1.1820940     1.9775330     0.0000190
  H        0.3565930     1.7783450     0.8777860
  H        0.3565600     1.7783500    -0.8778050
  H        2.4586350    -0.8931860     0.0000030
units angstrom
no_reorient  #important for SAPT in psi4, default
symmetry c1  #important for SAPT in psi4, default
}

set PROPERTIES_ORIGIN ["COM"]
properties('MP2/aug-cc-pvtz', properties = ['dipole'])
--------------------------------------------------------------------------

    Molecular point group: c1
  Charge       = 0
  Multiplicity = 1
  Basis Set: AUG-CC-PVTZ
    Blend: AUG-CC-PVTZ
  Basis Set: (AUG-CC-PVTZ AUX)
    Blend: AUG-CC-PVTZ-JKFIT

    Orbital Energies [Eh]
    ---------------------

    Doubly Occupied:

       1A    -20.584980     2A    -15.609943     3A    -11.283049
       4A    -11.232208     5A    -11.231356     6A     -1.395143
       7A     -1.165419     8A     -0.994067     9A     -0.959603
      10A     -0.726685    11A     -0.684702    12A     -0.644545
      13A     -0.617408    14A     -0.570786    15A     -0.559961
      16A     -0.546242    17A     -0.542841    18A     -0.520863
      19A     -0.433950    20A     -0.379128

  @DF-RHF Final Energy:  -247.02052326158545

   => Energetics <=

    Nuclear Repulsion Energy =            177.8626102900736612
    One-Electron Energy =                -688.4005127449200927
    Two-Electron Energy =                 263.5173791932609220
    Total Energy =                       -247.0205232615854811
  Basis Set: (AUG-CC-PVTZ AUX)
    Blend: AUG-CC-PVTZ-RI
    Molecular point group: c1

    Geometry (in Angstrom), charge = 0, multiplicity = 1:

       Center              X                  Y                   Z               Mass
    ------------   -----------------  -----------------  -----------------  -----------------
         O            1.766909100783    -0.122688664958     0.000001176929    15.994914619570
         N            0.513824800783    -0.834643564958    -0.000001823071    14.003074004430
         C           -0.453624899217     0.010593335042    -0.000001823071    12.000000000000
         C           -1.827029899217    -0.589233664958     0.000001176929    12.000000000000
         C           -0.273234899217     1.500557335042     0.000000176929    12.000000000000
         H           -1.761018899217    -1.678791664958    -0.000035823071     1.007825032230
         H           -2.388542899217    -0.264892664958     0.882749176929     1.007825032230
         H           -2.388572899217    -0.264830664958    -0.882704823071     1.007825032230
         H           -1.238149899217     2.011121335042     0.000019176929     1.007825032230
         H            0.300537100783     1.811933335042     0.877786176929     1.007825032230
         H            0.300504100783     1.811938335042    -0.877804823071     1.007825032230
         H            2.402579100783    -0.859597664958     0.000003176929     1.007825032230

  Basis Set: AUG-CC-PVTZ
    Blend: AUG-CC-PVTZ
  Basis Set: (AUG-CC-PVTZ AUX)
    Blend: AUG-CC-PVTZ-JKFIT
	 Reference Energy          =    -247.0205232615854527 [Eh]
	 Singles Energy            =      -0.0000000000000000 [Eh]
	 Same-Spin Energy          =      -0.2473036331381977 [Eh]
	 Opposite-Spin Energy      =      -0.8205978087212284 [Eh]
	 Correlation Energy        =      -1.0679014418594261 [Eh]
	 Total Energy              =    -248.0884247034448720 [Eh]

	 ================> DF-SCS-MP2 Energies <==================
	-----------------------------------------------------------
	 SCS Same-Spin Scale       =       0.3333333333333333 [-]
	 SCS Opposite-Spin Scale   =       1.2000000000000000 [-]
	 SCS Same-Spin Energy      =      -0.0824345443793992 [Eh]
	 SCS Opposite-Spin Energy  =      -0.9847173704654741 [Eh]
	 SCS Correlation Energy    =      -1.0671519148448734 [Eh]
	 SCS Total Energy          =    -248.0876751764303378 [Eh]
	-----------------------------------------------------------

  Dipole Moment: [D]
     X:    -0.8096      Y:     0.5929      Z:     0.0000     Total:     1.0035

*** Psi4 exiting successfully. Buy a developer a beer!
