                               Psi4 1.3.2 release

  ==> Input File <==

--------------------------------------------------------------------------
#psi4
#
memory 32 gb

molecule  {
0 1
  O        1.8230110    -0.1562000     0.0000460
  N        0.5872960    -0.8583550    -0.0000260
  C       -0.3975370    -0.0230490    -0.0000170
  C       -1.7709560    -0.6228440     0.0000070
  C       -0.2172690     1.4669500    -0.0000150
  H       -1.7049950    -1.7124010    -0.0004820
  H       -2.3322460    -0.2988480     0.8830240
  H       -2.3326640    -0.2980280    -0.8824330
  H       -1.1822450     1.9774040    -0.0005330
  H        0.3560010     1.7784360     0.8780530
  H        0.3569220     1.7783250    -0.8775160
  H        2.3280139    -0.7416968    -0.0001121
units angstrom
no_reorient  #important for SAPT in psi4, default
symmetry c1  #important for SAPT in psi4, default
}

set PROPERTIES_ORIGIN ["COM"]
properties('MP2/aug-cc-pvtz', properties = ['dipole'])
--------------------------------------------------------------------------

    Molecular point group: c1
  Charge       = 0
  Multiplicity = 1
  Basis Set: AUG-CC-PVTZ
    Blend: AUG-CC-PVTZ
  Basis Set: (AUG-CC-PVTZ AUX)
    Blend: AUG-CC-PVTZ-JKFIT

    Orbital Energies [Eh]
    ---------------------

    Doubly Occupied:

       1A    -20.565797     2A    -15.612736     3A    -11.285933
       4A    -11.233994     5A    -11.232099     6A     -1.454619
       7A     -1.184428     8A     -1.001619     9A     -0.962379
      10A     -0.755474    11A     -0.710227    12A     -0.650310
      13A     -0.621210    14A     -0.580729    15A     -0.564801
      16A     -0.550210    17A     -0.549044    18A     -0.523322
      19A     -0.438943    20A     -0.379880

  @DF-RHF Final Energy:  -246.97575739643798

   => Energetics <=

    Nuclear Repulsion Energy =            179.4534550449159269
    One-Electron Energy =                -691.1429159193490932
    Two-Electron Energy =                 264.7137034779951819
    Total Energy =                       -246.9757573964379844
  Basis Set: (AUG-CC-PVTZ AUX)
    Blend: AUG-CC-PVTZ-RI
    Molecular point group: c1

    Geometry (in Angstrom), charge = 0, multiplicity = 1:

       Center              X                  Y                   Z               Mass
    ------------   -----------------  -----------------  -----------------  -----------------
         O            1.765419788711    -0.126595261103     0.000045006291    15.994914619570
         N            0.529704788711    -0.828750261103    -0.000026993709    14.003074004430
         C           -0.455128211289     0.006555738897    -0.000017993709    12.000000000000
         C           -1.828547211289    -0.593239261103     0.000006006291    12.000000000000
         C           -0.274860211289     1.496554738897    -0.000015993709    12.000000000000
         H           -1.762586211289    -1.682796261103    -0.000482993709     1.007825032230
         H           -2.389837211289    -0.269243261103     0.883023006291     1.007825032230
         H           -2.390255211289    -0.268423261103    -0.882433993709     1.007825032230
         H           -1.239836211289     2.007008738897    -0.000533993709     1.007825032230
         H            0.298409788711     1.808040738897     0.878052006291     1.007825032230
         H            0.299330788711     1.807929738897    -0.877516993709     1.007825032230
         H            2.270422688711    -0.712092061103    -0.000113093709     1.007825032230

  Basis Set: AUG-CC-PVTZ
    Blend: AUG-CC-PVTZ
  Basis Set: (AUG-CC-PVTZ AUX)
    Blend: AUG-CC-PVTZ-JKFIT
	 Reference Energy          =    -246.9757573964379844 [Eh]
	 Singles Energy            =      -0.0000000000000000 [Eh]
	 Same-Spin Energy          =      -0.2448002145478089 [Eh]
	 Opposite-Spin Energy      =      -0.8141518933709578 [Eh]
	 Correlation Energy        =      -1.0589521079187667 [Eh]
	 Total Energy              =    -248.0347095043567549 [Eh]

	 ================> DF-SCS-MP2 Energies <==================
	-----------------------------------------------------------
	 SCS Same-Spin Scale       =       0.3333333333333333 [-]
	 SCS Opposite-Spin Scale   =       1.2000000000000000 [-]
	 SCS Same-Spin Energy      =      -0.0816000715159363 [Eh]
	 SCS Opposite-Spin Energy  =      -0.9769822720451493 [Eh]
	 SCS Correlation Energy    =      -1.0585823435610857 [Eh]
	 SCS Total Energy          =    -248.0343397399990693 [Eh]
	-----------------------------------------------------------

  Dipole Moment: [D]
     X:    -1.0023      Y:     0.7298      Z:    -0.0002     Total:     1.2399

*** Psi4 exiting successfully. Buy a developer a beer!
