                               Psi4 1.3.2 release

  ==> Input File <==

--------------------------------------------------------------------------
#psi4
#
memory 32 gb

molecule  {
0 1
  O        1.8230110    -0.1562000     0.0000460
  N        0.5321901    -0.9184625     0.0383793
  C       -0.3975370    -0.0230490    -0.0000170
  C       -1.7709560    -0.6228440     0.0000070
  C       -0.2172690     1.4669500    -0.0000150
  H       -1.7049950    -1.7124010    -0.0004820
  H       -2.3322460    -0.2988480     0.8830240
  H       -2.3326640    -0.2980280    -0.8824330
  H       -1.1822450     1.9774040    -0.0005330
  H        0.3560010     1.7784360     0.8780530
  H        0.3569220     1.7783250    -0.8775160
  H        2.4586410    -0.8931450    -0.0001530
units angstrom
no_reorient  #important for SAPT in psi4, default
symmetry c1  #important for SAPT in psi4, default
}

set PROPERTIES_ORIGIN ["COM"]
properties('MP2/aug-cc-pvtz', properties = ['dipole'])
--------------------------------------------------------------------------

    Molecular point group: c1
  Charge       = 0
  Multiplicity = 1
  Basis Set: AUG-CC-PVTZ
    Blend: AUG-CC-PVTZ
  Basis Set: (AUG-CC-PVTZ AUX)
    Blend: AUG-CC-PVTZ-JKFIT

    Orbital Energies [Eh]
    ---------------------

    Doubly Occupied:

       1A    -20.578063     2A    -15.615970     3A    -11.290059
       4A    -11.235606     5A    -11.233155     6A     -1.371157
       7A     -1.167915     8A     -0.997282     9A     -0.961046
      10A     -0.721091    11A     -0.676817    12A     -0.638262
      13A     -0.615770    14A     -0.570631    15A     -0.559526
      16A     -0.542464    17A     -0.535003    18A     -0.521415
      19A     -0.440593    20A     -0.385248

  @DF-RHF Final Energy:  -247.01275359632970

   => Energetics <=

    Nuclear Repulsion Energy =            176.9334952935930687
    One-Electron Energy =                -686.5783485879259160
    Two-Electron Energy =                 262.6320996980031168
    Total Energy =                       -247.0127535963297305
  Basis Set: (AUG-CC-PVTZ AUX)
    Blend: AUG-CC-PVTZ-RI
    Molecular point group: c1

    Geometry (in Angstrom), charge = 0, multiplicity = 1:

       Center              X                  Y                   Z               Mass
    ------------   -----------------  -----------------  -----------------  -----------------
         O            1.774180617197    -0.112984235245    -0.007316125714    15.994914619570
         N            0.483359717197    -0.875246735245     0.031017174286    14.003074004430
         C           -0.446367382803     0.020166764755    -0.007379125714    12.000000000000
         C           -1.819786382803    -0.579628235245    -0.007355125714    12.000000000000
         C           -0.266099382803     1.510165764755    -0.007377125714    12.000000000000
         H           -1.753825382803    -1.669185235245    -0.007844125714     1.007825032230
         H           -2.381076382803    -0.255632235245     0.875661874286     1.007825032230
         H           -2.381494382803    -0.254812235245    -0.889795125714     1.007825032230
         H           -1.231075382803     2.020619764755    -0.007895125714     1.007825032230
         H            0.307170617197     1.821651764755     0.870690874286     1.007825032230
         H            0.308091617197     1.821540764755    -0.884878125714     1.007825032230
         H            2.409810617197    -0.849929235245    -0.007515125714     1.007825032230

  Basis Set: AUG-CC-PVTZ
    Blend: AUG-CC-PVTZ
  Basis Set: (AUG-CC-PVTZ AUX)
    Blend: AUG-CC-PVTZ-JKFIT
	 Reference Energy          =    -247.0127535963297021 [Eh]
	 Singles Energy            =      -0.0000000000000000 [Eh]
	 Same-Spin Energy          =      -0.2479690931562462 [Eh]
	 Opposite-Spin Energy      =      -0.8235214898706179 [Eh]
	 Correlation Energy        =      -1.0714905830268642 [Eh]
	 Total Energy              =    -248.0842441793565740 [Eh]

	 ================> DF-SCS-MP2 Energies <==================
	-----------------------------------------------------------
	 SCS Same-Spin Scale       =       0.3333333333333333 [-]
	 SCS Opposite-Spin Scale   =       1.2000000000000000 [-]
	 SCS Same-Spin Energy      =      -0.0826563643854154 [Eh]
	 SCS Opposite-Spin Energy  =      -0.9882257878447415 [Eh]
	 SCS Correlation Energy    =      -1.0708821522301568 [Eh]
	 SCS Total Energy          =    -248.0836357485598569 [Eh]
	-----------------------------------------------------------

  Dipole Moment: [D]
     X:    -0.9820      Y:     0.6809      Z:    -0.0407     Total:     1.1957

*** Psi4 exiting successfully. Buy a developer a beer!
