                               Psi4 1.3.2 release

  ==> Input File <==

--------------------------------------------------------------------------
#psi4
#
memory 32 gb

molecule  {
0 1
  O        1.8230110    -0.1562000     0.0000460
  N        0.6392860    -0.9428437    -0.0000475
  C       -0.3975370    -0.0230490    -0.0000170
  C       -1.7709560    -0.6228440     0.0000070
  C       -0.2172690     1.4669500    -0.0000150
  H       -1.7049950    -1.7124010    -0.0004820
  H       -2.3322460    -0.2988480     0.8830240
  H       -2.3326640    -0.2980280    -0.8824330
  H       -1.1822450     1.9774040    -0.0005330
  H        0.3560010     1.7784360     0.8780530
  H        0.3569220     1.7783250    -0.8775160
  H        2.4586410    -0.8931450    -0.0001530
units angstrom
no_reorient  #important for SAPT in psi4, default
symmetry c1  #important for SAPT in psi4, default
}

set PROPERTIES_ORIGIN ["COM"]
properties('MP2/aug-cc-pvtz', properties = ['dipole'])
--------------------------------------------------------------------------

    Molecular point group: c1
  Charge       = 0
  Multiplicity = 1
  Basis Set: AUG-CC-PVTZ
    Blend: AUG-CC-PVTZ
  Basis Set: (AUG-CC-PVTZ AUX)
    Blend: AUG-CC-PVTZ-JKFIT

    Orbital Energies [Eh]
    ---------------------

    Doubly Occupied:

       1A    -20.584330     2A    -15.619898     3A    -11.299815
       4A    -11.235744     5A    -11.234022     6A     -1.400285
       7A     -1.131286     8A     -0.989489     9A     -0.960182
      10A     -0.729000    11A     -0.686129    12A     -0.640703
      13A     -0.613280    14A     -0.572119    15A     -0.561828
      16A     -0.546176    17A     -0.540589    18A     -0.516654
      19A     -0.445597    20A     -0.353615

  @DF-RHF Final Energy:  -246.99976998264276

   => Energetics <=

    Nuclear Repulsion Energy =            176.1411185536243238
    One-Electron Energy =                -684.9602933720082092
    Two-Electron Energy =                 261.8194048357411248
    Total Energy =                       -246.9997699826427606
  Basis Set: (AUG-CC-PVTZ AUX)
    Blend: AUG-CC-PVTZ-RI
    Molecular point group: c1

    Geometry (in Angstrom), charge = 0, multiplicity = 1:

       Center              X                  Y                   Z               Mass
    ------------   -----------------  -----------------  -----------------  -----------------
         O            1.753652005625    -0.108310739953     0.000049691756    15.994914619570
         N            0.569927005625    -0.894954439953    -0.000043808244    14.003074004430
         C           -0.466895994375     0.024840260047    -0.000013308244    12.000000000000
         C           -1.840314994375    -0.574954739953     0.000010691756    12.000000000000
         C           -0.286627994375     1.514839260047    -0.000011308244    12.000000000000
         H           -1.774353994375    -1.664511739953    -0.000478308244     1.007825032230
         H           -2.401604994375    -0.250958739953     0.883027691756     1.007825032230
         H           -2.402022994375    -0.250138739953    -0.882429308244     1.007825032230
         H           -1.251603994375     2.025293260047    -0.000529308244     1.007825032230
         H            0.286642005625     1.826325260047     0.878056691756     1.007825032230
         H            0.287563005625     1.826214260047    -0.877512308244     1.007825032230
         H            2.389282005625    -0.845255739953    -0.000149308244     1.007825032230

  Basis Set: AUG-CC-PVTZ
    Blend: AUG-CC-PVTZ
  Basis Set: (AUG-CC-PVTZ AUX)
    Blend: AUG-CC-PVTZ-JKFIT
	 Reference Energy          =    -246.9997699826427606 [Eh]
	 Singles Energy            =      -0.0000000000000000 [Eh]
	 Same-Spin Energy          =      -0.2499559810057354 [Eh]
	 Opposite-Spin Energy      =      -0.8266775035450350 [Eh]
	 Correlation Energy        =      -1.0766334845507703 [Eh]
	 Total Energy              =    -248.0764034671935292 [Eh]

	 ================> DF-SCS-MP2 Energies <==================
	-----------------------------------------------------------
	 SCS Same-Spin Scale       =       0.3333333333333333 [-]
	 SCS Opposite-Spin Scale   =       1.2000000000000000 [-]
	 SCS Same-Spin Energy      =      -0.0833186603352451 [Eh]
	 SCS Opposite-Spin Energy  =      -0.9920130042540419 [Eh]
	 SCS Correlation Energy    =      -1.0753316645892870 [Eh]
	 SCS Total Energy          =    -248.0751016472320600 [Eh]
	-----------------------------------------------------------

  Dipole Moment: [D]
     X:    -0.6927      Y:     0.6601      Z:    -0.0002     Total:     0.9568

*** Psi4 exiting successfully. Buy a developer a beer!
