                               Psi4 1.3.2 release

  ==> Input File <==

--------------------------------------------------------------------------
#psi4
#
memory 32 gb

molecule  {
0 1
  O        1.8230110    -0.1562000     0.0000460
  N        0.6692142    -0.7508360    -0.0000264
  C       -0.3975370    -0.0230490    -0.0000170
  C       -1.7709560    -0.6228440     0.0000070
  C       -0.2172690     1.4669500    -0.0000150
  H       -1.7049950    -1.7124010    -0.0004820
  H       -2.3322460    -0.2988480     0.8830240
  H       -2.3326640    -0.2980280    -0.8824330
  H       -1.1822450     1.9774040    -0.0005330
  H        0.3560010     1.7784360     0.8780530
  H        0.3569220     1.7783250    -0.8775160
  H        2.4586410    -0.8931450    -0.0001530
units angstrom
no_reorient  #important for SAPT in psi4, default
symmetry c1  #important for SAPT in psi4, default
}

set PROPERTIES_ORIGIN ["COM"]
properties('MP2/aug-cc-pvtz', properties = ['dipole'])
--------------------------------------------------------------------------

    Molecular point group: c1
  Charge       = 0
  Multiplicity = 1
  Basis Set: AUG-CC-PVTZ
    Blend: AUG-CC-PVTZ
  Basis Set: (AUG-CC-PVTZ AUX)
    Blend: AUG-CC-PVTZ-JKFIT

    Orbital Energies [Eh]
    ---------------------

    Doubly Occupied:

       1A    -20.602754     2A    -15.600620     3A    -11.269061
       4A    -11.230281     5A    -11.220605     6A     -1.470895
       7A     -1.152835     8A     -0.987240     9A     -0.953186
      10A     -0.762537    11A     -0.707382    12A     -0.654563
      13A     -0.632912    14A     -0.572446    15A     -0.570490
      16A     -0.551557    17A     -0.545971    18A     -0.516252
      19A     -0.408459    20A     -0.355610

  @DF-RHF Final Energy:  -247.01486700385644

   => Energetics <=

    Nuclear Repulsion Energy =            180.0603090367845311
    One-Electron Energy =                -692.6190436187575870
    Two-Electron Energy =                 265.5438675781166467
    Total Energy =                       -247.0148670038564660
  Basis Set: (AUG-CC-PVTZ AUX)
    Blend: AUG-CC-PVTZ-RI
    Molecular point group: c1

    Geometry (in Angstrom), charge = 0, multiplicity = 1:

       Center              X                  Y                   Z               Mass
    ------------   -----------------  -----------------  -----------------  -----------------
         O            1.747915237058    -0.145115617562     0.000045647215    15.994914619570
         N            0.594118437058    -0.739751617562    -0.000026752785    14.003074004430
         C           -0.472632762942    -0.011964617562    -0.000017352785    12.000000000000
         C           -1.846051762942    -0.611759617562     0.000006647215    12.000000000000
         C           -0.292364762942     1.478034382438    -0.000015352785    12.000000000000
         H           -1.780090762942    -1.701316617562    -0.000482352785     1.007825032230
         H           -2.407341762942    -0.287763617562     0.883023647215     1.007825032230
         H           -2.407759762942    -0.286943617562    -0.882433352785     1.007825032230
         H           -1.257340762942     1.988488382438    -0.000533352785     1.007825032230
         H            0.280905237058     1.789520382438     0.878052647215     1.007825032230
         H            0.281826237058     1.789409382438    -0.877516352785     1.007825032230
         H            2.383545237058    -0.882060617562    -0.000153352785     1.007825032230

  Basis Set: AUG-CC-PVTZ
    Blend: AUG-CC-PVTZ
  Basis Set: (AUG-CC-PVTZ AUX)
    Blend: AUG-CC-PVTZ-JKFIT
	 Reference Energy          =    -247.0148670038564376 [Eh]
	 Singles Energy            =      -0.0000000000000000 [Eh]
	 Same-Spin Energy          =      -0.2470566978687458 [Eh]
	 Opposite-Spin Energy      =      -0.8163713269132882 [Eh]
	 Correlation Energy        =      -1.0634280247820340 [Eh]
	 Total Energy              =    -248.0782950286384789 [Eh]

	 ================> DF-SCS-MP2 Energies <==================
	-----------------------------------------------------------
	 SCS Same-Spin Scale       =       0.3333333333333333 [-]
	 SCS Opposite-Spin Scale   =       1.2000000000000000 [-]
	 SCS Same-Spin Energy      =      -0.0823522326229152 [Eh]
	 SCS Opposite-Spin Energy  =      -0.9796455922959457 [Eh]
	 SCS Correlation Energy    =      -1.0619978249188611 [Eh]
	 SCS Total Energy          =    -248.0768648287752853 [Eh]
	-----------------------------------------------------------

  Dipole Moment: [D]
     X:    -0.2613      Y:     0.3271      Z:    -0.0002     Total:     0.4187

*** Psi4 exiting successfully. Buy a developer a beer!
