                               Psi4 1.3.2 release

  ==> Input File <==

--------------------------------------------------------------------------
#psi4
#
memory 32 gb

molecule  {
0 1
  O        1.7710210    -0.0717113     0.0000484
  N        0.5872960    -0.8583550    -0.0000260
  C       -0.3975370    -0.0230490    -0.0000170
  C       -1.7709560    -0.6228440     0.0000070
  C       -0.2172690     1.4669500    -0.0000150
  H       -1.7049950    -1.7124010    -0.0004820
  H       -2.3322460    -0.2988480     0.8830240
  H       -2.3326640    -0.2980280    -0.8824330
  H       -1.1822450     1.9774040    -0.0005330
  H        0.3560010     1.7784360     0.8780530
  H        0.3569220     1.7783250    -0.8775160
  H        2.4586410    -0.8931450    -0.0001530
units angstrom
no_reorient  #important for SAPT in psi4, default
symmetry c1  #important for SAPT in psi4, default
}

set PROPERTIES_ORIGIN ["COM"]
properties('MP2/aug-cc-pvtz', properties = ['dipole'])
--------------------------------------------------------------------------

    Molecular point group: c1
  Charge       = 0
  Multiplicity = 1
  Basis Set: AUG-CC-PVTZ
    Blend: AUG-CC-PVTZ
  Basis Set: (AUG-CC-PVTZ AUX)
    Blend: AUG-CC-PVTZ-JKFIT

    Orbital Energies [Eh]
    ---------------------

    Doubly Occupied:

       1A    -20.593570     2A    -15.608204     3A    -11.280601
       4A    -11.230818     5A    -11.229312     6A     -1.395324
       7A     -1.150433     8A     -0.990066     9A     -0.957447
      10A     -0.721385    11A     -0.676151    12A     -0.643900
      13A     -0.618484    14A     -0.560534    15A     -0.559162
      16A     -0.542638    17A     -0.541406    18A     -0.517494
      19A     -0.438493    20A     -0.372983

  @DF-RHF Final Energy:  -247.00425768759811

   => Energetics <=

    Nuclear Repulsion Energy =            178.5202488307454303
    One-Electron Energy =                -689.7922035186957146
    Two-Electron Energy =                 264.2676970003521433
    Total Energy =                       -247.0042576875981126
  Basis Set: (AUG-CC-PVTZ AUX)
    Blend: AUG-CC-PVTZ-RI
    Molecular point group: c1

    Geometry (in Angstrom), charge = 0, multiplicity = 1:

       Center              X                  Y                   Z               Mass
    ------------   -----------------  -----------------  -----------------  -----------------
         O            1.723010895748    -0.058516019043     0.000047445061    15.994914619570
         N            0.539285895748    -0.845159719043    -0.000026954939    14.003074004430
         C           -0.445547104252    -0.009853719043    -0.000017954939    12.000000000000
         C           -1.818966104252    -0.609648719043     0.000006045061    12.000000000000
         C           -0.265279104252     1.480145280957    -0.000015954939    12.000000000000
         H           -1.753005104252    -1.699205719043    -0.000482954939     1.007825032230
         H           -2.380256104252    -0.285652719043     0.883023045061     1.007825032230
         H           -2.380674104252    -0.284832719043    -0.882433954939     1.007825032230
         H           -1.230255104252     1.990599280957    -0.000533954939     1.007825032230
         H            0.307990895748     1.791631280957     0.878052045061     1.007825032230
         H            0.308911895748     1.791520280957    -0.877516954939     1.007825032230
         H            2.410630895748    -0.879949719043    -0.000153954939     1.007825032230

  Basis Set: AUG-CC-PVTZ
    Blend: AUG-CC-PVTZ
  Basis Set: (AUG-CC-PVTZ AUX)
    Blend: AUG-CC-PVTZ-JKFIT
	 Reference Energy          =    -247.0042576875981126 [Eh]
	 Singles Energy            =      -0.0000000000000000 [Eh]
	 Same-Spin Energy          =      -0.2492628886412813 [Eh]
	 Opposite-Spin Energy      =      -0.8247192637565767 [Eh]
	 Correlation Energy        =      -1.0739821523978579 [Eh]
	 Total Energy              =    -248.0782398399959732 [Eh]

	 ================> DF-SCS-MP2 Energies <==================
	-----------------------------------------------------------
	 SCS Same-Spin Scale       =       0.3333333333333333 [-]
	 SCS Opposite-Spin Scale   =       1.2000000000000000 [-]
	 SCS Same-Spin Energy      =      -0.0830876295470938 [Eh]
	 SCS Opposite-Spin Energy  =      -0.9896631165078920 [Eh]
	 SCS Correlation Energy    =      -1.0727507460549857 [Eh]
	 SCS Total Energy          =    -248.0770084336531056 [Eh]
	-----------------------------------------------------------

  Dipole Moment: [D]
     X:    -0.6590      Y:     0.4846      Z:    -0.0002     Total:     0.8180

*** Psi4 exiting successfully. Buy a developer a beer!
