                               Psi4 1.4a3.dev225

  ==> Input File <==

--------------------------------------------------------------------------
#psi4
#
memory 32 gb

molecule  {
0 1
  O        1.8229650    -0.1562770     0.0000010
  N        0.5872700    -0.8583520    -0.0000020
  C       -0.3975690    -0.0229950    -0.0000020
  C       -1.7709740    -0.6228220     0.0000010
  C       -0.2171790     1.4669690     0.0000000
  H       -1.7049630    -1.7123800    -0.0000360
  H       -2.3324870    -0.2984810     0.8827490
  H       -2.3325170    -0.2984190    -0.8827050
  H       -1.1820940     1.9775330     0.0000190
  H        0.3565930     1.7783450     0.8777860
  H        0.3565600     1.7783500    -0.8778050
  H        2.4259761    -0.8553258     0.0000029
units angstrom
no_reorient  #important for SAPT in psi4, default
symmetry c1  #important for SAPT in psi4, default
}

set PROPERTIES_ORIGIN ["COM"]
properties('MP2/aug-cc-pvtz', properties = ['dipole'])
--------------------------------------------------------------------------

    Molecular point group: c1
  Charge       = 0
  Multiplicity = 1
  Basis Set: AUG-CC-PVTZ
    Blend: AUG-CC-PVTZ
  Basis Set: (AUG-CC-PVTZ AUX)
    Blend: AUG-CC-PVTZ-JKFIT

    Orbital Energies [Eh]
    ---------------------

    Doubly Occupied:

       1A    -20.582496     2A    -15.609966     3A    -11.283162
       4A    -11.232508     5A    -11.230730     6A     -1.413267
       7A     -1.166471     8A     -0.994772     9A     -0.959851
      10A     -0.733819    11A     -0.694978    12A     -0.647194
      13A     -0.618594    14A     -0.573645    15A     -0.561732
      16A     -0.547728    17A     -0.545799    18A     -0.521043
      19A     -0.434055    20A     -0.375867

  @DF-RHF Final Energy:  -247.02204351549989

   => Energetics <=

    Nuclear Repulsion Energy =            178.3251228986234480
    One-Electron Energy =                -689.2389840511114016
    Two-Electron Energy =                 263.8918176369880371
    Total Energy =                       -247.0220435154998881
  Basis Set: (AUG-CC-PVTZ AUX)
    Blend: AUG-CC-PVTZ-RI
    Molecular point group: c1

    Geometry (in Angstrom), charge = 0, multiplicity = 1:

       Center              X                  Y                   Z               Mass
    ------------   -----------------  -----------------  -----------------  -----------------
         O            1.764026400845    -0.125104801170     0.000001178309    15.994914619570
         N            0.528331400845    -0.827179801170    -0.000001821691    14.003074004430
         C           -0.456507599155     0.008177198830    -0.000001821691    12.000000000000
         C           -1.829912599155    -0.591649801170     0.000001178309    12.000000000000
         C           -0.276117599155     1.498141198830     0.000000178309    12.000000000000
         H           -1.763901599155    -1.681207801170    -0.000035821691     1.007825032230
         H           -2.391425599155    -0.267308801170     0.882749178309     1.007825032230
         H           -2.391455599155    -0.267246801170    -0.882704821691     1.007825032230
         H           -1.241032599155     2.008705198830     0.000019178309     1.007825032230
         H            0.297654400845     1.809517198830     0.877786178309     1.007825032230
         H            0.297621400845     1.809522198830    -0.877804821691     1.007825032230
         H            2.367037500845    -0.824153601170     0.000003078309     1.007825032230

  Basis Set: AUG-CC-PVTZ
    Blend: AUG-CC-PVTZ
  Basis Set: (AUG-CC-PVTZ AUX)
    Blend: AUG-CC-PVTZ-JKFIT
	 Reference Energy          =    -247.0220435154998881 [Eh]
	 Singles Energy            =      -0.0000000000000000 [Eh]
	 Same-Spin Energy          =      -0.2466790326242254 [Eh]
	 Opposite-Spin Energy      =      -0.8185524623964586 [Eh]
	 Correlation Energy        =      -1.0652314950206840 [Eh]
	 Total Energy              =    -248.0872750105205853 [Eh]

	 ================> DF-SCS-MP2 Energies <==================
	-----------------------------------------------------------
	 SCS Same-Spin Scale       =       0.3333333333333333 [-]
	 SCS Opposite-Spin Scale   =       1.2000000000000000 [-]
	 SCS Same-Spin Energy      =      -0.0822263442080751 [Eh]
	 SCS Opposite-Spin Energy  =      -0.9822629548757503 [Eh]
	 SCS Correlation Energy    =      -1.0644892990838255 [Eh]
	 SCS Total Energy          =    -248.0865328145837054 [Eh]
	-----------------------------------------------------------

  Dipole Moment: [D]
     X:    -0.8018      Y:     0.6104      Z:     0.0000     Total:     1.0077

*** Psi4 exiting successfully. Buy a developer a beer!
