                               Psi4 1.3.2 release

  ==> Input File <==

--------------------------------------------------------------------------
#psi4
#
memory 32 gb

molecule  {
0 1
  O        1.8230110    -0.1562000     0.0000460
  N        0.5872960    -0.8583550    -0.0000260
  C       -0.3975370    -0.0230490    -0.0000170
  C       -1.7709560    -0.6228440     0.0000070
  C       -0.2172690     1.4669500    -0.0000150
  H       -1.7049950    -1.7124010    -0.0004820
  H       -2.3322460    -0.2988480     0.8830240
  H       -2.3326640    -0.2980280    -0.8824330
  H       -1.1822450     1.9774040    -0.0005330
  H        0.3560010     1.7784360     0.8780530
  H        0.3569220     1.7783250    -0.8775160
  H        2.5892681    -1.0445932    -0.0001939
units angstrom
no_reorient  #important for SAPT in psi4, default
symmetry c1  #important for SAPT in psi4, default
}

set PROPERTIES_ORIGIN ["COM"]
properties('MP2/aug-cc-pvtz', properties = ['dipole'])
--------------------------------------------------------------------------

    Molecular point group: c1
  Charge       = 0
  Multiplicity = 1
  Basis Set: AUG-CC-PVTZ
    Blend: AUG-CC-PVTZ
  Basis Set: (AUG-CC-PVTZ AUX)
    Blend: AUG-CC-PVTZ-JKFIT

    Orbital Energies [Eh]
    ---------------------

    Doubly Occupied:

       1A    -20.601422     2A    -15.606751     3A    -11.279921
       4A    -11.230764     5A    -11.229147     6A     -1.379517
       7A     -1.146380     8A     -0.987150     9A     -0.956463
      10A     -0.721026    11A     -0.656083    12A     -0.642976
      13A     -0.615766    14A     -0.558728    15A     -0.556581
      16A     -0.543498    17A     -0.541748    18A     -0.516342
      19A     -0.426022    20A     -0.371338

  @DF-RHF Final Energy:  -246.98467252743666

   => Energetics <=

    Nuclear Repulsion Energy =            176.9749841589772075
    One-Electron Energy =                -686.7840701072165075
    Two-Electron Energy =                 262.8244134208026139
    Total Energy =                       -246.9846725274366577
  Basis Set: (AUG-CC-PVTZ AUX)
    Blend: AUG-CC-PVTZ-RI
    Molecular point group: c1

    Geometry (in Angstrom), charge = 0, multiplicity = 1:

       Center              X                  Y                   Z               Mass
    ------------   -----------------  -----------------  -----------------  -----------------
         O            1.761815564741    -0.122416547554     0.000046134792    15.994914619570
         N            0.526100564741    -0.824571547554    -0.000025865208    14.003074004430
         C           -0.458732435259     0.010734452446    -0.000016865208    12.000000000000
         C           -1.832151435259    -0.589060547554     0.000007134792    12.000000000000
         C           -0.278464435259     1.500733452446    -0.000014865208    12.000000000000
         H           -1.766190435259    -1.678617547554    -0.000481865208     1.007825032230
         H           -2.393441435259    -0.265064547554     0.883024134792     1.007825032230
         H           -2.393859435259    -0.264244547554    -0.882432865208     1.007825032230
         H           -1.243440435259     2.011187452446    -0.000532865208     1.007825032230
         H            0.294805564741     1.812219452446     0.878053134792     1.007825032230
         H            0.295726564741     1.812108452446    -0.877515865208     1.007825032230
         H            2.528072664741    -1.010809747554    -0.000193765208     1.007825032230

  Basis Set: AUG-CC-PVTZ
    Blend: AUG-CC-PVTZ
  Basis Set: (AUG-CC-PVTZ AUX)
    Blend: AUG-CC-PVTZ-JKFIT
	 Reference Energy          =    -246.9846725274366577 [Eh]
	 Singles Energy            =      -0.0000000000000000 [Eh]
	 Same-Spin Energy          =      -0.2497566144102384 [Eh]
	 Opposite-Spin Energy      =      -0.8275609606898506 [Eh]
	 Correlation Energy        =      -1.0773175751000892 [Eh]
	 Total Energy              =    -248.0619901025367540 [Eh]

	 ================> DF-SCS-MP2 Energies <==================
	-----------------------------------------------------------
	 SCS Same-Spin Scale       =       0.3333333333333333 [-]
	 SCS Opposite-Spin Scale   =       1.2000000000000000 [-]
	 SCS Same-Spin Energy      =      -0.0832522048034128 [Eh]
	 SCS Opposite-Spin Energy  =      -0.9930731528278207 [Eh]
	 SCS Correlation Energy    =      -1.0763253576312335 [Eh]
	 SCS Total Energy          =    -248.0609978850678772 [Eh]
	-----------------------------------------------------------

  Dipole Moment: [D]
     X:    -0.5469      Y:     0.4161      Z:    -0.0002     Total:     0.6872

*** Psi4 exiting successfully. Buy a developer a beer!
