                               Psi4 1.3.2 release

  ==> Input File <==

--------------------------------------------------------------------------
#psi4
#
memory 32 gb

molecule  {
0 1
  O        1.8689807    -0.2441095     0.0000433
  N        0.5872960    -0.8583550    -0.0000260
  C       -0.3975370    -0.0230490    -0.0000170
  C       -1.7709560    -0.6228440     0.0000070
  C       -0.2172690     1.4669500    -0.0000150
  H       -1.7049950    -1.7124010    -0.0004820
  H       -2.3322460    -0.2988480     0.8830240
  H       -2.3326640    -0.2980280    -0.8824330
  H       -1.1822450     1.9774040    -0.0005330
  H        0.3560010     1.7784360     0.8780530
  H        0.3569220     1.7783250    -0.8775160
  H        2.4586410    -0.8931450    -0.0001530
units angstrom
no_reorient  #important for SAPT in psi4, default
symmetry c1  #important for SAPT in psi4, default
}

set PROPERTIES_ORIGIN ["COM"]
properties('MP2/aug-cc-pvtz', properties = ['dipole'])
--------------------------------------------------------------------------

    Molecular point group: c1
  Charge       = 0
  Multiplicity = 1
  Basis Set: AUG-CC-PVTZ
    Blend: AUG-CC-PVTZ
  Basis Set: (AUG-CC-PVTZ AUX)
    Blend: AUG-CC-PVTZ-JKFIT

    Orbital Energies [Eh]
    ---------------------

    Doubly Occupied:

       1A    -20.578305     2A    -15.610846     3A    -11.284981
       4A    -11.233450     5A    -11.231400     6A     -1.417956
       7A     -1.173580     8A     -0.997452     9A     -0.960585
      10A     -0.749264    11A     -0.693279    12A     -0.647453
      13A     -0.617855    14A     -0.579328    15A     -0.561769
      16A     -0.550490    17A     -0.548120    18A     -0.521868
      19A     -0.425764    20A     -0.377053

  @DF-RHF Final Energy:  -247.01637199042787

   => Energetics <=

    Nuclear Repulsion Energy =            177.6662370163106459
    One-Electron Energy =                -687.8436188634934751
    Two-Electron Energy =                 263.1610098567549585
    Total Energy =                       -247.0163719904278423
  Basis Set: (AUG-CC-PVTZ AUX)
    Blend: AUG-CC-PVTZ-RI
    Molecular point group: c1

    Geometry (in Angstrom), charge = 0, multiplicity = 1:

       Center              X                  Y                   Z               Mass
    ------------   -----------------  -----------------  -----------------  -----------------
         O            1.799522303375    -0.193167604893     0.000043461707    15.994914619570
         N            0.517837603375    -0.807413104893    -0.000025838293    14.003074004430
         C           -0.466995396625     0.027892895107    -0.000016838293    12.000000000000
         C           -1.840414396625    -0.571902104893     0.000007161707    12.000000000000
         C           -0.286727396625     1.517891895107    -0.000014838293    12.000000000000
         H           -1.774453396625    -1.661459104893    -0.000481838293     1.007825032230
         H           -2.401704396625    -0.247906104893     0.883024161707     1.007825032230
         H           -2.402122396625    -0.247086104893    -0.882432838293     1.007825032230
         H           -1.251703396625     2.028345895107    -0.000532838293     1.007825032230
         H            0.286542603375     1.829377895107     0.878053161707     1.007825032230
         H            0.287463603375     1.829266895107    -0.877515838293     1.007825032230
         H            2.389182603375    -0.842203104893    -0.000152838293     1.007825032230

  Basis Set: AUG-CC-PVTZ
    Blend: AUG-CC-PVTZ
  Basis Set: (AUG-CC-PVTZ AUX)
    Blend: AUG-CC-PVTZ-JKFIT
	 Reference Energy          =    -247.0163719904278707 [Eh]
	 Singles Energy            =      -0.0000000000000000 [Eh]
	 Same-Spin Energy          =      -0.2456263559443806 [Eh]
	 Opposite-Spin Energy      =      -0.8164542078616128 [Eh]
	 Correlation Energy        =      -1.0620805638059934 [Eh]
	 Total Energy              =    -248.0784525542338770 [Eh]

	 ================> DF-SCS-MP2 Energies <==================
	-----------------------------------------------------------
	 SCS Same-Spin Scale       =       0.3333333333333333 [-]
	 SCS Opposite-Spin Scale   =       1.2000000000000000 [-]
	 SCS Same-Spin Energy      =      -0.0818754519814602 [Eh]
	 SCS Opposite-Spin Energy  =      -0.9797450494339354 [Eh]
	 SCS Correlation Energy    =      -1.0616205014153957 [Eh]
	 SCS Total Energy          =    -248.0779924918432755 [Eh]
	-----------------------------------------------------------

  Dipole Moment: [D]
     X:    -0.8469      Y:     0.6613      Z:    -0.0002     Total:     1.0745

*** Psi4 exiting successfully. Buy a developer a beer!
