                               Psi4 1.4a3.dev225

  ==> Input File <==

--------------------------------------------------------------------------
#psi4
#
memory 32 gb

molecule  {
0 1
  O        1.8229650    -0.1562770     0.0000010
  N        0.5872700    -0.8583520    -0.0000020
  C       -0.3975690    -0.0229950    -0.0000020
  C       -1.7709740    -0.6228220     0.0000010
  C       -0.2171790     1.4669690     0.0000000
  H       -1.7049630    -1.7123800    -0.0000360
  H       -2.3324870    -0.2984810     0.8827490
  H       -2.3325170    -0.2984190    -0.8827050
  H       -1.1820940     1.9775330     0.0000190
  H        0.3565930     1.7783450     0.8777860
  H        0.3565600     1.7783500    -0.8778050
  H        2.4912939    -0.9310462     0.0000031
units angstrom
no_reorient  #important for SAPT in psi4, default
symmetry c1  #important for SAPT in psi4, default
}

set PROPERTIES_ORIGIN ["COM"]
properties('MP2/aug-cc-pvtz', properties = ['dipole'])
--------------------------------------------------------------------------

    Molecular point group: c1
  Charge       = 0
  Multiplicity = 1
  Basis Set: AUG-CC-PVTZ
    Blend: AUG-CC-PVTZ
  Basis Set: (AUG-CC-PVTZ AUX)
    Blend: AUG-CC-PVTZ-JKFIT

    Orbital Energies [Eh]
    ---------------------

    Doubly Occupied:

       1A    -20.591270     2A    -15.608447     3A    -11.281626
       4A    -11.231686     5A    -11.229974     6A     -1.395896
       7A     -1.156880     8A     -0.991123     9A     -0.958326
      10A     -0.726410    11A     -0.679223    12A     -0.645338
      13A     -0.617224    14A     -0.567578    15A     -0.560239
      16A     -0.546140    17A     -0.543898    18A     -0.519403
      19A     -0.430871    20A     -0.373700

  @DF-RHF Final Energy:  -247.01585240525003

   => Energetics <=

    Nuclear Repulsion Energy =            177.7238473464349511
    One-Electron Energy =                -688.1688991851797255
    Two-Electron Energy =                 263.4291994334947731
    Total Energy =                       -247.0158524052500297
  Basis Set: (AUG-CC-PVTZ AUX)
    Blend: AUG-CC-PVTZ-RI
    Molecular point group: c1

    Geometry (in Angstrom), charge = 0, multiplicity = 1:

       Center              X                  Y                   Z               Mass
    ------------   -----------------  -----------------  -----------------  -----------------
         O            1.763125286220    -0.124060173828     0.000001175549    15.994914619570
         N            0.527430286220    -0.826135173828    -0.000001824451    14.003074004430
         C           -0.457408713780     0.009221826172    -0.000001824451    12.000000000000
         C           -1.830813713780    -0.590605173828     0.000001175549    12.000000000000
         C           -0.277018713780     1.499185826172     0.000000175549    12.000000000000
         H           -1.764802713780    -1.680163173828    -0.000035824451     1.007825032230
         H           -2.392326713780    -0.266264173828     0.882749175549     1.007825032230
         H           -2.392356713780    -0.266202173828    -0.882704824451     1.007825032230
         H           -1.241933713780     2.009749826172     0.000019175549     1.007825032230
         H            0.296753286220     1.810561826172     0.877786175549     1.007825032230
         H            0.296720286220     1.810566826172    -0.877804824451     1.007825032230
         H            2.431454186220    -0.898829373828     0.000003275549     1.007825032230

  Basis Set: AUG-CC-PVTZ
    Blend: AUG-CC-PVTZ
  Basis Set: (AUG-CC-PVTZ AUX)
    Blend: AUG-CC-PVTZ-JKFIT
	 Reference Energy          =    -247.0158524052500297 [Eh]
	 Singles Energy            =      -0.0000000000000000 [Eh]
	 Same-Spin Energy          =      -0.2479608936856485 [Eh]
	 Opposite-Spin Energy      =      -0.8219505132134449 [Eh]
	 Correlation Energy        =      -1.0699114068990934 [Eh]
	 Total Energy              =    -248.0857638121491107 [Eh]

	 ================> DF-SCS-MP2 Energies <==================
	-----------------------------------------------------------
	 SCS Same-Spin Scale       =       0.3333333333333333 [-]
	 SCS Opposite-Spin Scale   =       1.2000000000000000 [-]
	 SCS Same-Spin Energy      =      -0.0826536312285495 [Eh]
	 SCS Opposite-Spin Energy  =      -0.9863406158561339 [Eh]
	 SCS Correlation Energy    =      -1.0689942470846834 [Eh]
	 SCS Total Energy          =    -248.0848466523347042 [Eh]
	-----------------------------------------------------------

  Dipole Moment: [D]
     X:    -0.6859      Y:     0.5297      Z:     0.0000     Total:     0.8667

*** Psi4 exiting successfully. Buy a developer a beer!
