                               Psi4 1.3.2 release

  ==> Input File <==

--------------------------------------------------------------------------
#psi4
#
memory 32 gb

molecule  {
0 1
  O        1.8350771    -0.1778731     0.0000453
  N        0.5872960    -0.8583550    -0.0000260
  C       -0.3975370    -0.0230490    -0.0000170
  C       -1.7709560    -0.6228440     0.0000070
  C       -0.2172690     1.4669500    -0.0000150
  H       -1.7049950    -1.7124010    -0.0004820
  H       -2.3322460    -0.2988480     0.8830240
  H       -2.3326640    -0.2980280    -0.8824330
  H       -1.1822450     1.9774040    -0.0005330
  H        0.3560010     1.7784360     0.8780530
  H        0.3569220     1.7783250    -0.8775160
  H        2.4586410    -0.8931450    -0.0001530
units angstrom
no_reorient  #important for SAPT in psi4, default
symmetry c1  #important for SAPT in psi4, default
}

set PROPERTIES_ORIGIN ["COM"]
properties('MP2/aug-cc-pvtz', properties = ['dipole'])
--------------------------------------------------------------------------

    Molecular point group: c1
  Charge       = 0
  Multiplicity = 1
  Basis Set: AUG-CC-PVTZ
    Blend: AUG-CC-PVTZ
  Basis Set: (AUG-CC-PVTZ AUX)
    Blend: AUG-CC-PVTZ-JKFIT

    Orbital Energies [Eh]
    ---------------------

    Doubly Occupied:

       1A    -20.585134     2A    -15.609517     3A    -11.282932
       4A    -11.232410     5A    -11.230598     6A     -1.406715
       7A     -1.164360     8A     -0.993837     9A     -0.959450
      10A     -0.733310    11A     -0.689544    12A     -0.646637
      13A     -0.617815    14A     -0.573232    15A     -0.561101
      16A     -0.547866    17A     -0.545647    18A     -0.520704
      19A     -0.430841    20A     -0.375275

  @DF-RHF Final Energy:  -247.02246619254569

   => Energetics <=

    Nuclear Repulsion Energy =            177.9096735595062171
    One-Electron Energy =                -688.4504264278450592
    Two-Electron Energy =                 263.5182866757930924
    Total Energy =                       -247.0224661925457212
  Basis Set: (AUG-CC-PVTZ AUX)
    Blend: AUG-CC-PVTZ-RI
    Molecular point group: c1

    Geometry (in Angstrom), charge = 0, multiplicity = 1:

       Center              X                  Y                   Z               Mass
    ------------   -----------------  -----------------  -----------------  -----------------
         O            1.773041902153    -0.141433675531     0.000045023806    15.994914619570
         N            0.525260802153    -0.821915575531    -0.000026276194    14.003074004430
         C           -0.459572197847     0.013390424469    -0.000017276194    12.000000000000
         C           -1.832991197847    -0.586404575531     0.000006723806    12.000000000000
         C           -0.279304197847     1.503389424469    -0.000015276194    12.000000000000
         H           -1.767030197847    -1.675961575531    -0.000482276194     1.007825032230
         H           -2.394281197847    -0.262408575531     0.883023723806     1.007825032230
         H           -2.394699197847    -0.261588575531    -0.882433276194     1.007825032230
         H           -1.244280197847     2.013843424469    -0.000533276194     1.007825032230
         H            0.293965802153     1.814875424469     0.878052723806     1.007825032230
         H            0.294886802153     1.814764424469    -0.877516276194     1.007825032230
         H            2.396605802153    -0.856705575531    -0.000153276194     1.007825032230

  Basis Set: AUG-CC-PVTZ
    Blend: AUG-CC-PVTZ
  Basis Set: (AUG-CC-PVTZ AUX)
    Blend: AUG-CC-PVTZ-JKFIT
	 Reference Energy          =    -247.0224661925456928 [Eh]
	 Singles Energy            =      -0.0000000000000000 [Eh]
	 Same-Spin Energy          =      -0.2468746874991065 [Eh]
	 Opposite-Spin Energy      =      -0.8192010455095384 [Eh]
	 Correlation Energy        =      -1.0660757330086450 [Eh]
	 Total Energy              =    -248.0885419255543241 [Eh]

	 ================> DF-SCS-MP2 Energies <==================
	-----------------------------------------------------------
	 SCS Same-Spin Scale       =       0.3333333333333333 [-]
	 SCS Opposite-Spin Scale   =       1.2000000000000000 [-]
	 SCS Same-Spin Energy      =      -0.0822915624997022 [Eh]
	 SCS Opposite-Spin Energy  =      -0.9830412546114461 [Eh]
	 SCS Correlation Energy    =      -1.0653328171111482 [Eh]
	 SCS Total Energy          =    -248.0877990096568340 [Eh]
	-----------------------------------------------------------

  Dipole Moment: [D]
     X:    -0.7663      Y:     0.5922      Z:    -0.0002     Total:     0.9685

*** Psi4 exiting successfully. Buy a developer a beer!
