                               Psi4 1.4a3.dev225

  ==> Input File <==

--------------------------------------------------------------------------
#psi4
#
memory 32 gb

molecule  {
0 1
  O        1.8229650    -0.1562770     0.0000010
  N        0.6046593    -0.8484721    -0.0000020
  C       -0.3975690    -0.0229950    -0.0000020
  C       -1.7709740    -0.6228220     0.0000010
  C       -0.2171790     1.4669690     0.0000000
  H       -1.7049630    -1.7123800    -0.0000360
  H       -2.3324870    -0.2984810     0.8827490
  H       -2.3325170    -0.2984190    -0.8827050
  H       -1.1820940     1.9775330     0.0000190
  H        0.3565930     1.7783450     0.8777860
  H        0.3565600     1.7783500    -0.8778050
  H        2.4586350    -0.8931860     0.0000030
units angstrom
no_reorient  #important for SAPT in psi4, default
symmetry c1  #important for SAPT in psi4, default
}

set PROPERTIES_ORIGIN ["COM"]
properties('MP2/aug-cc-pvtz', properties = ['dipole'])
--------------------------------------------------------------------------

    Molecular point group: c1
  Charge       = 0
  Multiplicity = 1
  Basis Set: AUG-CC-PVTZ
    Blend: AUG-CC-PVTZ
  Basis Set: (AUG-CC-PVTZ AUX)
    Blend: AUG-CC-PVTZ-JKFIT

    Orbital Energies [Eh]
    ---------------------

    Doubly Occupied:

       1A    -20.589272     2A    -15.608543     3A    -11.281624
       4A    -11.231950     5A    -11.229303     6A     -1.412977
       7A     -1.157380     8A     -0.991626     9A     -0.958471
      10A     -0.732709    11A     -0.690316    12A     -0.647830
      13A     -0.618604    14A     -0.570679    15A     -0.562373
      16A     -0.547663    17A     -0.546273    18A     -0.519590
      19A     -0.430691    20A     -0.370178

  @DF-RHF Final Energy:  -247.02121581281557

   => Energetics <=

    Nuclear Repulsion Energy =            178.1681275976903294
    One-Electron Energy =                -688.9825832392565417
    Two-Electron Energy =                 263.7932398287506430
    Total Energy =                       -247.0212158128155693
  Basis Set: (AUG-CC-PVTZ AUX)
    Blend: AUG-CC-PVTZ-RI
    Molecular point group: c1

    Geometry (in Angstrom), charge = 0, multiplicity = 1:

       Center              X                  Y                   Z               Mass
    ------------   -----------------  -----------------  -----------------  -----------------
         O            1.760242586282    -0.126476310040     0.000001176929    15.994914619570
         N            0.541936886282    -0.818671410040    -0.000001823071    14.003074004430
         C           -0.460291413718     0.006805689960    -0.000001823071    12.000000000000
         C           -1.833696413718    -0.593021310040     0.000001176929    12.000000000000
         C           -0.279901413718     1.496769689960     0.000000176929    12.000000000000
         H           -1.767685413718    -1.682579310040    -0.000035823071     1.007825032230
         H           -2.395209413718    -0.268680310040     0.882749176929     1.007825032230
         H           -2.395239413718    -0.268618310040    -0.882704823071     1.007825032230
         H           -1.244816413718     2.007333689960     0.000019176929     1.007825032230
         H            0.293870586282     1.808145689960     0.877786176929     1.007825032230
         H            0.293837586282     1.808150689960    -0.877804823071     1.007825032230
         H            2.395912586282    -0.863385310040     0.000003176929     1.007825032230

  Basis Set: AUG-CC-PVTZ
    Blend: AUG-CC-PVTZ
  Basis Set: (AUG-CC-PVTZ AUX)
    Blend: AUG-CC-PVTZ-JKFIT
	 Reference Energy          =    -247.0212158128155693 [Eh]
	 Singles Energy            =      -0.0000000000000000 [Eh]
	 Same-Spin Energy          =      -0.2473806362593012 [Eh]
	 Opposite-Spin Energy      =      -0.8198978626220784 [Eh]
	 Correlation Energy        =      -1.0672784988813797 [Eh]
	 Total Energy              =    -248.0884943116969623 [Eh]

	 ================> DF-SCS-MP2 Energies <==================
	-----------------------------------------------------------
	 SCS Same-Spin Scale       =       0.3333333333333333 [-]
	 SCS Opposite-Spin Scale   =       1.2000000000000000 [-]
	 SCS Same-Spin Energy      =      -0.0824602120864337 [Eh]
	 SCS Opposite-Spin Energy  =      -0.9838774351464941 [Eh]
	 SCS Correlation Energy    =      -1.0663376472329278 [Eh]
	 SCS Total Energy          =    -248.0875534600484968 [Eh]
	-----------------------------------------------------------

  Dipole Moment: [D]
     X:    -0.6711      Y:     0.5459      Z:     0.0000     Total:     0.8651

*** Psi4 exiting successfully. Buy a developer a beer!
