                               Psi4 1.3.2 release

  ==> Input File <==

--------------------------------------------------------------------------
#psi4
#
memory 32 gb

molecule  {
0 1
  O        1.8230110    -0.1562000     0.0000460
  N        0.5872960    -0.8583550    -0.0000260
  C       -0.3975370    -0.0230490    -0.0000170
  C       -1.7709560    -0.6228440     0.0000070
  C       -0.2172690     1.4669500    -0.0000150
  H       -1.7049950    -1.7124010    -0.0004820
  H       -2.3322460    -0.2988480     0.8830240
  H       -2.3326640    -0.2980280    -0.8824330
  H       -1.1822450     1.9774040    -0.0005330
  H        0.3560010     1.7784360     0.8780530
  H        0.3569220     1.7783250    -0.8775160
  H        2.5239546    -0.9688691    -0.0001734
units angstrom
no_reorient  #important for SAPT in psi4, default
symmetry c1  #important for SAPT in psi4, default
}

set PROPERTIES_ORIGIN ["COM"]
properties('MP2/aug-cc-pvtz', properties = ['dipole'])
--------------------------------------------------------------------------

    Molecular point group: c1
  Charge       = 0
  Multiplicity = 1
  Basis Set: AUG-CC-PVTZ
    Blend: AUG-CC-PVTZ
  Basis Set: (AUG-CC-PVTZ AUX)
    Blend: AUG-CC-PVTZ-JKFIT

    Orbital Energies [Eh]
    ---------------------

    Doubly Occupied:

       1A    -20.595003     2A    -15.607799     3A    -11.280972
       4A    -11.231335     5A    -11.229655     6A     -1.389352
       7A     -1.152892     8A     -0.989611     9A     -0.957639
      10A     -0.724106    11A     -0.671012    12A     -0.644495
      13A     -0.616657    14A     -0.564097    15A     -0.559642
      16A     -0.545341    17A     -0.543073    18A     -0.518500
      19A     -0.429280    20A     -0.372804

  @DF-RHF Final Energy:  -247.00737635924239

   => Energetics <=

    Nuclear Repulsion Energy =            177.4560124995653041
    One-Electron Energy =                -687.6802427483823976
    Two-Electron Energy =                 263.2168538895747361
    Total Energy =                       -247.0073763592423575
  Basis Set: (AUG-CC-PVTZ AUX)
    Blend: AUG-CC-PVTZ-RI
    Molecular point group: c1

    Geometry (in Angstrom), charge = 0, multiplicity = 1:

       Center              X                  Y                   Z               Mass
    ------------   -----------------  -----------------  -----------------  -----------------
         O            1.762716620043    -0.123461225941     0.000045851977    15.994914619570
         N            0.527001620043    -0.825616225941    -0.000026148023    14.003074004430
         C           -0.457831379957     0.009689774059    -0.000017148023    12.000000000000
         C           -1.831250379957    -0.590105225941     0.000006851977    12.000000000000
         C           -0.277563379957     1.499688774059    -0.000015148023    12.000000000000
         H           -1.765289379957    -1.679662225941    -0.000482148023     1.007825032230
         H           -2.392540379957    -0.266109225941     0.883023851977     1.007825032230
         H           -2.392958379957    -0.265289225941    -0.882433148023     1.007825032230
         H           -1.242539379957     2.010142774059    -0.000533148023     1.007825032230
         H            0.295706620043     1.811174774059     0.878052851977     1.007825032230
         H            0.296627620043     1.811063774059    -0.877516148023     1.007825032230
         H            2.463660220043    -0.936130325941    -0.000173548023     1.007825032230

  Basis Set: AUG-CC-PVTZ
    Blend: AUG-CC-PVTZ
  Basis Set: (AUG-CC-PVTZ AUX)
    Blend: AUG-CC-PVTZ-JKFIT
	 Reference Energy          =    -247.0073763592423859 [Eh]
	 Singles Energy            =      -0.0000000000000000 [Eh]
	 Same-Spin Energy          =      -0.2485787193482942 [Eh]
	 Opposite-Spin Energy      =      -0.8237560510102637 [Eh]
	 Correlation Energy        =      -1.0723347703585580 [Eh]
	 Total Energy              =    -248.0797111296009518 [Eh]

	 ================> DF-SCS-MP2 Energies <==================
	-----------------------------------------------------------
	 SCS Same-Spin Scale       =       0.3333333333333333 [-]
	 SCS Opposite-Spin Scale   =       1.2000000000000000 [-]
	 SCS Same-Spin Energy      =      -0.0828595731160981 [Eh]
	 SCS Opposite-Spin Energy  =      -0.9885072612123165 [Eh]
	 SCS Correlation Energy    =      -1.0713668343284146 [Eh]
	 SCS Total Energy          =    -248.0787431935708014 [Eh]
	-----------------------------------------------------------

  Dipole Moment: [D]
     X:    -0.6349      Y:     0.4904      Z:    -0.0002     Total:     0.8023

*** Psi4 exiting successfully. Buy a developer a beer!
