                               Psi4 1.3.2 release

  ==> Input File <==

--------------------------------------------------------------------------
#psi4
#
memory 32 gb

molecule  {
0 1
  O        1.8230110    -0.1562000     0.0000460
  N        0.6017241    -0.8410401    -0.0000261
  C       -0.3975370    -0.0230490    -0.0000170
  C       -1.7709560    -0.6228440     0.0000070
  C       -0.2172690     1.4669500    -0.0000150
  H       -1.7049950    -1.7124010    -0.0004820
  H       -2.3322460    -0.2988480     0.8830240
  H       -2.3326640    -0.2980280    -0.8824330
  H       -1.1822450     1.9774040    -0.0005330
  H        0.3560010     1.7784360     0.8780530
  H        0.3569220     1.7783250    -0.8775160
  H        2.4586410    -0.8931450    -0.0001530
units angstrom
no_reorient  #important for SAPT in psi4, default
symmetry c1  #important for SAPT in psi4, default
}

set PROPERTIES_ORIGIN ["COM"]
properties('MP2/aug-cc-pvtz', properties = ['dipole'])
--------------------------------------------------------------------------

    Molecular point group: c1
  Charge       = 0
  Multiplicity = 1
  Basis Set: AUG-CC-PVTZ
    Blend: AUG-CC-PVTZ
  Basis Set: (AUG-CC-PVTZ AUX)
    Blend: AUG-CC-PVTZ-JKFIT

    Orbital Energies [Eh]
    ---------------------

    Doubly Occupied:

       1A    -20.589594     2A    -15.607511     3A    -11.280210
       4A    -11.231803     5A    -11.228809     6A     -1.413728
       7A     -1.159801     8A     -0.991743     9A     -0.958338
      10A     -0.733337    11A     -0.690407    12A     -0.648208
      13A     -0.619133    14A     -0.570728    15A     -0.562417
      16A     -0.548135    17A     -0.546161    18A     -0.519748
      19A     -0.429253    20A     -0.371690

  @DF-RHF Final Energy:  -247.02207625811116

   => Energetics <=

    Nuclear Repulsion Energy =            178.3298577583553879
    One-Electron Energy =                -689.3023589713852743
    Two-Electron Energy =                 263.9504249549187307
    Total Energy =                       -247.0220762581111558
  Basis Set: (AUG-CC-PVTZ AUX)
    Blend: AUG-CC-PVTZ-RI
    Molecular point group: c1

    Geometry (in Angstrom), charge = 0, multiplicity = 1:

       Center              X                  Y                   Z               Mass
    ------------   -----------------  -----------------  -----------------  -----------------
         O            1.760852035271    -0.127824900261     0.000045589710    15.994914619570
         N            0.539565135271    -0.812665000261    -0.000026510290    14.003074004430
         C           -0.459695964729     0.005326099739    -0.000017410290    12.000000000000
         C           -1.833114964729    -0.594468900261     0.000006589710    12.000000000000
         C           -0.279427964729     1.495325099739    -0.000015410290    12.000000000000
         H           -1.767153964729    -1.684025900261    -0.000482410290     1.007825032230
         H           -2.394404964729    -0.270472900261     0.883023589710     1.007825032230
         H           -2.394822964729    -0.269652900261    -0.882433410290     1.007825032230
         H           -1.244403964729     2.005779099739    -0.000533410290     1.007825032230
         H            0.293842035271     1.806811099739     0.878052589710     1.007825032230
         H            0.294763035271     1.806700099739    -0.877516410290     1.007825032230
         H            2.396482035271    -0.864769900261    -0.000153410290     1.007825032230

  Basis Set: AUG-CC-PVTZ
    Blend: AUG-CC-PVTZ
  Basis Set: (AUG-CC-PVTZ AUX)
    Blend: AUG-CC-PVTZ-JKFIT
	 Reference Energy          =    -247.0220762581111558 [Eh]
	 Singles Energy            =      -0.0000000000000000 [Eh]
	 Same-Spin Energy          =      -0.2472079990302449 [Eh]
	 Opposite-Spin Energy      =      -0.8194268754852896 [Eh]
	 Correlation Energy        =      -1.0666348745155345 [Eh]
	 Total Energy              =    -248.0887111326266847 [Eh]

	 ================> DF-SCS-MP2 Energies <==================
	-----------------------------------------------------------
	 SCS Same-Spin Scale       =       0.3333333333333333 [-]
	 SCS Opposite-Spin Scale   =       1.2000000000000000 [-]
	 SCS Same-Spin Energy      =      -0.0824026663434150 [Eh]
	 SCS Opposite-Spin Energy  =      -0.9833122505823475 [Eh]
	 SCS Correlation Energy    =      -1.0657149169257625 [Eh]
	 SCS Total Energy          =    -248.0877911750369265 [Eh]
	-----------------------------------------------------------

  Dipole Moment: [D]
     X:    -0.6689      Y:     0.5348      Z:    -0.0002     Total:     0.8564

*** Psi4 exiting successfully. Buy a developer a beer!
