                               Psi4 1.3.2 release

  ==> Input File <==

--------------------------------------------------------------------------
#psi4
#
memory 32 gb

molecule  {
0 1
  O        1.8230110    -0.1562000     0.0000460
  N        0.7611846    -0.7595484    -0.0000159
  C       -0.3975370    -0.0230490    -0.0000170
  C       -1.7709560    -0.6228440     0.0000070
  C       -0.2172690     1.4669500    -0.0000150
  H       -1.7049950    -1.7124010    -0.0004820
  H       -2.3322460    -0.2988480     0.8830240
  H       -2.3326640    -0.2980280    -0.8824330
  H       -1.1822450     1.9774040    -0.0005330
  H        0.3560010     1.7784360     0.8780530
  H        0.3569220     1.7783250    -0.8775160
  H        2.4586410    -0.8931450    -0.0001530
units angstrom
no_reorient  #important for SAPT in psi4, default
symmetry c1  #important for SAPT in psi4, default
}

set PROPERTIES_ORIGIN ["COM"]
properties('MP2/aug-cc-pvtz', properties = ['dipole'])
--------------------------------------------------------------------------

    Molecular point group: c1
  Charge       = 0
  Multiplicity = 1
  Basis Set: AUG-CC-PVTZ
    Blend: AUG-CC-PVTZ
  Basis Set: (AUG-CC-PVTZ AUX)
    Blend: AUG-CC-PVTZ-JKFIT

    Orbital Energies [Eh]
    ---------------------

    Doubly Occupied:

       1A    -20.614912     2A    -15.610831     3A    -11.269800
       4A    -11.229260     5A    -11.218794     6A     -1.529211
       7A     -1.121918     8A     -0.982387     9A     -0.949277
      10A     -0.774443    11A     -0.733357    12A     -0.654644
      13A     -0.650694    14A     -0.577868    15A     -0.566705
      16A     -0.552232    17A     -0.544790    18A     -0.510902
      19A     -0.406104    20A     -0.323152

  @DF-RHF Final Energy:  -246.98237073267552

   => Energetics <=

    Nuclear Repulsion Energy =            179.9363719000043886
    One-Electron Energy =                -692.1949209093939999
    Two-Electron Energy =                 265.2761782767141199
    Total Energy =                       -246.9823707326755198
  Basis Set: (AUG-CC-PVTZ AUX)
    Blend: AUG-CC-PVTZ-RI
    Molecular point group: c1

    Geometry (in Angstrom), charge = 0, multiplicity = 1:

       Center              X                  Y                   Z               Mass
    ------------   -----------------  -----------------  -----------------  -----------------
         O            1.730285947630    -0.143445586539     0.000043634529    15.994914619570
         N            0.668459547630    -0.746793986539    -0.000018265471    14.003074004430
         C           -0.490262052370    -0.010294586539    -0.000019365471    12.000000000000
         C           -1.863681052370    -0.610089586539     0.000004634529    12.000000000000
         C           -0.309994052370     1.479704413461    -0.000017365471    12.000000000000
         H           -1.797720052370    -1.699646586539    -0.000484365471     1.007825032230
         H           -2.424971052370    -0.286093586539     0.883021634529     1.007825032230
         H           -2.425389052370    -0.285273586539    -0.882435365471     1.007825032230
         H           -1.274970052370     1.990158413461    -0.000535365471     1.007825032230
         H            0.263275947630     1.791190413461     0.878050634529     1.007825032230
         H            0.264196947630     1.791079413461    -0.877518365471     1.007825032230
         H            2.365915947630    -0.880390586539    -0.000155365471     1.007825032230

  Basis Set: AUG-CC-PVTZ
    Blend: AUG-CC-PVTZ
  Basis Set: (AUG-CC-PVTZ AUX)
    Blend: AUG-CC-PVTZ-JKFIT
	 Reference Energy          =    -246.9823707326755198 [Eh]
	 Singles Energy            =      -0.0000000000000000 [Eh]
	 Same-Spin Energy          =      -0.2493979868900766 [Eh]
	 Opposite-Spin Energy      =      -0.8201772660565059 [Eh]
	 Correlation Energy        =      -1.0695752529465825 [Eh]
	 Total Energy              =    -248.0519459856220976 [Eh]

	 ================> DF-SCS-MP2 Energies <==================
	-----------------------------------------------------------
	 SCS Same-Spin Scale       =       0.3333333333333333 [-]
	 SCS Opposite-Spin Scale   =       1.2000000000000000 [-]
	 SCS Same-Spin Energy      =      -0.0831326622966922 [Eh]
	 SCS Opposite-Spin Energy  =      -0.9842127192678070 [Eh]
	 SCS Correlation Energy    =      -1.0673453815644991 [Eh]
	 SCS Total Energy          =    -248.0497161142400273 [Eh]
	-----------------------------------------------------------

  Dipole Moment: [D]
     X:     0.1172      Y:     0.2952      Z:    -0.0002     Total:     0.3176

*** Psi4 exiting successfully. Buy a developer a beer!
