                               Psi4 1.3.2 release

  ==> Input File <==

--------------------------------------------------------------------------
#psi4
#
memory 32 gb

molecule  {
0 1
  O        1.8230110    -0.1562000     0.0000460
  N        0.5872960    -0.8583550    -0.0000260
  C       -0.5500625     0.1063186    -0.0000156
  C       -1.7709560    -0.6228440     0.0000070
  C       -0.2172690     1.4669500    -0.0000150
  H       -1.7049950    -1.7124010    -0.0004820
  H       -2.3322460    -0.2988480     0.8830240
  H       -2.3326640    -0.2980280    -0.8824330
  H       -1.1822450     1.9774040    -0.0005330
  H        0.3560010     1.7784360     0.8780530
  H        0.3569220     1.7783250    -0.8775160
  H        2.4586410    -0.8931450    -0.0001530
units angstrom
no_reorient  #important for SAPT in psi4, default
symmetry c1  #important for SAPT in psi4, default
}

set PROPERTIES_ORIGIN ["COM"]
properties('MP2/aug-cc-pvtz', properties = ['dipole'])
--------------------------------------------------------------------------

    Molecular point group: c1
  Charge       = 0
  Multiplicity = 1
  Basis Set: AUG-CC-PVTZ
    Blend: AUG-CC-PVTZ
  Basis Set: (AUG-CC-PVTZ AUX)
    Blend: AUG-CC-PVTZ-JKFIT

    Orbital Energies [Eh]
    ---------------------

    Doubly Occupied:

       1A    -20.580523     2A    -15.614457     3A    -11.302154
       4A    -11.235838     5A    -11.232597     6A     -1.385299
       7A     -1.137635     8A     -0.989297     9A     -0.972750
      10A     -0.737482    11A     -0.673665    12A     -0.650976
      13A     -0.622740    14A     -0.591666    15A     -0.566406
      16A     -0.554164    17A     -0.541097    18A     -0.514137
      19A     -0.420155    20A     -0.323585

  @DF-RHF Final Energy:  -246.95128385081262

   => Energetics <=

    Nuclear Repulsion Energy =            176.8047283510719012
    One-Electron Energy =                -686.2187797818100989
    Two-Electron Energy =                 262.4627675799255826
    Total Energy =                       -246.9512838508126151
  Basis Set: (AUG-CC-PVTZ AUX)
    Blend: AUG-CC-PVTZ-RI
    Molecular point group: c1

    Geometry (in Angstrom), charge = 0, multiplicity = 1:

       Center              X                  Y                   Z               Mass
    ------------   -----------------  -----------------  -----------------  -----------------
         O            1.788672252399    -0.145756451443     0.000045340571    15.994914619570
         N            0.552957252399    -0.847911451443    -0.000026659429    14.003074004430
         C           -0.584401247601     0.116762148557    -0.000016259429    12.000000000000
         C           -1.805294747601    -0.612400451443     0.000006340571    12.000000000000
         C           -0.251607747601     1.477393548557    -0.000015659429    12.000000000000
         H           -1.739333747601    -1.701957451443    -0.000482659429     1.007825032230
         H           -2.366584747601    -0.288404451443     0.883023340571     1.007825032230
         H           -2.367002747601    -0.287584451443    -0.882433659429     1.007825032230
         H           -1.216583747601     1.987847548557    -0.000533659429     1.007825032230
         H            0.321662252399     1.788879548557     0.878052340571     1.007825032230
         H            0.322583252399     1.788768548557    -0.877516659429     1.007825032230
         H            2.424302252399    -0.882701451443    -0.000153659429     1.007825032230

  Basis Set: AUG-CC-PVTZ
    Blend: AUG-CC-PVTZ
  Basis Set: (AUG-CC-PVTZ AUX)
    Blend: AUG-CC-PVTZ-JKFIT
	 Reference Energy          =    -246.9512838508126151 [Eh]
	 Singles Energy            =      -0.0000000000000000 [Eh]
	 Same-Spin Energy          =      -0.2556509963299632 [Eh]
	 Opposite-Spin Energy      =      -0.8356891612668383 [Eh]
	 Correlation Energy        =      -1.0913401575968016 [Eh]
	 Total Energy              =    -248.0426240084094047 [Eh]

	 ================> DF-SCS-MP2 Energies <==================
	-----------------------------------------------------------
	 SCS Same-Spin Scale       =       0.3333333333333333 [-]
	 SCS Opposite-Spin Scale   =       1.2000000000000000 [-]
	 SCS Same-Spin Energy      =      -0.0852169987766544 [Eh]
	 SCS Opposite-Spin Energy  =      -1.0028269935202059 [Eh]
	 SCS Correlation Energy    =      -1.0880439922968603 [Eh]
	 SCS Total Energy          =    -248.0393278431094757 [Eh]
	-----------------------------------------------------------

  Dipole Moment: [D]
     X:    -0.6721      Y:     0.5773      Z:    -0.0002     Total:     0.8860

*** Psi4 exiting successfully. Buy a developer a beer!
