                               Psi4 1.3.2 release

  ==> Input File <==

--------------------------------------------------------------------------
#psi4
#
memory 32 gb

molecule  {
0 1
  O        1.8230110    -0.1562000     0.0000460
  N        0.4134074    -0.9571616    -0.0000361
  C       -0.3975370    -0.0230490    -0.0000170
  C       -1.7709560    -0.6228440     0.0000070
  C       -0.2172690     1.4669500    -0.0000150
  H       -1.7049950    -1.7124010    -0.0004820
  H       -2.3322460    -0.2988480     0.8830240
  H       -2.3326640    -0.2980280    -0.8824330
  H       -1.1822450     1.9774040    -0.0005330
  H        0.3560010     1.7784360     0.8780530
  H        0.3569220     1.7783250    -0.8775160
  H        2.4586410    -0.8931450    -0.0001530
units angstrom
no_reorient  #important for SAPT in psi4, default
symmetry c1  #important for SAPT in psi4, default
}

set PROPERTIES_ORIGIN ["COM"]
properties('MP2/aug-cc-pvtz', properties = ['dipole'])
--------------------------------------------------------------------------

    Molecular point group: c1
  Charge       = 0
  Multiplicity = 1
  Basis Set: AUG-CC-PVTZ
    Blend: AUG-CC-PVTZ
  Basis Set: (AUG-CC-PVTZ AUX)
    Blend: AUG-CC-PVTZ-JKFIT

    Orbital Energies [Eh]
    ---------------------

    Doubly Occupied:

       1A    -20.563524     2A    -15.622673     3A    -11.289924
       4A    -11.240638     5A    -11.234944     6A     -1.337884
       7A     -1.198061     8A     -1.004768     9A     -0.963145
      10A     -0.715365    11A     -0.666519    12A     -0.629139
      13A     -0.620165    14A     -0.567988    15A     -0.561295
      16A     -0.546593    17A     -0.525958    18A     -0.517081
      19A     -0.431221    20A     -0.411158

  @DF-RHF Final Energy:  -246.99319856146784

   => Energetics <=

    Nuclear Repulsion Energy =            176.7175529984092179
    One-Electron Energy =                -686.1254177950399935
    Two-Electron Energy =                 262.4146662351629402
    Total Energy =                       -246.9931985614678069
  Basis Set: (AUG-CC-PVTZ AUX)
    Blend: AUG-CC-PVTZ-RI
    Molecular point group: c1

    Geometry (in Angstrom), charge = 0, multiplicity = 1:

       Center              X                  Y                   Z               Mass
    ------------   -----------------  -----------------  -----------------  -----------------
         O            1.796949405821    -0.105566222118     0.000047506554    15.994914619570
         N            0.387345805821    -0.906527822118    -0.000034593446    14.003074004430
         C           -0.423598594179     0.027584777882    -0.000015493446    12.000000000000
         C           -1.797017594179    -0.572210222118     0.000008506554    12.000000000000
         C           -0.243330594179     1.517583777882    -0.000013493446    12.000000000000
         H           -1.731056594179    -1.661767222118    -0.000480493446     1.007825032230
         H           -2.358307594179    -0.248214222118     0.883025506554     1.007825032230
         H           -2.358725594179    -0.247394222118    -0.882431493446     1.007825032230
         H           -1.208306594179     2.028037777882    -0.000531493446     1.007825032230
         H            0.329939405821     1.829069777882     0.878054506554     1.007825032230
         H            0.330860405821     1.828958777882    -0.877514493446     1.007825032230
         H            2.432579405821    -0.842511222118    -0.000151493446     1.007825032230

  Basis Set: AUG-CC-PVTZ
    Blend: AUG-CC-PVTZ
  Basis Set: (AUG-CC-PVTZ AUX)
    Blend: AUG-CC-PVTZ-JKFIT
	 Reference Energy          =    -246.9931985614678354 [Eh]
	 Singles Energy            =      -0.0000000000000000 [Eh]
	 Same-Spin Energy          =      -0.2484055363255862 [Eh]
	 Opposite-Spin Energy      =      -0.8264193713685735 [Eh]
	 Correlation Energy        =      -1.0748249076941596 [Eh]
	 Total Energy              =    -248.0680234691620001 [Eh]

	 ================> DF-SCS-MP2 Energies <==================
	-----------------------------------------------------------
	 SCS Same-Spin Scale       =       0.3333333333333333 [-]
	 SCS Opposite-Spin Scale   =       1.2000000000000000 [-]
	 SCS Same-Spin Energy      =      -0.0828018454418621 [Eh]
	 SCS Opposite-Spin Energy  =      -0.9917032456422881 [Eh]
	 SCS Correlation Energy    =      -1.0745050910841500 [Eh]
	 SCS Total Energy          =    -248.0677036525519839 [Eh]
	-----------------------------------------------------------

  Dipole Moment: [D]
     X:    -1.3207      Y:     0.7685      Z:    -0.0002     Total:     1.5280

*** Psi4 exiting successfully. Buy a developer a beer!
