                               Psi4 1.3.2 release

  ==> Input File <==

--------------------------------------------------------------------------
#psi4
#
memory 32 gb

molecule  {
0 1
  O        1.8230110    -0.1562000     0.0000460
  N        0.6376039    -0.7941780    -0.0384313
  C       -0.3975370    -0.0230490    -0.0000170
  C       -1.7709560    -0.6228440     0.0000070
  C       -0.2172690     1.4669500    -0.0000150
  H       -1.7049950    -1.7124010    -0.0004820
  H       -2.3322460    -0.2988480     0.8830240
  H       -2.3326640    -0.2980280    -0.8824330
  H       -1.1822450     1.9774040    -0.0005330
  H        0.3560010     1.7784360     0.8780530
  H        0.3569220     1.7783250    -0.8775160
  H        2.4586410    -0.8931450    -0.0001530
units angstrom
no_reorient  #important for SAPT in psi4, default
symmetry c1  #important for SAPT in psi4, default
}

set PROPERTIES_ORIGIN ["COM"]
properties('MP2/aug-cc-pvtz', properties = ['dipole'])
--------------------------------------------------------------------------

    Molecular point group: c1
  Charge       = 0
  Multiplicity = 1
  Basis Set: AUG-CC-PVTZ
    Blend: AUG-CC-PVTZ
  Basis Set: (AUG-CC-PVTZ AUX)
    Blend: AUG-CC-PVTZ-JKFIT

    Orbital Energies [Eh]
    ---------------------

    Doubly Occupied:

       1A    -20.596155     2A    -15.603621     3A    -11.274562
       4A    -11.231083     5A    -11.224677     6A     -1.441665
       7A     -1.155964     8A     -0.989157     9A     -0.956009
      10A     -0.746497    11A     -0.698569    12A     -0.652302
      13A     -0.624458    14A     -0.570617    15A     -0.567780
      16A     -0.550556    17A     -0.547002    18A     -0.518153
      19A     -0.419378    20A     -0.363413

  @DF-RHF Final Energy:  -247.02078526324149

   => Energetics <=

    Nuclear Repulsion Energy =            179.1958843849484140
    One-Electron Energy =                -690.9701037165202706
    Two-Electron Energy =                 264.7534340683304208
    Total Energy =                       -247.0207852632414642
  Basis Set: (AUG-CC-PVTZ AUX)
    Blend: AUG-CC-PVTZ-RI
    Molecular point group: c1

    Geometry (in Angstrom), charge = 0, multiplicity = 1:

       Center              X                  Y                   Z               Mass
    ------------   -----------------  -----------------  -----------------  -----------------
         O            1.753974437927    -0.136807633011     0.007407266796    15.994914619570
         N            0.568567337927    -0.774785633011    -0.031070033204    14.003074004430
         C           -0.466573562073    -0.003656633011     0.007344266796    12.000000000000
         C           -1.839992562073    -0.603451633011     0.007368266796    12.000000000000
         C           -0.286305562073     1.486342366989     0.007346266796    12.000000000000
         H           -1.774031562073    -1.693008633011     0.006879266796     1.007825032230
         H           -2.401282562073    -0.279455633011     0.890385266796     1.007825032230
         H           -2.401700562073    -0.278635633011    -0.875071733204     1.007825032230
         H           -1.251281562073     1.996796366989     0.006828266796     1.007825032230
         H            0.286964437927     1.797828366989     0.885414266796     1.007825032230
         H            0.287885437927     1.797717366989    -0.870154733204     1.007825032230
         H            2.389604437927    -0.873752633011     0.007208266796     1.007825032230

  Basis Set: AUG-CC-PVTZ
    Blend: AUG-CC-PVTZ
  Basis Set: (AUG-CC-PVTZ AUX)
    Blend: AUG-CC-PVTZ-JKFIT
	 Reference Energy          =    -247.0207852632414927 [Eh]
	 Singles Energy            =      -0.0000000000000000 [Eh]
	 Same-Spin Energy          =      -0.2470398982922515 [Eh]
	 Opposite-Spin Energy      =      -0.8176713679573263 [Eh]
	 Correlation Energy        =      -1.0647112662495779 [Eh]
	 Total Energy              =    -248.0854965294910812 [Eh]

	 ================> DF-SCS-MP2 Energies <==================
	-----------------------------------------------------------
	 SCS Same-Spin Scale       =       0.3333333333333333 [-]
	 SCS Opposite-Spin Scale   =       1.2000000000000000 [-]
	 SCS Same-Spin Energy      =      -0.0823466327640838 [Eh]
	 SCS Opposite-Spin Energy  =      -0.9812056415487915 [Eh]
	 SCS Correlation Energy    =      -1.0635522743128754 [Eh]
	 SCS Total Energy          =    -248.0843375375543758 [Eh]
	-----------------------------------------------------------

  Dipole Moment: [D]
     X:    -0.4670      Y:     0.4330      Z:     0.0454     Total:     0.6385

*** Psi4 exiting successfully. Buy a developer a beer!
