                               Psi4 1.3.2 release

  ==> Input File <==

--------------------------------------------------------------------------
#psi4
#
memory 32 gb

molecule  {
0 1
  O        1.8230110    -0.1562000     0.0000460
  N        0.4945877    -0.9567222    -0.0000255
  C       -0.3975370    -0.0230490    -0.0000170
  C       -1.7709560    -0.6228440     0.0000070
  C       -0.2172690     1.4669500    -0.0000150
  H       -1.7049950    -1.7124010    -0.0004820
  H       -2.3322460    -0.2988480     0.8830240
  H       -2.3326640    -0.2980280    -0.8824330
  H       -1.1822450     1.9774040    -0.0005330
  H        0.3560010     1.7784360     0.8780530
  H        0.3569220     1.7783250    -0.8775160
  H        2.4586410    -0.8931450    -0.0001530
units angstrom
no_reorient  #important for SAPT in psi4, default
symmetry c1  #important for SAPT in psi4, default
}

set PROPERTIES_ORIGIN ["COM"]
properties('MP2/aug-cc-pvtz', properties = ['dipole'])
--------------------------------------------------------------------------

    Molecular point group: c1
  Charge       = 0
  Multiplicity = 1
  Basis Set: AUG-CC-PVTZ
    Blend: AUG-CC-PVTZ
  Basis Set: (AUG-CC-PVTZ AUX)
    Blend: AUG-CC-PVTZ-JKFIT

    Orbital Energies [Eh]
    ---------------------

    Doubly Occupied:

       1A    -20.572021     2A    -15.621024     3A    -11.294979
       4A    -11.238842     5A    -11.233966     6A     -1.353087
       7A     -1.172500     8A     -1.000388     9A     -0.961878
      10A     -0.719211    11A     -0.670600    12A     -0.633356
      13A     -0.615788    14A     -0.570234    15A     -0.560357
      16A     -0.540486    17A     -0.526821    18A     -0.521729
      19A     -0.442180    20A     -0.391686

  @DF-RHF Final Energy:  -247.00411230250265

   => Energetics <=

    Nuclear Repulsion Energy =            176.3059458536555724
    One-Electron Energy =                -685.3378496004577300
    Two-Electron Energy =                 262.0277914442995666
    Total Energy =                       -247.0041123025026195
  Basis Set: (AUG-CC-PVTZ AUX)
    Blend: AUG-CC-PVTZ-RI
    Molecular point group: c1

    Geometry (in Angstrom), charge = 0, multiplicity = 1:

       Center              X                  Y                   Z               Mass
    ------------   -----------------  -----------------  -----------------  -----------------
         O            1.781388410060    -0.105650448236     0.000045474699    15.994914619570
         N            0.452965110060    -0.906172648236    -0.000026025301    14.003074004430
         C           -0.439159589940     0.027500551764    -0.000017525301    12.000000000000
         C           -1.812578589940    -0.572294448236     0.000006474699    12.000000000000
         C           -0.258891589940     1.517499551764    -0.000015525301    12.000000000000
         H           -1.746617589940    -1.661851448236    -0.000482525301     1.007825032230
         H           -2.373868589940    -0.248298448236     0.883023474699     1.007825032230
         H           -2.374286589940    -0.247478448236    -0.882433525301     1.007825032230
         H           -1.223867589940     2.027953551764    -0.000533525301     1.007825032230
         H            0.314378410060     1.828985551764     0.878052474699     1.007825032230
         H            0.315299410060     1.828874551764    -0.877516525301     1.007825032230
         H            2.417018410060    -0.842595448236    -0.000153525301     1.007825032230

  Basis Set: AUG-CC-PVTZ
    Blend: AUG-CC-PVTZ
  Basis Set: (AUG-CC-PVTZ AUX)
    Blend: AUG-CC-PVTZ-JKFIT
	 Reference Energy          =    -247.0041123025026479 [Eh]
	 Singles Energy            =      -0.0000000000000000 [Eh]
	 Same-Spin Energy          =      -0.2485435220827903 [Eh]
	 Opposite-Spin Energy      =      -0.8259342796281565 [Eh]
	 Correlation Energy        =      -1.0744778017109469 [Eh]
	 Total Energy              =    -248.0785901042135890 [Eh]

	 ================> DF-SCS-MP2 Energies <==================
	-----------------------------------------------------------
	 SCS Same-Spin Scale       =       0.3333333333333333 [-]
	 SCS Opposite-Spin Scale   =       1.2000000000000000 [-]
	 SCS Same-Spin Energy      =      -0.0828478406942634 [Eh]
	 SCS Opposite-Spin Energy  =      -0.9911211355537877 [Eh]
	 SCS Correlation Energy    =      -1.0739689762480511 [Eh]
	 SCS Total Energy          =    -248.0780812787506875 [Eh]
	-----------------------------------------------------------

  Dipole Moment: [D]
     X:    -1.1101      Y:     0.7440      Z:    -0.0002     Total:     1.3364

*** Psi4 exiting successfully. Buy a developer a beer!
