                               Psi4 1.3.2 release

  ==> Input File <==

--------------------------------------------------------------------------
#psi4
#
memory 32 gb

molecule  {
0 1
  O        1.8230110    -0.1562000     0.0000460
  N        0.6003328    -0.8426804    -0.0096346
  C       -0.3975370    -0.0230490    -0.0000170
  C       -1.7709560    -0.6228440     0.0000070
  C       -0.2172690     1.4669500    -0.0000150
  H       -1.7049950    -1.7124010    -0.0004820
  H       -2.3322460    -0.2988480     0.8830240
  H       -2.3326640    -0.2980280    -0.8824330
  H       -1.1822450     1.9774040    -0.0005330
  H        0.3560010     1.7784360     0.8780530
  H        0.3569220     1.7783250    -0.8775160
  H        2.4586410    -0.8931450    -0.0001530
units angstrom
no_reorient  #important for SAPT in psi4, default
symmetry c1  #important for SAPT in psi4, default
}

set PROPERTIES_ORIGIN ["COM"]
properties('MP2/aug-cc-pvtz', properties = ['dipole'])
--------------------------------------------------------------------------

    Molecular point group: c1
  Charge       = 0
  Multiplicity = 1
  Basis Set: AUG-CC-PVTZ
    Blend: AUG-CC-PVTZ
  Basis Set: (AUG-CC-PVTZ AUX)
    Blend: AUG-CC-PVTZ-JKFIT

    Orbital Energies [Eh]
    ---------------------

    Doubly Occupied:

       1A    -20.589350     2A    -15.607667     3A    -11.280422
       4A    -11.231831     5A    -11.228958     6A     -1.412732
       7A     -1.159957     8A     -0.991849     9A     -0.958413
      10A     -0.732934    11A     -0.690107    12A     -0.648021
      13A     -0.618993    14A     -0.570732    15A     -0.562252
      16A     -0.548027    17A     -0.546055    18A     -0.519800
      19A     -0.429580    20A     -0.371984

  @DF-RHF Final Energy:  -247.02200791053139

   => Energetics <=

    Nuclear Repulsion Energy =            178.2984488863420722
    One-Electron Energy =                -689.2415831117099287
    Two-Electron Energy =                 263.9211263148364992
    Total Energy =                       -247.0220079105313857
  Basis Set: (AUG-CC-PVTZ AUX)
    Blend: AUG-CC-PVTZ-RI
    Molecular point group: c1

    Geometry (in Angstrom), charge = 0, multiplicity = 1:

       Center              X                  Y                   Z               Mass
    ------------   -----------------  -----------------  -----------------  -----------------
         O            1.761118725754    -0.127510480367     0.001887389109    15.994914619570
         N            0.538440525754    -0.813990880367    -0.007793210891    14.003074004430
         C           -0.459429274246     0.005640519633     0.001824389109    12.000000000000
         C           -1.832848274246    -0.594154480367     0.001848389109    12.000000000000
         C           -0.279161274246     1.495639519633     0.001826389109    12.000000000000
         H           -1.766887274246    -1.683711480367     0.001359389109     1.007825032230
         H           -2.394138274246    -0.270158480367     0.884865389109     1.007825032230
         H           -2.394556274246    -0.269338480367    -0.880591610891     1.007825032230
         H           -1.244137274246     2.006093519633     0.001308389109     1.007825032230
         H            0.294108725754     1.807125519633     0.879894389109     1.007825032230
         H            0.295029725754     1.807014519633    -0.875674610891     1.007825032230
         H            2.396748725754    -0.864455480367     0.001688389109     1.007825032230

  Basis Set: AUG-CC-PVTZ
    Blend: AUG-CC-PVTZ
  Basis Set: (AUG-CC-PVTZ AUX)
    Blend: AUG-CC-PVTZ-JKFIT
	 Reference Energy          =    -247.0220079105313857 [Eh]
	 Singles Energy            =      -0.0000000000000000 [Eh]
	 Same-Spin Energy          =      -0.2472181963972120 [Eh]
	 Opposite-Spin Energy      =      -0.8195016102582079 [Eh]
	 Correlation Energy        =      -1.0667198066554200 [Eh]
	 Total Energy              =    -248.0887277171867993 [Eh]

	 ================> DF-SCS-MP2 Energies <==================
	-----------------------------------------------------------
	 SCS Same-Spin Scale       =       0.3333333333333333 [-]
	 SCS Opposite-Spin Scale   =       1.2000000000000000 [-]
	 SCS Same-Spin Energy      =      -0.0824060654657373 [Eh]
	 SCS Opposite-Spin Energy  =      -0.9834019323098494 [Eh]
	 SCS Correlation Energy    =      -1.0658079977755868 [Eh]
	 SCS Total Energy          =    -248.0878159083069647 [Eh]
	-----------------------------------------------------------

  Dipole Moment: [D]
     X:    -0.6762      Y:     0.5382      Z:     0.0107     Total:     0.8643

*** Psi4 exiting successfully. Buy a developer a beer!
