                               Psi4 1.3.2 release

  ==> Input File <==

--------------------------------------------------------------------------
#psi4
#
memory 32 gb

molecule  {
0 1
  O        1.8230110    -0.1562000     0.0000460
  N        0.6158478    -0.8234760    -0.0000261
  C       -0.3975370    -0.0230490    -0.0000170
  C       -1.7709560    -0.6228440     0.0000070
  C       -0.2172690     1.4669500    -0.0000150
  H       -1.7049950    -1.7124010    -0.0004820
  H       -2.3322460    -0.2988480     0.8830240
  H       -2.3326640    -0.2980280    -0.8824330
  H       -1.1822450     1.9774040    -0.0005330
  H        0.3560010     1.7784360     0.8780530
  H        0.3569220     1.7783250    -0.8775160
  H        2.4586410    -0.8931450    -0.0001530
units angstrom
no_reorient  #important for SAPT in psi4, default
symmetry c1  #important for SAPT in psi4, default
}

set PROPERTIES_ORIGIN ["COM"]
properties('MP2/aug-cc-pvtz', properties = ['dipole'])
--------------------------------------------------------------------------

    Molecular point group: c1
  Charge       = 0
  Multiplicity = 1
  Basis Set: AUG-CC-PVTZ
    Blend: AUG-CC-PVTZ
  Basis Set: (AUG-CC-PVTZ AUX)
    Blend: AUG-CC-PVTZ-JKFIT

    Orbital Energies [Eh]
    ---------------------

    Doubly Occupied:

       1A    -20.592108     2A    -15.605943     3A    -11.278037
       4A    -11.231523     5A    -11.227246     6A     -1.424182
       7A     -1.158250     8A     -0.990690     9A     -0.957516
      10A     -0.737872    11A     -0.693499    12A     -0.649992
      13A     -0.620806    14A     -0.570680    15A     -0.564337
      16A     -0.549206    17A     -0.546869    18A     -0.519180
      19A     -0.425693    20A     -0.368572

  @DF-RHF Final Energy:  -247.02226688364573

   => Energetics <=

    Nuclear Repulsion Energy =            178.6575078641568552
    One-Electron Energy =                -689.9351467591069422
    Two-Electron Energy =                 264.2553720113043596
    Total Energy =                       -247.0222668836457274
  Basis Set: (AUG-CC-PVTZ AUX)
    Blend: AUG-CC-PVTZ-RI
    Molecular point group: c1

    Geometry (in Angstrom), charge = 0, multiplicity = 1:

       Center              X                  Y                   Z               Mass
    ------------   -----------------  -----------------  -----------------  -----------------
         O            1.758144742544    -0.131191663942     0.000045589710    15.994914619570
         N            0.550981542544    -0.798467663942    -0.000026510290    14.003074004430
         C           -0.462403257456     0.001959336058    -0.000017410290    12.000000000000
         C           -1.835822257456    -0.597835663942     0.000006589710    12.000000000000
         C           -0.282135257456     1.491958336058    -0.000015410290    12.000000000000
         H           -1.769861257456    -1.687392663942    -0.000482410290     1.007825032230
         H           -2.397112257456    -0.273839663942     0.883023589710     1.007825032230
         H           -2.397530257456    -0.273019663942    -0.882433410290     1.007825032230
         H           -1.247111257456     2.002412336058    -0.000533410290     1.007825032230
         H            0.291134742544     1.803444336058     0.878052589710     1.007825032230
         H            0.292055742544     1.803333336058    -0.877516410290     1.007825032230
         H            2.393774742544    -0.868136663942    -0.000153410290     1.007825032230

  Basis Set: AUG-CC-PVTZ
    Blend: AUG-CC-PVTZ
  Basis Set: (AUG-CC-PVTZ AUX)
    Blend: AUG-CC-PVTZ-JKFIT
	 Reference Energy          =    -247.0222668836457274 [Eh]
	 Singles Energy            =      -0.0000000000000000 [Eh]
	 Same-Spin Energy          =      -0.2471194389883505 [Eh]
	 Opposite-Spin Energy      =      -0.8186966685278463 [Eh]
	 Correlation Energy        =      -1.0658161075161967 [Eh]
	 Total Energy              =    -248.0880829911619117 [Eh]

	 ================> DF-SCS-MP2 Energies <==================
	-----------------------------------------------------------
	 SCS Same-Spin Scale       =       0.3333333333333333 [-]
	 SCS Opposite-Spin Scale   =       1.2000000000000000 [-]
	 SCS Same-Spin Energy      =      -0.0823731463294502 [Eh]
	 SCS Opposite-Spin Energy  =      -0.9824360022334155 [Eh]
	 SCS Correlation Energy    =      -1.0648091485628657 [Eh]
	 SCS Total Energy          =    -248.0870760322085857 [Eh]
	-----------------------------------------------------------

  Dipole Moment: [D]
     X:    -0.5925      Y:     0.4977      Z:    -0.0002     Total:     0.7738

*** Psi4 exiting successfully. Buy a developer a beer!
