                               Psi4 1.3.2 release

  ==> Input File <==

--------------------------------------------------------------------------
#psi4
#
memory 32 gb

molecule  {
0 1
  O        1.8230110    -0.1562000     0.0000460
  N        0.5029210    -0.9468978     0.0575235
  C       -0.3975370    -0.0230490    -0.0000170
  C       -1.7709560    -0.6228440     0.0000070
  C       -0.2172690     1.4669500    -0.0000150
  H       -1.7049950    -1.7124010    -0.0004820
  H       -2.3322460    -0.2988480     0.8830240
  H       -2.3326640    -0.2980280    -0.8824330
  H       -1.1822450     1.9774040    -0.0005330
  H        0.3560010     1.7784360     0.8780530
  H        0.3569220     1.7783250    -0.8775160
  H        2.4586410    -0.8931450    -0.0001530
units angstrom
no_reorient  #important for SAPT in psi4, default
symmetry c1  #important for SAPT in psi4, default
}

set PROPERTIES_ORIGIN ["COM"]
properties('MP2/aug-cc-pvtz', properties = ['dipole'])
--------------------------------------------------------------------------

    Molecular point group: c1
  Charge       = 0
  Multiplicity = 1
  Basis Set: AUG-CC-PVTZ
    Blend: AUG-CC-PVTZ
  Basis Set: (AUG-CC-PVTZ AUX)
    Blend: AUG-CC-PVTZ-JKFIT

    Orbital Energies [Eh]
    ---------------------

    Doubly Occupied:

       1A    -20.573340     2A    -15.619833     3A    -11.293926
       4A    -11.238117     5A    -11.233807     6A     -1.356777
       7A     -1.171486     8A     -0.999653     9A     -0.961756
      10A     -0.719440    11A     -0.671865    12A     -0.634316
      13A     -0.615724    14A     -0.570327    15A     -0.560132
      16A     -0.540845    17A     -0.528783    18A     -0.521553
      19A     -0.442137    20A     -0.390118

  @DF-RHF Final Energy:  -247.00592394287267

   => Energetics <=

    Nuclear Repulsion Energy =            176.4379499104085198
    One-Electron Energy =                -685.5998772179724483
    Two-Electron Energy =                 262.1560033646912871
    Total Energy =                       -247.0059239428726414
  Basis Set: (AUG-CC-PVTZ AUX)
    Blend: AUG-CC-PVTZ-RI
    Molecular point group: c1

    Geometry (in Angstrom), charge = 0, multiplicity = 1:

       Center              X                  Y                   Z               Mass
    ------------   -----------------  -----------------  -----------------  -----------------
         O            1.779791046587    -0.107533632293    -0.010985769889    15.994914619570
         N            0.459701046587    -0.898231432293     0.046491730111    14.003074004430
         C           -0.440756953413     0.025617367707    -0.011048769889    12.000000000000
         C           -1.814175953413    -0.574177632293    -0.011024769889    12.000000000000
         C           -0.260488953413     1.515616367707    -0.011046769889    12.000000000000
         H           -1.748214953413    -1.663734632293    -0.011513769889     1.007825032230
         H           -2.375465953413    -0.250181632293     0.871992230111     1.007825032230
         H           -2.375883953413    -0.249361632293    -0.893464769889     1.007825032230
         H           -1.225464953413     2.026070367707    -0.011564769889     1.007825032230
         H            0.312781046587     1.827102367707     0.867021230111     1.007825032230
         H            0.313702046587     1.826991367707    -0.888547769889     1.007825032230
         H            2.415421046587    -0.844478632293    -0.011184769889     1.007825032230

  Basis Set: AUG-CC-PVTZ
    Blend: AUG-CC-PVTZ
  Basis Set: (AUG-CC-PVTZ AUX)
    Blend: AUG-CC-PVTZ-JKFIT
	 Reference Energy          =    -247.0059239428726698 [Eh]
	 Singles Energy            =      -0.0000000000000000 [Eh]
	 Same-Spin Energy          =      -0.2484079974589937 [Eh]
	 Opposite-Spin Energy      =      -0.8254028232697085 [Eh]
	 Correlation Energy        =      -1.0738108207287023 [Eh]
	 Total Energy              =    -248.0797347636013797 [Eh]

	 ================> DF-SCS-MP2 Energies <==================
	-----------------------------------------------------------
	 SCS Same-Spin Scale       =       0.3333333333333333 [-]
	 SCS Opposite-Spin Scale   =       1.2000000000000000 [-]
	 SCS Same-Spin Energy      =      -0.0828026658196646 [Eh]
	 SCS Opposite-Spin Energy  =      -0.9904833879236501 [Eh]
	 SCS Correlation Energy    =      -1.0732860537433146 [Eh]
	 SCS Total Energy          =    -248.0792099966159867 [Eh]
	-----------------------------------------------------------

  Dipole Moment: [D]
     X:    -1.0853      Y:     0.7286      Z:    -0.0592     Total:     1.3085

*** Psi4 exiting successfully. Buy a developer a beer!
