                               Psi4 1.3.2 release

  ==> Input File <==

--------------------------------------------------------------------------
#psi4
#
memory 32 gb

molecule  {
0 1
  O        1.8230110    -0.1562000     0.0000460
  N        0.5872960    -0.8583550    -0.0000260
  C       -0.3975370    -0.0230490    -0.0000170
  C       -1.7709560    -0.6228440     0.0000070
  C       -0.2172690     1.4669500    -0.0000150
  H       -1.7049950    -1.7124010    -0.0004820
  H       -2.3322460    -0.2988480     0.8830240
  H       -2.3326640    -0.2980280    -0.8824330
  H       -1.1822450     1.9774040    -0.0005330
  H        0.3560010     1.7784360     0.8780530
  H        0.3569220     1.7783250    -0.8775160
  H        2.3933274    -0.8174209    -0.0001326
units angstrom
no_reorient  #important for SAPT in psi4, default
symmetry c1  #important for SAPT in psi4, default
}

set PROPERTIES_ORIGIN ["COM"]
properties('MP2/aug-cc-pvtz', properties = ['dipole'])
--------------------------------------------------------------------------

    Molecular point group: c1
  Charge       = 0
  Multiplicity = 1
  Basis Set: AUG-CC-PVTZ
    Blend: AUG-CC-PVTZ
  Basis Set: (AUG-CC-PVTZ AUX)
    Blend: AUG-CC-PVTZ-JKFIT

    Orbital Energies [Eh]
    ---------------------

    Doubly Occupied:

       1A    -20.577393     2A    -15.610828     3A    -11.284030
       4A    -11.232973     5A    -11.231160     6A     -1.424665
       7A     -1.172052     8A     -0.996896     9A     -0.960670
      10A     -0.739601    11A     -0.701422    12A     -0.648195
      13A     -0.619393    14A     -0.576243    15A     -0.562639
      16A     -0.548544    17A     -0.546844    18A     -0.521819
      19A     -0.435664    20A     -0.377126

  @DF-RHF Final Energy:  -247.01659111963048

   => Energetics <=

    Nuclear Repulsion Energy =            178.6656515207074278
    One-Electron Energy =                -689.8281708305331676
    Two-Electron Energy =                 264.1459281901952636
    Total Energy =                       -247.0165911196304478
  Basis Set: (AUG-CC-PVTZ AUX)
    Blend: AUG-CC-PVTZ-RI
    Molecular point group: c1

    Geometry (in Angstrom), charge = 0, multiplicity = 1:

       Center              X                  Y                   Z               Mass
    ------------   -----------------  -----------------  -----------------  -----------------
         O            1.764518733408    -0.125550582716     0.000045289106    15.994914619570
         N            0.528803733408    -0.827705582716    -0.000026710894    14.003074004430
         C           -0.456029266592     0.007600417284    -0.000017710894    12.000000000000
         C           -1.829448266592    -0.592194582716     0.000006289106    12.000000000000
         C           -0.275761266592     1.497599417284    -0.000015710894    12.000000000000
         H           -1.763487266592    -1.681751582716    -0.000482710894     1.007825032230
         H           -2.390738266592    -0.268198582716     0.883023289106     1.007825032230
         H           -2.391156266592    -0.267378582716    -0.882433710894     1.007825032230
         H           -1.240737266592     2.008053417284    -0.000533710894     1.007825032230
         H            0.297508733408     1.809085417284     0.878052289106     1.007825032230
         H            0.298429733408     1.808974417284    -0.877516710894     1.007825032230
         H            2.334835133408    -0.786771482716    -0.000133310894     1.007825032230

  Basis Set: AUG-CC-PVTZ
    Blend: AUG-CC-PVTZ
  Basis Set: (AUG-CC-PVTZ AUX)
    Blend: AUG-CC-PVTZ-JKFIT
	 Reference Energy          =    -247.0165911196304762 [Eh]
	 Singles Energy            =      -0.0000000000000000 [Eh]
	 Same-Spin Energy          =      -0.2460326466094526 [Eh]
	 Opposite-Spin Energy      =      -0.8169769033494790 [Eh]
	 Correlation Energy        =      -1.0630095499589316 [Eh]
	 Total Energy              =    -248.0796006695894107 [Eh]

	 ================> DF-SCS-MP2 Energies <==================
	-----------------------------------------------------------
	 SCS Same-Spin Scale       =       0.3333333333333333 [-]
	 SCS Opposite-Spin Scale   =       1.2000000000000000 [-]
	 SCS Same-Spin Energy      =      -0.0820108822031509 [Eh]
	 SCS Opposite-Spin Energy  =      -0.9803722840193748 [Eh]
	 SCS Correlation Energy    =      -1.0623831662225256 [Eh]
	 SCS Total Energy          =    -248.0789742858530076 [Eh]
	-----------------------------------------------------------

  Dipole Moment: [D]
     X:    -0.8658      Y:     0.6509      Z:    -0.0002     Total:     1.0831

*** Psi4 exiting successfully. Buy a developer a beer!
