                               Psi4 1.3.2 release

  ==> Input File <==

--------------------------------------------------------------------------
#psi4
#
memory 32 gb

molecule  {
0 1
  O        1.8467631    -0.1997536     0.0000447
  N        0.5872960    -0.8583550    -0.0000260
  C       -0.3975370    -0.0230490    -0.0000170
  C       -1.7709560    -0.6228440     0.0000070
  C       -0.2172690     1.4669500    -0.0000150
  H       -1.7049950    -1.7124010    -0.0004820
  H       -2.3322460    -0.2988480     0.8830240
  H       -2.3326640    -0.2980280    -0.8824330
  H       -1.1822450     1.9774040    -0.0005330
  H        0.3560010     1.7784360     0.8780530
  H        0.3569220     1.7783250    -0.8775160
  H        2.4586410    -0.8931450    -0.0001530
units angstrom
no_reorient  #important for SAPT in psi4, default
symmetry c1  #important for SAPT in psi4, default
}

set PROPERTIES_ORIGIN ["COM"]
properties('MP2/aug-cc-pvtz', properties = ['dipole'])
--------------------------------------------------------------------------

    Molecular point group: c1
  Charge       = 0
  Multiplicity = 1
  Basis Set: AUG-CC-PVTZ
    Blend: AUG-CC-PVTZ
  Basis Set: (AUG-CC-PVTZ AUX)
    Blend: AUG-CC-PVTZ-JKFIT

    Orbital Energies [Eh]
    ---------------------

    Doubly Occupied:

       1A    -20.583007     2A    -15.609909     3A    -11.283561
       4A    -11.232748     5A    -11.230862     6A     -1.410058
       7A     -1.167367     8A     -0.994930     9A     -0.959831
      10A     -0.737916    11A     -0.691236    12A     -0.646972
      13A     -0.617795    14A     -0.575482    15A     -0.561297
      16A     -0.548763    17A     -0.546480    18A     -0.521120
      19A     -0.429183    20A     -0.375836

  @DF-RHF Final Energy:  -247.02222953690284

   => Energetics <=

    Nuclear Repulsion Energy =            177.8179587143746971
    One-Electron Energy =                -688.2316687861859918
    Two-Electron Energy =                 263.3914805349084531
    Total Energy =                       -247.0222295369028416
  Basis Set: (AUG-CC-PVTZ AUX)
    Blend: AUG-CC-PVTZ-RI
    Molecular point group: c1

    Geometry (in Angstrom), charge = 0, multiplicity = 1:

       Center              X                  Y                   Z               Mass
    ------------   -----------------  -----------------  -----------------  -----------------
         O            1.782169250537    -0.158523436469     0.000044555176    15.994914619570
         N            0.522702150537    -0.817124836469    -0.000026144824    14.003074004430
         C           -0.462130849463     0.018181163531    -0.000017144824    12.000000000000
         C           -1.835549849463    -0.581613836469     0.000006855176    12.000000000000
         C           -0.281862849463     1.508180163531    -0.000015144824    12.000000000000
         H           -1.769588849463    -1.671170836469    -0.000482144824     1.007825032230
         H           -2.396839849463    -0.257617836469     0.883023855176     1.007825032230
         H           -2.397257849463    -0.256797836469    -0.882433144824     1.007825032230
         H           -1.246838849463     2.018634163531    -0.000533144824     1.007825032230
         H            0.291407150537     1.819666163531     0.878052855176     1.007825032230
         H            0.292328150537     1.819555163531    -0.877516144824     1.007825032230
         H            2.394047150537    -0.851914836469    -0.000153144824     1.007825032230

  Basis Set: AUG-CC-PVTZ
    Blend: AUG-CC-PVTZ
  Basis Set: (AUG-CC-PVTZ AUX)
    Blend: AUG-CC-PVTZ-JKFIT
	 Reference Energy          =    -247.0222295369028416 [Eh]
	 Singles Energy            =      -0.0000000000000000 [Eh]
	 Same-Spin Energy          =      -0.2464406043610785 [Eh]
	 Opposite-Spin Energy      =      -0.8182356140029570 [Eh]
	 Correlation Energy        =      -1.0646762183640355 [Eh]
	 Total Energy              =    -248.0869057552668835 [Eh]

	 ================> DF-SCS-MP2 Energies <==================
	-----------------------------------------------------------
	 SCS Same-Spin Scale       =       0.3333333333333333 [-]
	 SCS Opposite-Spin Scale   =       1.2000000000000000 [-]
	 SCS Same-Spin Energy      =      -0.0821468681203595 [Eh]
	 SCS Opposite-Spin Energy  =      -0.9818827368035483 [Eh]
	 SCS Correlation Energy    =      -1.0640296049239077 [Eh]
	 SCS Total Energy          =    -248.0862591418267584 [Eh]
	-----------------------------------------------------------

  Dipole Moment: [D]
     X:    -0.7918      Y:     0.6149      Z:    -0.0002     Total:     1.0025

*** Psi4 exiting successfully. Buy a developer a beer!
