                               Psi4 1.3.2 release

  ==> Input File <==

--------------------------------------------------------------------------
#psi4
#
memory 32 gb

molecule  {
0 1
  O        1.8230110    -0.1562000     0.0000460
  N        0.6674606    -0.9836759    -0.0000581
  C       -0.3975370    -0.0230490    -0.0000170
  C       -1.7709560    -0.6228440     0.0000070
  C       -0.2172690     1.4669500    -0.0000150
  H       -1.7049950    -1.7124010    -0.0004820
  H       -2.3322460    -0.2988480     0.8830240
  H       -2.3326640    -0.2980280    -0.8824330
  H       -1.1822450     1.9774040    -0.0005330
  H        0.3560010     1.7784360     0.8780530
  H        0.3569220     1.7783250    -0.8775160
  H        2.4586410    -0.8931450    -0.0001530
units angstrom
no_reorient  #important for SAPT in psi4, default
symmetry c1  #important for SAPT in psi4, default
}

set PROPERTIES_ORIGIN ["COM"]
properties('MP2/aug-cc-pvtz', properties = ['dipole'])
--------------------------------------------------------------------------

    Molecular point group: c1
  Charge       = 0
  Multiplicity = 1
  Basis Set: AUG-CC-PVTZ
    Blend: AUG-CC-PVTZ
  Basis Set: (AUG-CC-PVTZ AUX)
    Blend: AUG-CC-PVTZ-JKFIT

    Orbital Energies [Eh]
    ---------------------

    Doubly Occupied:

       1A    -20.582704     2A    -15.623913     3A    -11.308214
       4A    -11.238460     5A    -11.235163     6A     -1.398807
       7A     -1.119108     8A     -0.986611     9A     -0.960694
      10A     -0.730554    11A     -0.685309    12A     -0.636853
      13A     -0.611853    14A     -0.573581    15A     -0.562479
      16A     -0.546616    17A     -0.538184    18A     -0.514356
      19A     -0.449037    20A     -0.343746

  @DF-RHF Final Energy:  -246.98272813599957

   => Energetics <=

    Nuclear Repulsion Energy =            175.2613226705790908
    One-Electron Energy =                -683.1956163913420141
    Two-Electron Energy =                 260.9515655847633866
    Total Energy =                       -246.9827281359995368
  Basis Set: (AUG-CC-PVTZ AUX)
    Blend: AUG-CC-PVTZ-RI
    Molecular point group: c1

    Geometry (in Angstrom), charge = 0, multiplicity = 1:

       Center              X                  Y                   Z               Mass
    ------------   -----------------  -----------------  -----------------  -----------------
         O            1.748251374793    -0.100483844867     0.000051723610    15.994914619570
         N            0.592700974793    -0.927959744867    -0.000052376390    14.003074004430
         C           -0.472296625207     0.032667155133    -0.000011276390    12.000000000000
         C           -1.845715625207    -0.567127844867     0.000012723610    12.000000000000
         C           -0.292028625207     1.522666155133    -0.000009276390    12.000000000000
         H           -1.779754625207    -1.656684844867    -0.000476276390     1.007825032230
         H           -2.407005625207    -0.243131844867     0.883029723610     1.007825032230
         H           -2.407423625207    -0.242311844867    -0.882427276390     1.007825032230
         H           -1.257004625207     2.033120155133    -0.000527276390     1.007825032230
         H            0.281241374793     1.834152155133     0.878058723610     1.007825032230
         H            0.282162374793     1.834041155133    -0.877510276390     1.007825032230
         H            2.383881374793    -0.837428844867    -0.000147276390     1.007825032230

  Basis Set: AUG-CC-PVTZ
    Blend: AUG-CC-PVTZ
  Basis Set: (AUG-CC-PVTZ AUX)
    Blend: AUG-CC-PVTZ-JKFIT
	 Reference Energy          =    -246.9827281359995652 [Eh]
	 Singles Energy            =      -0.0000000000000000 [Eh]
	 Same-Spin Energy          =      -0.2515599929265245 [Eh]
	 Opposite-Spin Energy      =      -0.8304138514972357 [Eh]
	 Correlation Energy        =      -1.0819738444237603 [Eh]
	 Total Energy              =    -248.0647019804233366 [Eh]

	 ================> DF-SCS-MP2 Energies <==================
	-----------------------------------------------------------
	 SCS Same-Spin Scale       =       0.3333333333333333 [-]
	 SCS Opposite-Spin Scale   =       1.2000000000000000 [-]
	 SCS Same-Spin Energy      =      -0.0838533309755082 [Eh]
	 SCS Opposite-Spin Energy  =      -0.9964966217966827 [Eh]
	 SCS Correlation Energy    =      -1.0803499527721909 [Eh]
	 SCS Total Energy          =    -248.0630780887717606 [Eh]
	-----------------------------------------------------------

  Dipole Moment: [D]
     X:    -0.6397      Y:     0.6804      Z:    -0.0001     Total:     0.9339

*** Psi4 exiting successfully. Buy a developer a beer!
