                               Psi4 1.3.2 release

  ==> Input File <==

--------------------------------------------------------------------------
#psi4
#
memory 32 gb

molecule  {
0 1
  O        1.8230110    -0.1562000     0.0000460
  N        0.6125536    -0.9010531    -0.0000368
  C       -0.3975370    -0.0230490    -0.0000170
  C       -1.7709560    -0.6228440     0.0000070
  C       -0.2172690     1.4669500    -0.0000150
  H       -1.7049950    -1.7124010    -0.0004820
  H       -2.3322460    -0.2988480     0.8830240
  H       -2.3326640    -0.2980280    -0.8824330
  H       -1.1822450     1.9774040    -0.0005330
  H        0.3560010     1.7784360     0.8780530
  H        0.3569220     1.7783250    -0.8775160
  H        2.4586410    -0.8931450    -0.0001530
units angstrom
no_reorient  #important for SAPT in psi4, default
symmetry c1  #important for SAPT in psi4, default
}

set PROPERTIES_ORIGIN ["COM"]
properties('MP2/aug-cc-pvtz', properties = ['dipole'])
--------------------------------------------------------------------------

    Molecular point group: c1
  Charge       = 0
  Multiplicity = 1
  Basis Set: AUG-CC-PVTZ
    Blend: AUG-CC-PVTZ
  Basis Set: (AUG-CC-PVTZ AUX)
    Blend: AUG-CC-PVTZ-JKFIT

    Orbital Energies [Eh]
    ---------------------

    Doubly Occupied:

       1A    -20.585771     2A    -15.614958     3A    -11.291177
       4A    -11.233042     5A    -11.233006     6A     -1.401898
       7A     -1.145501     8A     -0.991550     9A     -0.959614
      10A     -0.728522    11A     -0.686935    12A     -0.643873
      13A     -0.615265    14A     -0.571075    15A     -0.561324
      16A     -0.545560    17A     -0.543668    18A     -0.518674
      19A     -0.439942    20A     -0.363976

  @DF-RHF Final Energy:  -247.01294588087549

   => Energetics <=

    Nuclear Repulsion Energy =            177.0577817667865190
    One-Electron Energy =                -686.7907934436300366
    Two-Electron Energy =                 262.7200657959680257
    Total Energy =                       -247.0129458808754634
  Basis Set: (AUG-CC-PVTZ AUX)
    Blend: AUG-CC-PVTZ-RI
    Molecular point group: c1

    Geometry (in Angstrom), charge = 0, multiplicity = 1:

       Center              X                  Y                   Z               Mass
    ------------   -----------------  -----------------  -----------------  -----------------
         O            1.758776189240    -0.116321345352     0.000047640733    15.994914619570
         N            0.548318789240    -0.861174445352    -0.000035159267    14.003074004430
         C           -0.461771810760     0.016829654648    -0.000015359267    12.000000000000
         C           -1.835190810760    -0.582965345352     0.000008640733    12.000000000000
         C           -0.281503810760     1.506828654648    -0.000013359267    12.000000000000
         H           -1.769229810760    -1.672522345352    -0.000480359267     1.007825032230
         H           -2.396480810760    -0.258969345352     0.883025640733     1.007825032230
         H           -2.396898810760    -0.258149345352    -0.882431359267     1.007825032230
         H           -1.246479810760     2.017282654648    -0.000531359267     1.007825032230
         H            0.291766189240     1.818314654648     0.878054640733     1.007825032230
         H            0.292687189240     1.818203654648    -0.877514359267     1.007825032230
         H            2.394406189240    -0.853266345352    -0.000151359267     1.007825032230

  Basis Set: AUG-CC-PVTZ
    Blend: AUG-CC-PVTZ
  Basis Set: (AUG-CC-PVTZ AUX)
    Blend: AUG-CC-PVTZ-JKFIT
	 Reference Energy          =    -247.0129458808754919 [Eh]
	 Singles Energy            =      -0.0000000000000000 [Eh]
	 Same-Spin Energy          =      -0.2485339866406317 [Eh]
	 Opposite-Spin Energy      =      -0.8232581313916422 [Eh]
	 Correlation Energy        =      -1.0717921180322738 [Eh]
	 Total Energy              =    -248.0847379989077695 [Eh]

	 ================> DF-SCS-MP2 Energies <==================
	-----------------------------------------------------------
	 SCS Same-Spin Scale       =       0.3333333333333333 [-]
	 SCS Opposite-Spin Scale   =       1.2000000000000000 [-]
	 SCS Same-Spin Energy      =      -0.0828446622135439 [Eh]
	 SCS Opposite-Spin Energy  =      -0.9879097576699706 [Eh]
	 SCS Correlation Energy    =      -1.0707544198835144 [Eh]
	 SCS Total Energy          =    -248.0837003007590056 [Eh]
	-----------------------------------------------------------

  Dipole Moment: [D]
     X:    -0.7254      Y:     0.6222      Z:    -0.0002     Total:     0.9557

*** Psi4 exiting successfully. Buy a developer a beer!
