                               Psi4 1.3.2 release

  ==> Input File <==

--------------------------------------------------------------------------
#psi4
#
memory 32 gb

molecule  {
0 1
  O        1.8896368    -0.2892139     0.0000418
  N        0.5872960    -0.8583550    -0.0000260
  C       -0.3975370    -0.0230490    -0.0000170
  C       -1.7709560    -0.6228440     0.0000070
  C       -0.2172690     1.4669500    -0.0000150
  H       -1.7049950    -1.7124010    -0.0004820
  H       -2.3322460    -0.2988480     0.8830240
  H       -2.3326640    -0.2980280    -0.8824330
  H       -1.1822450     1.9774040    -0.0005330
  H        0.3560010     1.7784360     0.8780530
  H        0.3569220     1.7783250    -0.8775160
  H        2.4586410    -0.8931450    -0.0001530
units angstrom
no_reorient  #important for SAPT in psi4, default
symmetry c1  #important for SAPT in psi4, default
}

set PROPERTIES_ORIGIN ["COM"]
properties('MP2/aug-cc-pvtz', properties = ['dipole'])
--------------------------------------------------------------------------

    Molecular point group: c1
  Charge       = 0
  Multiplicity = 1
  Basis Set: AUG-CC-PVTZ
    Blend: AUG-CC-PVTZ
  Basis Set: (AUG-CC-PVTZ AUX)
    Blend: AUG-CC-PVTZ-JKFIT

    Orbital Energies [Eh]
    ---------------------

    Doubly Occupied:

       1A    -20.573019     2A    -15.612010     3A    -11.286622
       4A    -11.234188     5A    -11.231949     6A     -1.427567
       7A     -1.180012     8A     -1.000412     9A     -0.961335
      10A     -0.762667    11A     -0.693918    12A     -0.647691
      13A     -0.618038    14A     -0.582363    15A     -0.562347
      16A     -0.552158    17A     -0.549710    18A     -0.522560
      19A     -0.422222    20A     -0.378389

  @DF-RHF Final Energy:  -247.00167862887542

   => Energetics <=

    Nuclear Repulsion Energy =            177.5580535028949498
    One-Electron Energy =                -687.5211120611774049
    Two-Electron Energy =                 262.9613799294070304
    Total Energy =                       -247.0016786288754247
  Basis Set: (AUG-CC-PVTZ AUX)
    Blend: AUG-CC-PVTZ-RI
    Molecular point group: c1

    Geometry (in Angstrom), charge = 0, multiplicity = 1:

       Center              X                  Y                   Z               Mass
    ------------   -----------------  -----------------  -----------------  -----------------
         O            1.815655746894    -0.228396389120     0.000042290132    15.994914619570
         N            0.513314946894    -0.797537489120    -0.000025509868    14.003074004430
         C           -0.471518053106     0.037768510880    -0.000016509868    12.000000000000
         C           -1.844937053106    -0.562026489120     0.000007490132    12.000000000000
         C           -0.291250053106     1.527767510880    -0.000014509868    12.000000000000
         H           -1.778976053106    -1.651583489120    -0.000481509868     1.007825032230
         H           -2.406227053106    -0.238030489120     0.883024490132     1.007825032230
         H           -2.406645053106    -0.237210489120    -0.882432509868     1.007825032230
         H           -1.256226053106     2.038221510880    -0.000532509868     1.007825032230
         H            0.282019946894     1.839253510880     0.878053490132     1.007825032230
         H            0.282940946894     1.839142510880    -0.877515509868     1.007825032230
         H            2.384659946894    -0.832327489120    -0.000152509868     1.007825032230

  Basis Set: AUG-CC-PVTZ
    Blend: AUG-CC-PVTZ
  Basis Set: (AUG-CC-PVTZ AUX)
    Blend: AUG-CC-PVTZ-JKFIT
	 Reference Energy          =    -247.0016786288754247 [Eh]
	 Singles Energy            =      -0.0000000000000000 [Eh]
	 Same-Spin Energy          =      -0.2448955900009014 [Eh]
	 Opposite-Spin Energy      =      -0.8148865584760483 [Eh]
	 Correlation Energy        =      -1.0597821484769496 [Eh]
	 Total Energy              =    -248.0614607773523801 [Eh]

	 ================> DF-SCS-MP2 Energies <==================
	-----------------------------------------------------------
	 SCS Same-Spin Scale       =       0.3333333333333333 [-]
	 SCS Opposite-Spin Scale   =       1.2000000000000000 [-]
	 SCS Same-Spin Energy      =      -0.0816318633336338 [Eh]
	 SCS Opposite-Spin Energy  =      -0.9778638701712579 [Eh]
	 SCS Correlation Energy    =      -1.0594957335048916 [Eh]
	 SCS Total Energy          =    -248.0611743623803136 [Eh]
	-----------------------------------------------------------

  Dipole Moment: [D]
     X:    -0.9074      Y:     0.7091      Z:    -0.0002     Total:     1.1516

*** Psi4 exiting successfully. Buy a developer a beer!
