                               Psi4 1.3.2 release

  ==> Input File <==

--------------------------------------------------------------------------
#psi4
#
memory 32 gb

molecule  {
0 1
  O        1.8230110    -0.1562000     0.0000460
  N        0.5206702    -0.7253411     0.0000068
  C       -0.3975370    -0.0230490    -0.0000170
  C       -1.7709560    -0.6228440     0.0000070
  C       -0.2172690     1.4669500    -0.0000150
  H       -1.7049950    -1.7124010    -0.0004820
  H       -2.3322460    -0.2988480     0.8830240
  H       -2.3326640    -0.2980280    -0.8824330
  H       -1.1822450     1.9774040    -0.0005330
  H        0.3560010     1.7784360     0.8780530
  H        0.3569220     1.7783250    -0.8775160
  H        2.4586410    -0.8931450    -0.0001530
units angstrom
no_reorient  #important for SAPT in psi4, default
symmetry c1  #important for SAPT in psi4, default
}

set PROPERTIES_ORIGIN ["COM"]
properties('MP2/aug-cc-pvtz', properties = ['dipole'])
--------------------------------------------------------------------------

    Molecular point group: c1
  Charge       = 0
  Multiplicity = 1
  Basis Set: AUG-CC-PVTZ
    Blend: AUG-CC-PVTZ
  Basis Set: (AUG-CC-PVTZ AUX)
    Blend: AUG-CC-PVTZ-JKFIT

    Orbital Energies [Eh]
    ---------------------

    Doubly Occupied:

       1A    -20.591476     2A    -15.587875     3A    -11.255933
       4A    -11.229155     5A    -11.222033     6A     -1.411923
       7A     -1.214926     8A     -0.993398     9A     -0.957637
      10A     -0.742118    11A     -0.684881    12A     -0.649430
      13A     -0.630250    14A     -0.577960    15A     -0.560139
      16A     -0.551374    17A     -0.542037    18A     -0.522818
      19A     -0.408548    20A     -0.401482

  @DF-RHF Final Energy:  -247.00354392898387

   => Energetics <=

    Nuclear Repulsion Energy =            181.0945623559345847
    One-Electron Energy =                -694.7254269332463537
    Two-Electron Energy =                 266.6273206483278955
    Total Energy =                       -247.0035439289838450
  Basis Set: (AUG-CC-PVTZ AUX)
    Blend: AUG-CC-PVTZ-RI
    Molecular point group: c1

    Geometry (in Angstrom), charge = 0, multiplicity = 1:

       Center              X                  Y                   Z               Mass
    ------------   -----------------  -----------------  -----------------  -----------------
         O            1.776388802127    -0.150002591752     0.000039283293    15.994914619570
         N            0.474048002127    -0.719143691752     0.000000083293    14.003074004430
         C           -0.444159197873    -0.016851591752    -0.000023716707    12.000000000000
         C           -1.817578197873    -0.616646591752     0.000000283293    12.000000000000
         C           -0.263891197873     1.473147408248    -0.000021716707    12.000000000000
         H           -1.751617197873    -1.706203591752    -0.000488716707     1.007825032230
         H           -2.378868197873    -0.292650591752     0.883017283293     1.007825032230
         H           -2.379286197873    -0.291830591752    -0.882439716707     1.007825032230
         H           -1.228867197873     1.983601408248    -0.000539716707     1.007825032230
         H            0.309378802127     1.784633408248     0.878046283293     1.007825032230
         H            0.310299802127     1.784522408248    -0.877522716707     1.007825032230
         H            2.412018802127    -0.886947591752    -0.000159716707     1.007825032230

  Basis Set: AUG-CC-PVTZ
    Blend: AUG-CC-PVTZ
  Basis Set: (AUG-CC-PVTZ AUX)
    Blend: AUG-CC-PVTZ-JKFIT
	 Reference Energy          =    -247.0035439289838735 [Eh]
	 Singles Energy            =      -0.0000000000000000 [Eh]
	 Same-Spin Energy          =      -0.2451730037880569 [Eh]
	 Opposite-Spin Energy      =      -0.8136086261995842 [Eh]
	 Correlation Energy        =      -1.0587816299876411 [Eh]
	 Total Energy              =    -248.0623255589715086 [Eh]

	 ================> DF-SCS-MP2 Energies <==================
	-----------------------------------------------------------
	 SCS Same-Spin Scale       =       0.3333333333333333 [-]
	 SCS Opposite-Spin Scale   =       1.2000000000000000 [-]
	 SCS Same-Spin Energy      =      -0.0817243345960190 [Eh]
	 SCS Opposite-Spin Energy  =      -0.9763303514395010 [Eh]
	 SCS Correlation Energy    =      -1.0580546860355200 [Eh]
	 SCS Total Energy          =    -248.0615986150193919 [Eh]
	-----------------------------------------------------------

  Dipole Moment: [D]
     X:    -0.7069      Y:     0.3425      Z:    -0.0003     Total:     0.7855

*** Psi4 exiting successfully. Buy a developer a beer!
