                               Psi4 1.4a3.dev225

  ==> Input File <==

--------------------------------------------------------------------------
#psi4
#
memory 32 gb

molecule  {
0 1
  O        1.8229650    -0.1562770     0.0000010
  N        0.5872700    -0.8583520    -0.0000020
  C       -0.3975690    -0.0229950    -0.0000020
  C       -1.7709740    -0.6228220     0.0000010
  C       -0.2171790     1.4669690     0.0000000
  H       -1.7049630    -1.7123800    -0.0000360
  H       -2.3324870    -0.2984810     0.8827490
  H       -2.3325170    -0.2984190    -0.8827050
  H       -1.1820940     1.9775330     0.0000190
  H        0.3565930     1.7783450     0.8777860
  H        0.3565600     1.7783500    -0.8778050
  H        2.4455714    -0.8780419     0.0000030
units angstrom
no_reorient  #important for SAPT in psi4, default
symmetry c1  #important for SAPT in psi4, default
}

set PROPERTIES_ORIGIN ["COM"]
properties('MP2/aug-cc-pvtz', properties = ['dipole'])
--------------------------------------------------------------------------

    Molecular point group: c1
  Charge       = 0
  Multiplicity = 1
  Basis Set: AUG-CC-PVTZ
    Blend: AUG-CC-PVTZ
  Basis Set: (AUG-CC-PVTZ AUX)
    Blend: AUG-CC-PVTZ-JKFIT

    Orbital Energies [Eh]
    ---------------------

    Doubly Occupied:

       1A    -20.585323     2A    -15.609481     3A    -11.282671
       4A    -11.232245     5A    -11.230488     6A     -1.407360
       7A     -1.163372     8A     -0.993593     9A     -0.959375
      10A     -0.731080    11A     -0.690532    12A     -0.646614
      13A     -0.618150    14A     -0.571951    15A     -0.561240
      16A     -0.547249    17A     -0.545197    18A     -0.520567
      19A     -0.433097    20A     -0.375172

  @DF-RHF Final Energy:  -247.02215730441000

   => Energetics <=

    Nuclear Repulsion Energy =            178.1343030529417604
    One-Electron Energy =                -688.9034041160882680
    Two-Electron Energy =                 263.7469437587365064
    Total Energy =                       -247.0221573044100296
  Basis Set: (AUG-CC-PVTZ AUX)
    Blend: AUG-CC-PVTZ-RI
    Molecular point group: c1

    Geometry (in Angstrom), charge = 0, multiplicity = 1:

       Center              X                  Y                   Z               Mass
    ------------   -----------------  -----------------  -----------------  -----------------
         O            1.763756067009    -0.124791413244     0.000001176929    15.994914619570
         N            0.528061067009    -0.826866413244    -0.000001823071    14.003074004430
         C           -0.456777932991     0.008490586756    -0.000001823071    12.000000000000
         C           -1.830182932991    -0.591336413244     0.000001176929    12.000000000000
         C           -0.276387932991     1.498454586756     0.000000176929    12.000000000000
         H           -1.764171932991    -1.680894413244    -0.000035823071     1.007825032230
         H           -2.391695932991    -0.266995413244     0.882749176929     1.007825032230
         H           -2.391725932991    -0.266933413244    -0.882704823071     1.007825032230
         H           -1.241302932991     2.009018586756     0.000019176929     1.007825032230
         H            0.297384067009     1.809830586756     0.877786176929     1.007825032230
         H            0.297351067009     1.809835586756    -0.877804823071     1.007825032230
         H            2.386362467009    -0.846556313244     0.000003176929     1.007825032230

  Basis Set: AUG-CC-PVTZ
    Blend: AUG-CC-PVTZ
  Basis Set: (AUG-CC-PVTZ AUX)
    Blend: AUG-CC-PVTZ-JKFIT
	 Reference Energy          =    -247.0221573044100012 [Eh]
	 Singles Energy            =      -0.0000000000000000 [Eh]
	 Same-Spin Energy          =      -0.2470675415159448 [Eh]
	 Opposite-Spin Energy      =      -0.8195398537545602 [Eh]
	 Correlation Energy        =      -1.0666073952705051 [Eh]
	 Total Energy              =    -248.0887646996804961 [Eh]

	 ================> DF-SCS-MP2 Energies <==================
	-----------------------------------------------------------
	 SCS Same-Spin Scale       =       0.3333333333333333 [-]
	 SCS Opposite-Spin Scale   =       1.2000000000000000 [-]
	 SCS Same-Spin Energy      =      -0.0823558471719816 [Eh]
	 SCS Opposite-Spin Energy  =      -0.9834478245054722 [Eh]
	 SCS Correlation Energy    =      -1.0658036716774537 [Eh]
	 SCS Total Energy          =    -248.0879609760874587 [Eh]
	-----------------------------------------------------------

  Dipole Moment: [D]
     X:    -0.7653      Y:     0.5861      Z:     0.0000     Total:     0.9640

*** Psi4 exiting successfully. Buy a developer a beer!
