                               Psi4 1.4a3.dev225

  ==> Input File <==

--------------------------------------------------------------------------
#psi4
#
memory 32 gb

molecule  {
0 1
  O        1.8229650    -0.1562770     0.0000010
  N        0.6307432    -0.8336522    -0.0000019
  C       -0.3975690    -0.0229950    -0.0000020
  C       -1.7709740    -0.6228220     0.0000010
  C       -0.2171790     1.4669690     0.0000000
  H       -1.7049630    -1.7123800    -0.0000360
  H       -2.3324870    -0.2984810     0.8827490
  H       -2.3325170    -0.2984190    -0.8827050
  H       -1.1820940     1.9775330     0.0000190
  H        0.3565930     1.7783450     0.8777860
  H        0.3565600     1.7783500    -0.8778050
  H        2.4586350    -0.8931860     0.0000030
units angstrom
no_reorient  #important for SAPT in psi4, default
symmetry c1  #important for SAPT in psi4, default
}

set PROPERTIES_ORIGIN ["COM"]
properties('MP2/aug-cc-pvtz', properties = ['dipole'])
--------------------------------------------------------------------------

    Molecular point group: c1
  Charge       = 0
  Multiplicity = 1
  Basis Set: AUG-CC-PVTZ
    Blend: AUG-CC-PVTZ
  Basis Set: (AUG-CC-PVTZ AUX)
    Blend: AUG-CC-PVTZ-JKFIT

    Orbital Energies [Eh]
    ---------------------

    Doubly Occupied:

       1A    -20.592615     2A    -15.607887     3A    -11.280401
       4A    -11.231744     5A    -11.227728     6A     -1.427956
       7A     -1.151318     8A     -0.989803     9A     -0.957453
      10A     -0.738115    11A     -0.695212    12A     -0.649969
      13A     -0.620356    14A     -0.570437    15A     -0.565300
      16A     -0.548777    17A     -0.547515    18A     -0.518532
      19A     -0.427570    20A     -0.363075

  @DF-RHF Final Energy:  -247.01994658458511

   => Energetics <=

    Nuclear Repulsion Energy =            178.4144912267435927
    One-Electron Energy =                -689.4453482299259122
    Two-Electron Energy =                 264.0109104185971773
    Total Energy =                       -247.0199465845851137
  Basis Set: (AUG-CC-PVTZ AUX)
    Blend: AUG-CC-PVTZ-RI
    Molecular point group: c1

    Geometry (in Angstrom), charge = 0, multiplicity = 1:

       Center              X                  Y                   Z               Mass
    ------------   -----------------  -----------------  -----------------  -----------------
         O            1.755242709990    -0.129317053436     0.000001157761    15.994914619570
         N            0.563020909990    -0.806692253436    -0.000001742239    14.003074004430
         C           -0.465291290010     0.003964946564    -0.000001842239    12.000000000000
         C           -1.838696290010    -0.595862053436     0.000001157761    12.000000000000
         C           -0.284901290010     1.493928946564     0.000000157761    12.000000000000
         H           -1.772685290010    -1.685420053436    -0.000035842239     1.007825032230
         H           -2.400209290010    -0.271521053436     0.882749157761     1.007825032230
         H           -2.400239290010    -0.271459053436    -0.882704842239     1.007825032230
         H           -1.249816290010     2.004492946564     0.000019157761     1.007825032230
         H            0.288870709990     1.805304946564     0.877786157761     1.007825032230
         H            0.288837709990     1.805309946564    -0.877804842239     1.007825032230
         H            2.390912709990    -0.866226053436     0.000003157761     1.007825032230

  Basis Set: AUG-CC-PVTZ
    Blend: AUG-CC-PVTZ
  Basis Set: (AUG-CC-PVTZ AUX)
    Blend: AUG-CC-PVTZ-JKFIT
	 Reference Energy          =    -247.0199465845851137 [Eh]
	 Singles Energy            =      -0.0000000000000000 [Eh]
	 Same-Spin Energy          =      -0.2475285723100927 [Eh]
	 Opposite-Spin Energy      =      -0.8195561977704385 [Eh]
	 Correlation Energy        =      -1.0670847700805313 [Eh]
	 Total Energy              =    -248.0870313546656405 [Eh]

	 ================> DF-SCS-MP2 Energies <==================
	-----------------------------------------------------------
	 SCS Same-Spin Scale       =       0.3333333333333333 [-]
	 SCS Opposite-Spin Scale   =       1.2000000000000000 [-]
	 SCS Same-Spin Energy      =      -0.0825095241033642 [Eh]
	 SCS Opposite-Spin Energy  =      -0.9834674373245262 [Eh]
	 SCS Correlation Energy    =      -1.0659769614278904 [Eh]
	 SCS Total Energy          =    -248.0859235460129923 [Eh]
	-----------------------------------------------------------

  Dipole Moment: [D]
     X:    -0.5589      Y:     0.5083      Z:     0.0000     Total:     0.7555

*** Psi4 exiting successfully. Buy a developer a beer!
