                               Psi4 1.3.2 release

  ==> Input File <==

--------------------------------------------------------------------------
#psi4
#
memory 32 gb

molecule  {
0 1
  O        1.8230110    -0.1562000     0.0000460
  N        0.5872960    -0.8583550    -0.0000260
  C       -0.2450115    -0.1524166    -0.0000184
  C       -1.7709560    -0.6228440     0.0000070
  C       -0.2172690     1.4669500    -0.0000150
  H       -1.7049950    -1.7124010    -0.0004820
  H       -2.3322460    -0.2988480     0.8830240
  H       -2.3326640    -0.2980280    -0.8824330
  H       -1.1822450     1.9774040    -0.0005330
  H        0.3560010     1.7784360     0.8780530
  H        0.3569220     1.7783250    -0.8775160
  H        2.4586410    -0.8931450    -0.0001530
units angstrom
no_reorient  #important for SAPT in psi4, default
symmetry c1  #important for SAPT in psi4, default
}

set PROPERTIES_ORIGIN ["COM"]
properties('MP2/aug-cc-pvtz', properties = ['dipole'])
--------------------------------------------------------------------------

    Molecular point group: c1
  Charge       = 0
  Multiplicity = 1
  Basis Set: AUG-CC-PVTZ
    Blend: AUG-CC-PVTZ
  Basis Set: (AUG-CC-PVTZ AUX)
    Blend: AUG-CC-PVTZ-JKFIT

    Orbital Energies [Eh]
    ---------------------

    Doubly Occupied:

       1A    -20.595438     2A    -15.588318     3A    -11.259256
       4A    -11.230260     5A    -11.229860     6A     -1.437196
       7A     -1.228417     8A     -0.981759     9A     -0.938248
      10A     -0.729024    11A     -0.701412    12A     -0.634538
      13A     -0.633017    14A     -0.569590    15A     -0.560290
      16A     -0.558378    17A     -0.542008    18A     -0.510173
      19A     -0.434266    20A     -0.394574

  @DF-RHF Final Energy:  -246.95536649542376

   => Energetics <=

    Nuclear Repulsion Energy =            180.0234283243079005
    One-Electron Energy =                -692.4455432489195346
    Two-Electron Energy =                 265.4667484291878736
    Total Energy =                       -246.9553664954237320
  Basis Set: (AUG-CC-PVTZ AUX)
    Blend: AUG-CC-PVTZ-RI
    Molecular point group: c1

    Geometry (in Angstrom), charge = 0, multiplicity = 1:

       Center              X                  Y                   Z               Mass
    ------------   -----------------  -----------------  -----------------  -----------------
         O            1.738563101053    -0.103255357214     0.000045800512    15.994914619570
         N            0.502848101053    -0.805410357214    -0.000026199488    14.003074004430
         C           -0.329459398947    -0.099471957214    -0.000018599488    12.000000000000
         C           -1.855403898947    -0.569899357214     0.000006800512    12.000000000000
         C           -0.301716898947     1.519894642786    -0.000015199488    12.000000000000
         H           -1.789442898947    -1.659456357214    -0.000482199488     1.007825032230
         H           -2.416693898947    -0.245903357214     0.883023800512     1.007825032230
         H           -2.417111898947    -0.245083357214    -0.882433199488     1.007825032230
         H           -1.266692898947     2.030348642786    -0.000533199488     1.007825032230
         H            0.271553101053     1.831380642786     0.878052800512     1.007825032230
         H            0.272474101053     1.831269642786    -0.877516199488     1.007825032230
         H            2.374193101053    -0.840200357214    -0.000153199488     1.007825032230

  Basis Set: AUG-CC-PVTZ
    Blend: AUG-CC-PVTZ
  Basis Set: (AUG-CC-PVTZ AUX)
    Blend: AUG-CC-PVTZ-JKFIT
	 Reference Energy          =    -246.9553664954237604 [Eh]
	 Singles Energy            =      -0.0000000000000000 [Eh]
	 Same-Spin Energy          =      -0.2441814366293865 [Eh]
	 Opposite-Spin Energy      =      -0.8129100998999657 [Eh]
	 Correlation Energy        =      -1.0570915365293521 [Eh]
	 Total Energy              =    -248.0124580319531162 [Eh]

	 ================> DF-SCS-MP2 Energies <==================
	-----------------------------------------------------------
	 SCS Same-Spin Scale       =       0.3333333333333333 [-]
	 SCS Opposite-Spin Scale   =       1.2000000000000000 [-]
	 SCS Same-Spin Energy      =      -0.0813938122097955 [Eh]
	 SCS Opposite-Spin Energy  =      -0.9754921198799588 [Eh]
	 SCS Correlation Energy    =      -1.0568859320897543 [Eh]
	 SCS Total Energy          =    -248.0122524275135163 [Eh]
	-----------------------------------------------------------

  Dipole Moment: [D]
     X:    -0.5873      Y:     0.3785      Z:    -0.0002     Total:     0.6987

*** Psi4 exiting successfully. Buy a developer a beer!
