                               Psi4 1.3.2 release

  ==> Input File <==

--------------------------------------------------------------------------
#psi4
#
memory 32 gb

molecule  {
0 1
  O        1.8230110    -0.1562000     0.0000460
  N        0.5997385    -0.8798143    -0.0000314
  C       -0.3975370    -0.0230490    -0.0000170
  C       -1.7709560    -0.6228440     0.0000070
  C       -0.2172690     1.4669500    -0.0000150
  H       -1.7049950    -1.7124010    -0.0004820
  H       -2.3322460    -0.2988480     0.8830240
  H       -2.3326640    -0.2980280    -0.8824330
  H       -1.1822450     1.9774040    -0.0005330
  H        0.3560010     1.7784360     0.8780530
  H        0.3569220     1.7783250    -0.8775160
  H        2.4586410    -0.8931450    -0.0001530
units angstrom
no_reorient  #important for SAPT in psi4, default
symmetry c1  #important for SAPT in psi4, default
}

set PROPERTIES_ORIGIN ["COM"]
properties('MP2/aug-cc-pvtz', properties = ['dipole'])
--------------------------------------------------------------------------

    Molecular point group: c1
  Charge       = 0
  Multiplicity = 1
  Basis Set: AUG-CC-PVTZ
    Blend: AUG-CC-PVTZ
  Basis Set: (AUG-CC-PVTZ AUX)
    Blend: AUG-CC-PVTZ-JKFIT

    Orbital Energies [Eh]
    ---------------------

    Doubly Occupied:

       1A    -20.586448     2A    -15.612165     3A    -11.286785
       4A    -11.232536     5A    -11.231688     6A     -1.402788
       7A     -1.153274     8A     -0.992291     9A     -0.959335
      10A     -0.728813    11A     -0.687229    12A     -0.645157
      13A     -0.616486    14A     -0.570800    15A     -0.561117
      16A     -0.545323    17A     -0.545198    18A     -0.519517
      19A     -0.436410    20A     -0.369316

  @DF-RHF Final Energy:  -247.01775646304407

   => Energetics <=

    Nuclear Repulsion Energy =            177.5300795621399459
    One-Electron Energy =                -687.7303222550190185
    Two-Electron Energy =                 263.1824862298350354
    Total Energy =                       -247.0177564630440656
  Basis Set: (AUG-CC-PVTZ AUX)
    Blend: AUG-CC-PVTZ-RI
    Molecular point group: c1

    Geometry (in Angstrom), charge = 0, multiplicity = 1:

       Center              X                  Y                   Z               Mass
    ------------   -----------------  -----------------  -----------------  -----------------
         O            1.761232643783    -0.120392491637     0.000046605637    15.994914619570
         N            0.537960143783    -0.844006791637    -0.000030794363    14.003074004430
         C           -0.459315356217     0.012758508363    -0.000016394363    12.000000000000
         C           -1.832734356217    -0.587036491637     0.000007605637    12.000000000000
         C           -0.279047356217     1.502757508363    -0.000014394363    12.000000000000
         H           -1.766773356217    -1.676593491637    -0.000481394363     1.007825032230
         H           -2.394024356217    -0.263040491637     0.883024605637     1.007825032230
         H           -2.394442356217    -0.262220491637    -0.882432394363     1.007825032230
         H           -1.244023356217     2.013211508363    -0.000532394363     1.007825032230
         H            0.294222643783     1.814243508363     0.878053605637     1.007825032230
         H            0.295143643783     1.814132508363    -0.877515394363     1.007825032230
         H            2.396862643783    -0.857337491637    -0.000152394363     1.007825032230

  Basis Set: AUG-CC-PVTZ
    Blend: AUG-CC-PVTZ
  Basis Set: (AUG-CC-PVTZ AUX)
    Blend: AUG-CC-PVTZ-JKFIT
	 Reference Energy          =    -247.0177564630440656 [Eh]
	 Singles Energy            =      -0.0000000000000000 [Eh]
	 Same-Spin Energy          =      -0.2479011408795588 [Eh]
	 Opposite-Spin Energy      =      -0.8216864955126792 [Eh]
	 Correlation Energy        =      -1.0695876363922381 [Eh]
	 Total Energy              =    -248.0873440994363079 [Eh]

	 ================> DF-SCS-MP2 Energies <==================
	-----------------------------------------------------------
	 SCS Same-Spin Scale       =       0.3333333333333333 [-]
	 SCS Opposite-Spin Scale   =       1.2000000000000000 [-]
	 SCS Same-Spin Energy      =      -0.0826337136265196 [Eh]
	 SCS Opposite-Spin Energy  =      -0.9860237946152151 [Eh]
	 SCS Correlation Energy    =      -1.0686575082417347 [Eh]
	 SCS Total Energy          =    -248.0864139712857934 [Eh]
	-----------------------------------------------------------

  Dipole Moment: [D]
     X:    -0.7356      Y:     0.5977      Z:    -0.0002     Total:     0.9478

*** Psi4 exiting successfully. Buy a developer a beer!
