                               Psi4 1.4a3.dev225

  ==> Input File <==

--------------------------------------------------------------------------
#psi4
#
memory 32 gb

molecule  {
0 1
  O        1.8229650    -0.1562770     0.0000010
  N        0.5437968    -0.8830518    -0.0000021
  C       -0.3975690    -0.0229950    -0.0000020
  C       -1.7709740    -0.6228220     0.0000010
  C       -0.2171790     1.4669690     0.0000000
  H       -1.7049630    -1.7123800    -0.0000360
  H       -2.3324870    -0.2984810     0.8827490
  H       -2.3325170    -0.2984190    -0.8827050
  H       -1.1820940     1.9775330     0.0000190
  H        0.3565930     1.7783450     0.8777860
  H        0.3565600     1.7783500    -0.8778050
  H        2.4586350    -0.8931860     0.0000030
units angstrom
no_reorient  #important for SAPT in psi4, default
symmetry c1  #important for SAPT in psi4, default
}

set PROPERTIES_ORIGIN ["COM"]
properties('MP2/aug-cc-pvtz', properties = ['dipole'])
--------------------------------------------------------------------------

    Molecular point group: c1
  Charge       = 0
  Multiplicity = 1
  Basis Set: AUG-CC-PVTZ
    Blend: AUG-CC-PVTZ
  Basis Set: (AUG-CC-PVTZ AUX)
    Blend: AUG-CC-PVTZ-JKFIT

    Orbital Energies [Eh]
    ---------------------

    Doubly Occupied:

       1A    -20.581774     2A    -15.611359     3A    -11.284043
       4A    -11.232878     5A    -11.232429     6A     -1.383192
       7A     -1.171361     8A     -0.995885     9A     -0.960320
      10A     -0.723069    11A     -0.681015    12A     -0.641877
      13A     -0.617119    14A     -0.570704    15A     -0.559239
      16A     -0.545355    17A     -0.539154    18A     -0.521747
      19A     -0.435600    20A     -0.385432

  @DF-RHF Final Energy:  -247.01844122422864

   => Energetics <=

    Nuclear Repulsion Energy =            177.6485370221521407
    One-Electron Energy =                -687.9868490783513835
    Two-Electron Energy =                 263.3198708319706043
    Total Energy =                       -247.0184412242286385
  Basis Set: (AUG-CC-PVTZ AUX)
    Blend: AUG-CC-PVTZ-RI
    Molecular point group: c1

    Geometry (in Angstrom), charge = 0, multiplicity = 1:

       Center              X                  Y                   Z               Mass
    ------------   -----------------  -----------------  -----------------  -----------------
         O            1.771908977075    -0.119847921563     0.000001196098    15.994914619570
         N            0.492740777075    -0.846622721563    -0.000001903902    14.003074004430
         C           -0.448625022925     0.013434078437    -0.000001803902    12.000000000000
         C           -1.822030022925    -0.586392921563     0.000001196098    12.000000000000
         C           -0.268235022925     1.503398078437     0.000000196098    12.000000000000
         H           -1.756019022925    -1.675950921563    -0.000035803902     1.007825032230
         H           -2.383543022925    -0.262051921563     0.882749196098     1.007825032230
         H           -2.383573022925    -0.261989921563    -0.882704803902     1.007825032230
         H           -1.233150022925     2.013962078437     0.000019196098     1.007825032230
         H            0.305536977075     1.814774078437     0.877786196098     1.007825032230
         H            0.305503977075     1.814779078437    -0.877804803902     1.007825032230
         H            2.407578977075    -0.856756921563     0.000003196098     1.007825032230

  Basis Set: AUG-CC-PVTZ
    Blend: AUG-CC-PVTZ
  Basis Set: (AUG-CC-PVTZ AUX)
    Blend: AUG-CC-PVTZ-JKFIT
	 Reference Energy          =    -247.0184412242286385 [Eh]
	 Singles Energy            =      -0.0000000000000000 [Eh]
	 Same-Spin Energy          =      -0.2473319104082617 [Eh]
	 Opposite-Spin Energy      =      -0.8212935133813495 [Eh]
	 Correlation Energy        =      -1.0686254237896111 [Eh]
	 Total Energy              =    -248.0870666480182365 [Eh]

	 ================> DF-SCS-MP2 Energies <==================
	-----------------------------------------------------------
	 SCS Same-Spin Scale       =       0.3333333333333333 [-]
	 SCS Opposite-Spin Scale   =       1.2000000000000000 [-]
	 SCS Same-Spin Energy      =      -0.0824439701360872 [Eh]
	 SCS Opposite-Spin Energy  =      -0.9855522160576193 [Eh]
	 SCS Correlation Energy    =      -1.0679961861937066 [Eh]
	 SCS Total Energy          =    -248.0864374104223486 [Eh]
	-----------------------------------------------------------

  Dipole Moment: [D]
     X:    -0.9062      Y:     0.6259      Z:     0.0000     Total:     1.1014

*** Psi4 exiting successfully. Buy a developer a beer!
