                               Psi4 1.4a3.dev225

  ==> Input File <==

--------------------------------------------------------------------------
#psi4
#
memory 32 gb

molecule  {
0 1
  O        1.8229650    -0.1562770     0.0000010
  N        0.5872700    -0.8583520    -0.0000020
  C       -0.4356995     0.0093479    -0.0000020
  C       -1.7709740    -0.6228220     0.0000010
  C       -0.2171790     1.4669690     0.0000000
  H       -1.7049630    -1.7123800    -0.0000360
  H       -2.3324870    -0.2984810     0.8827490
  H       -2.3325170    -0.2984190    -0.8827050
  H       -1.1820940     1.9775330     0.0000190
  H        0.3565930     1.7783450     0.8777860
  H        0.3565600     1.7783500    -0.8778050
  H        2.4586350    -0.8931860     0.0000030
units angstrom
no_reorient  #important for SAPT in psi4, default
symmetry c1  #important for SAPT in psi4, default
}

set PROPERTIES_ORIGIN ["COM"]
properties('MP2/aug-cc-pvtz', properties = ['dipole'])
--------------------------------------------------------------------------

    Molecular point group: c1
  Charge       = 0
  Multiplicity = 1
  Basis Set: AUG-CC-PVTZ
    Blend: AUG-CC-PVTZ
  Basis Set: (AUG-CC-PVTZ AUX)
    Blend: AUG-CC-PVTZ-JKFIT

    Orbital Energies [Eh]
    ---------------------

    Doubly Occupied:

       1A    -20.585481     2A    -15.612001     3A    -11.287611
       4A    -11.232643     5A    -11.230604     6A     -1.398330
       7A     -1.150504     8A     -0.991766     9A     -0.964928
      10A     -0.731277    11A     -0.683667    12A     -0.648054
      13A     -0.617719    14A     -0.574336    15A     -0.561865
      16A     -0.544519    17A     -0.541397    18A     -0.526397
      19A     -0.433534    20A     -0.360994

  @DF-RHF Final Energy:  -247.01238420833201

   => Energetics <=

    Nuclear Repulsion Energy =            177.6564958015310367
    One-Electron Energy =                -687.9825075608250700
    Two-Electron Energy =                 263.3136275509619963
    Total Energy =                       -247.0123842083320369
  Basis Set: (AUG-CC-PVTZ AUX)
    Blend: AUG-CC-PVTZ-RI
    Molecular point group: c1

    Geometry (in Angstrom), charge = 0, multiplicity = 1:

       Center              X                  Y                   Z               Mass
    ------------   -----------------  -----------------  -----------------  -----------------
         O            1.769839343719    -0.129895288543     0.000001176929    15.994914619570
         N            0.534144343719    -0.831970288543    -0.000001823071    14.003074004430
         C           -0.488825156281     0.035729611457    -0.000001823071    12.000000000000
         C           -1.824099656281    -0.596440288543     0.000001176929    12.000000000000
         C           -0.270304656281     1.493350711457     0.000000176929    12.000000000000
         H           -1.758088656281    -1.685998288543    -0.000035823071     1.007825032230
         H           -2.385612656281    -0.272099288543     0.882749176929     1.007825032230
         H           -2.385642656281    -0.272037288543    -0.882704823071     1.007825032230
         H           -1.235219656281     2.003914711457     0.000019176929     1.007825032230
         H            0.303467343719     1.804726711457     0.877786176929     1.007825032230
         H            0.303434343719     1.804731711457    -0.877804823071     1.007825032230
         H            2.405509343719    -0.866804288543     0.000003176929     1.007825032230

  Basis Set: AUG-CC-PVTZ
    Blend: AUG-CC-PVTZ
  Basis Set: (AUG-CC-PVTZ AUX)
    Blend: AUG-CC-PVTZ-JKFIT
	 Reference Energy          =    -247.0123842083320085 [Eh]
	 Singles Energy            =      -0.0000000000000000 [Eh]
	 Same-Spin Energy          =      -0.2489651594566074 [Eh]
	 Opposite-Spin Energy      =      -0.8233570318421830 [Eh]
	 Correlation Energy        =      -1.0723221912987904 [Eh]
	 Total Energy              =    -248.0847063996307895 [Eh]

	 ================> DF-SCS-MP2 Energies <==================
	-----------------------------------------------------------
	 SCS Same-Spin Scale       =       0.3333333333333333 [-]
	 SCS Opposite-Spin Scale   =       1.2000000000000000 [-]
	 SCS Same-Spin Energy      =      -0.0829883864855358 [Eh]
	 SCS Opposite-Spin Energy  =      -0.9880284382106196 [Eh]
	 SCS Correlation Energy    =      -1.0710168246961553 [Eh]
	 SCS Total Energy          =    -248.0834010330281671 [Eh]
	-----------------------------------------------------------

  Dipole Moment: [D]
     X:    -0.7483      Y:     0.5930      Z:     0.0000     Total:     0.9548

*** Psi4 exiting successfully. Buy a developer a beer!
