                               Psi4 1.3.2 release

  ==> Input File <==

--------------------------------------------------------------------------
#psi4
#
memory 32 gb

molecule  {
0 1
  O        1.7428464    -0.0308791     0.0000495
  N        0.5872960    -0.8583550    -0.0000260
  C       -0.3975370    -0.0230490    -0.0000170
  C       -1.7709560    -0.6228440     0.0000070
  C       -0.2172690     1.4669500    -0.0000150
  H       -1.7049950    -1.7124010    -0.0004820
  H       -2.3322460    -0.2988480     0.8830240
  H       -2.3326640    -0.2980280    -0.8824330
  H       -1.1822450     1.9774040    -0.0005330
  H        0.3560010     1.7784360     0.8780530
  H        0.3569220     1.7783250    -0.8775160
  H        2.4586410    -0.8931450    -0.0001530
units angstrom
no_reorient  #important for SAPT in psi4, default
symmetry c1  #important for SAPT in psi4, default
}

set PROPERTIES_ORIGIN ["COM"]
properties('MP2/aug-cc-pvtz', properties = ['dipole'])
--------------------------------------------------------------------------

    Molecular point group: c1
  Charge       = 0
  Multiplicity = 1
  Basis Set: AUG-CC-PVTZ
    Blend: AUG-CC-PVTZ
  Basis Set: (AUG-CC-PVTZ AUX)
    Blend: AUG-CC-PVTZ-JKFIT

    Orbital Energies [Eh]
    ---------------------

    Doubly Occupied:

       1A    -20.595995     2A    -15.607937     3A    -11.280044
       4A    -11.230217     5A    -11.228821     6A     -1.392919
       7A     -1.145376     8A     -0.989345     9A     -0.956577
      10A     -0.720010    11A     -0.670898    12A     -0.642284
      13A     -0.619057    14A     -0.560491    15A     -0.553309
      16A     -0.539849    17A     -0.539692    18A     -0.514901
      19A     -0.441164    20A     -0.372314

  @DF-RHF Final Energy:  -246.99049874705713

   => Energetics <=

    Nuclear Repulsion Energy =            178.8330142019017615
    One-Electron Energy =                -690.4446284812762542
    Two-Electron Energy =                 264.6211155323173898
    Total Energy =                       -246.9904987470571314
  Basis Set: (AUG-CC-PVTZ AUX)
    Blend: AUG-CC-PVTZ-RI
    Molecular point group: c1

    Geometry (in Angstrom), charge = 0, multiplicity = 1:

       Center              X                  Y                   Z               Mass
    ------------   -----------------  -----------------  -----------------  -----------------
         O            1.701005129036    -0.026624035926     0.000048304216    15.994914619570
         N            0.545454729036    -0.854099935926    -0.000027195784    14.003074004430
         C           -0.439378270964    -0.018793935926    -0.000018195784    12.000000000000
         C           -1.812797270964    -0.618588935926     0.000005804216    12.000000000000
         C           -0.259110270964     1.471205064074    -0.000016195784    12.000000000000
         H           -1.746836270964    -1.708145935926    -0.000483195784     1.007825032230
         H           -2.374087270964    -0.294592935926     0.883022804216     1.007825032230
         H           -2.374505270964    -0.293772935926    -0.882434195784     1.007825032230
         H           -1.224086270964     1.981659064074    -0.000534195784     1.007825032230
         H            0.314159729036     1.782691064074     0.878051804216     1.007825032230
         H            0.315080729036     1.782580064074    -0.877517195784     1.007825032230
         H            2.416799729036    -0.888889935926    -0.000154195784     1.007825032230

  Basis Set: AUG-CC-PVTZ
    Blend: AUG-CC-PVTZ
  Basis Set: (AUG-CC-PVTZ AUX)
    Blend: AUG-CC-PVTZ-JKFIT
	 Reference Energy          =    -246.9904987470571314 [Eh]
	 Singles Energy            =      -0.0000000000000000 [Eh]
	 Same-Spin Energy          =      -0.2503098412770167 [Eh]
	 Opposite-Spin Energy      =      -0.8272355883151576 [Eh]
	 Correlation Energy        =      -1.0775454295921743 [Eh]
	 Total Energy              =    -248.0680441766492947 [Eh]

	 ================> DF-SCS-MP2 Energies <==================
	-----------------------------------------------------------
	 SCS Same-Spin Scale       =       0.3333333333333333 [-]
	 SCS Opposite-Spin Scale   =       1.2000000000000000 [-]
	 SCS Same-Spin Energy      =      -0.0834366137590055 [Eh]
	 SCS Opposite-Spin Energy  =      -0.9926827059781891 [Eh]
	 SCS Correlation Energy    =      -1.0761193197371945 [Eh]
	 SCS Total Energy          =    -248.0666180667943195 [Eh]
	-----------------------------------------------------------

  Dipole Moment: [D]
     X:    -0.6251      Y:     0.4451      Z:    -0.0002     Total:     0.7673

*** Psi4 exiting successfully. Buy a developer a beer!
