                               Psi4 1.3.2 release

  ==> Input File <==

--------------------------------------------------------------------------
#psi4
#
memory 32 gb

molecule  {
0 1
  O        1.8230110    -0.1562000     0.0000460
  N        0.5413263    -0.7704455    -0.0000042
  C       -0.3975370    -0.0230490    -0.0000170
  C       -1.7709560    -0.6228440     0.0000070
  C       -0.2172690     1.4669500    -0.0000150
  H       -1.7049950    -1.7124010    -0.0004820
  H       -2.3322460    -0.2988480     0.8830240
  H       -2.3326640    -0.2980280    -0.8824330
  H       -1.1822450     1.9774040    -0.0005330
  H        0.3560010     1.7784360     0.8780530
  H        0.3569220     1.7783250    -0.8775160
  H        2.4586410    -0.8931450    -0.0001530
units angstrom
no_reorient  #important for SAPT in psi4, default
symmetry c1  #important for SAPT in psi4, default
}

set PROPERTIES_ORIGIN ["COM"]
properties('MP2/aug-cc-pvtz', properties = ['dipole'])
--------------------------------------------------------------------------

    Molecular point group: c1
  Charge       = 0
  Multiplicity = 1
  Basis Set: AUG-CC-PVTZ
    Blend: AUG-CC-PVTZ
  Basis Set: (AUG-CC-PVTZ AUX)
    Blend: AUG-CC-PVTZ-JKFIT

    Orbital Energies [Eh]
    ---------------------

    Doubly Occupied:

       1A    -20.589859     2A    -15.595478     3A    -11.264584
       4A    -11.230235     5A    -11.224860     6A     -1.408641
       7A     -1.196645     8A     -0.993676     9A     -0.958080
      10A     -0.736510    11A     -0.686277    12A     -0.648827
      13A     -0.625263    14A     -0.574112    15A     -0.560373
      16A     -0.551139    17A     -0.543023    18A     -0.522243
      19A     -0.413065    20A     -0.397145

  @DF-RHF Final Energy:  -247.01788559794281

   => Energetics <=

    Nuclear Repulsion Energy =            180.0310153182832948
    One-Electron Energy =                -692.6577342094117284
    Two-Electron Energy =                 265.6088332931856257
    Total Energy =                       -247.0178855979428363
  Basis Set: (AUG-CC-PVTZ AUX)
    Blend: AUG-CC-PVTZ-RI
    Molecular point group: c1

    Geometry (in Angstrom), charge = 0, multiplicity = 1:

       Center              X                  Y                   Z               Mass
    ------------   -----------------  -----------------  -----------------  -----------------
         O            1.772429350332    -0.141356782643     0.000041391822    15.994914619570
         N            0.490744650332    -0.755602282643    -0.000008808178    14.003074004430
         C           -0.448118649668    -0.008205782643    -0.000021608178    12.000000000000
         C           -1.821537649668    -0.608000782643     0.000002391822    12.000000000000
         C           -0.267850649668     1.481793217357    -0.000019608178    12.000000000000
         H           -1.755576649668    -1.697557782643    -0.000486608178     1.007825032230
         H           -2.382827649668    -0.284004782643     0.883019391822     1.007825032230
         H           -2.383245649668    -0.283184782643    -0.882437608178     1.007825032230
         H           -1.232826649668     1.992247217357    -0.000537608178     1.007825032230
         H            0.305419350332     1.793279217357     0.878048391822     1.007825032230
         H            0.306340350332     1.793168217357    -0.877520608178     1.007825032230
         H            2.408059350332    -0.878301782643    -0.000157608178     1.007825032230

  Basis Set: AUG-CC-PVTZ
    Blend: AUG-CC-PVTZ
  Basis Set: (AUG-CC-PVTZ AUX)
    Blend: AUG-CC-PVTZ-JKFIT
	 Reference Energy          =    -247.0178855979428079 [Eh]
	 Singles Energy            =      -0.0000000000000000 [Eh]
	 Same-Spin Energy          =      -0.2456302266264124 [Eh]
	 Opposite-Spin Energy      =      -0.8153764004119846 [Eh]
	 Correlation Energy        =      -1.0610066270383969 [Eh]
	 Total Energy              =    -248.0788922249812174 [Eh]

	 ================> DF-SCS-MP2 Energies <==================
	-----------------------------------------------------------
	 SCS Same-Spin Scale       =       0.3333333333333333 [-]
	 SCS Opposite-Spin Scale   =       1.2000000000000000 [-]
	 SCS Same-Spin Energy      =      -0.0818767422088041 [Eh]
	 SCS Opposite-Spin Energy  =      -0.9784516804943815 [Eh]
	 SCS Correlation Energy    =      -1.0603284227031855 [Eh]
	 SCS Total Energy          =    -248.0782140206459871 [Eh]
	-----------------------------------------------------------

  Dipole Moment: [D]
     X:    -0.7338      Y:     0.4292      Z:    -0.0002     Total:     0.8501

*** Psi4 exiting successfully. Buy a developer a beer!
