                               Psi4 1.3.2 release

  ==> Input File <==

--------------------------------------------------------------------------
#psi4
#
memory 32 gb

molecule  {
0 1
  O        1.8105685    -0.1347407     0.0000466
  N        0.5872960    -0.8583550    -0.0000260
  C       -0.3975370    -0.0230490    -0.0000170
  C       -1.7709560    -0.6228440     0.0000070
  C       -0.2172690     1.4669500    -0.0000150
  H       -1.7049950    -1.7124010    -0.0004820
  H       -2.3322460    -0.2988480     0.8830240
  H       -2.3326640    -0.2980280    -0.8824330
  H       -1.1822450     1.9774040    -0.0005330
  H        0.3560010     1.7784360     0.8780530
  H        0.3569220     1.7783250    -0.8775160
  H        2.4586410    -0.8931450    -0.0001530
units angstrom
no_reorient  #important for SAPT in psi4, default
symmetry c1  #important for SAPT in psi4, default
}

set PROPERTIES_ORIGIN ["COM"]
properties('MP2/aug-cc-pvtz', properties = ['dipole'])
--------------------------------------------------------------------------

    Molecular point group: c1
  Charge       = 0
  Multiplicity = 1
  Basis Set: AUG-CC-PVTZ
    Blend: AUG-CC-PVTZ
  Basis Set: (AUG-CC-PVTZ AUX)
    Blend: AUG-CC-PVTZ-JKFIT

    Orbital Energies [Eh]
    ---------------------

    Doubly Occupied:

       1A    -20.588940     2A    -15.608870     3A    -11.281838
       4A    -11.231755     5A    -11.230075     6A     -1.401150
       7A     -1.158564     8A     -0.991990     9A     -0.958672
      10A     -0.726515    11A     -0.684835    12A     -0.645766
      13A     -0.617963    14A     -0.568083    15A     -0.560793
      16A     -0.545967    17A     -0.543962    18A     -0.519726
      19A     -0.434041    20A     -0.374254

  @DF-RHF Final Energy:  -247.01857870576842

   => Energetics <=

    Nuclear Repulsion Energy =            178.1239460181541290
    One-Electron Energy =                -688.9375315709488632
    Two-Electron Energy =                 263.7950068470263432
    Total Energy =                       -247.0185787057683910
  Basis Set: (AUG-CC-PVTZ AUX)
    Blend: AUG-CC-PVTZ-RI
    Molecular point group: c1

    Geometry (in Angstrom), charge = 0, multiplicity = 1:

       Center              X                  Y                   Z               Mass
    ------------   -----------------  -----------------  -----------------  -----------------
         O            1.753899464140    -0.107745121581     0.000046039171    15.994914619570
         N            0.530626964140    -0.831359421581    -0.000026560829    14.003074004430
         C           -0.454206035860     0.003946578419    -0.000017560829    12.000000000000
         C           -1.827625035860    -0.595848421581     0.000006439171    12.000000000000
         C           -0.273938035860     1.493945578419    -0.000015560829    12.000000000000
         H           -1.761664035860    -1.685405421581    -0.000482560829     1.007825032230
         H           -2.388915035860    -0.271852421581     0.883023439171     1.007825032230
         H           -2.389333035860    -0.271032421581    -0.882433560829     1.007825032230
         H           -1.238914035860     2.004399578419    -0.000533560829     1.007825032230
         H            0.299331964140     1.805431578419     0.878052439171     1.007825032230
         H            0.300252964140     1.805320578419    -0.877516560829     1.007825032230
         H            2.401971964140    -0.866149421581    -0.000153560829     1.007825032230

  Basis Set: AUG-CC-PVTZ
    Blend: AUG-CC-PVTZ
  Basis Set: (AUG-CC-PVTZ AUX)
    Blend: AUG-CC-PVTZ-JKFIT
	 Reference Energy          =    -247.0185787057684195 [Eh]
	 Singles Energy            =      -0.0000000000000000 [Eh]
	 Same-Spin Energy          =      -0.2477891924660865 [Eh]
	 Opposite-Spin Energy      =      -0.8212731648947398 [Eh]
	 Correlation Energy        =      -1.0690623573608262 [Eh]
	 Total Energy              =    -248.0876410631292401 [Eh]

	 ================> DF-SCS-MP2 Energies <==================
	-----------------------------------------------------------
	 SCS Same-Spin Scale       =       0.3333333333333333 [-]
	 SCS Opposite-Spin Scale   =       1.2000000000000000 [-]
	 SCS Same-Spin Energy      =      -0.0825963974886955 [Eh]
	 SCS Opposite-Spin Energy  =      -0.9855277978736877 [Eh]
	 SCS Correlation Energy    =      -1.0681241953623832 [Eh]
	 SCS Total Energy          =    -248.0867029011307920 [Eh]
	-----------------------------------------------------------

  Dipole Moment: [D]
     X:    -0.7195      Y:     0.5479      Z:    -0.0002     Total:     0.9043

*** Psi4 exiting successfully. Buy a developer a beer!
