                               Psi4 1.4a3.dev225

  ==> Input File <==

--------------------------------------------------------------------------
#psi4
#
memory 32 gb

molecule  {
0 1
  O        1.8229650    -0.1562770     0.0000010
  N        0.5872700    -0.8583520    -0.0000020
  C       -0.3594385    -0.0553379    -0.0000020
  C       -1.7709740    -0.6228220     0.0000010
  C       -0.2171790     1.4669690     0.0000000
  H       -1.7049630    -1.7123800    -0.0000360
  H       -2.3324870    -0.2984810     0.8827490
  H       -2.3325170    -0.2984190    -0.8827050
  H       -1.1820940     1.9775330     0.0000190
  H        0.3565930     1.7783450     0.8777860
  H        0.3565600     1.7783500    -0.8778050
  H        2.4586350    -0.8931860     0.0000030
units angstrom
no_reorient  #important for SAPT in psi4, default
symmetry c1  #important for SAPT in psi4, default
}

set PROPERTIES_ORIGIN ["COM"]
properties('MP2/aug-cc-pvtz', properties = ['dipole'])
--------------------------------------------------------------------------

    Molecular point group: c1
  Charge       = 0
  Multiplicity = 1
  Basis Set: AUG-CC-PVTZ
    Blend: AUG-CC-PVTZ
  Basis Set: (AUG-CC-PVTZ AUX)
    Blend: AUG-CC-PVTZ-JKFIT

    Orbital Energies [Eh]
    ---------------------

    Doubly Occupied:

       1A    -20.588822     2A    -15.605316     3A    -11.276863
       4A    -11.231650     5A    -11.230183     6A     -1.410103
       7A     -1.175429     8A     -0.992137     9A     -0.953415
      10A     -0.728081    11A     -0.691244    12A     -0.643898
      13A     -0.619300    14A     -0.567803    15A     -0.560244
      16A     -0.553091    17A     -0.544645    18A     -0.514601
      19A     -0.427941    20A     -0.389020

  @DF-RHF Final Energy:  -247.02202349866064

   => Energetics <=

    Nuclear Repulsion Energy =            178.4174701611279374
    One-Electron Energy =                -689.4714133152093609
    Two-Electron Energy =                 264.0319196554207792
    Total Energy =                       -247.0220234986606442
  Basis Set: (AUG-CC-PVTZ AUX)
    Blend: AUG-CC-PVTZ-RI
    Molecular point group: c1

    Geometry (in Angstrom), charge = 0, multiplicity = 1:

       Center              X                  Y                   Z               Mass
    ------------   -----------------  -----------------  -----------------  -----------------
         O            1.757312343346    -0.119269686456     0.000001176929    15.994914619570
         N            0.521617343346    -0.821344686456    -0.000001823071    14.003074004430
         C           -0.425091156654    -0.018330586456    -0.000001823071    12.000000000000
         C           -1.836626656654    -0.585814686456     0.000001176929    12.000000000000
         C           -0.282831656654     1.503976313544     0.000000176929    12.000000000000
         H           -1.770615656654    -1.675372686456    -0.000035823071     1.007825032230
         H           -2.398139656654    -0.261473686456     0.882749176929     1.007825032230
         H           -2.398169656654    -0.261411686456    -0.882704823071     1.007825032230
         H           -1.247746656654     2.014540313544     0.000019176929     1.007825032230
         H            0.290940343346     1.815352313544     0.877786176929     1.007825032230
         H            0.290907343346     1.815357313544    -0.877804823071     1.007825032230
         H            2.392982343346    -0.856178686456     0.000003176929     1.007825032230

  Basis Set: AUG-CC-PVTZ
    Blend: AUG-CC-PVTZ
  Basis Set: (AUG-CC-PVTZ AUX)
    Blend: AUG-CC-PVTZ-JKFIT
	 Reference Energy          =    -247.0220234986606442 [Eh]
	 Singles Energy            =      -0.0000000000000000 [Eh]
	 Same-Spin Energy          =      -0.2460084212490316 [Eh]
	 Opposite-Spin Energy      =      -0.8175836354688304 [Eh]
	 Correlation Energy        =      -1.0635920567178621 [Eh]
	 Total Energy              =    -248.0856155553784959 [Eh]

	 ================> DF-SCS-MP2 Energies <==================
	-----------------------------------------------------------
	 SCS Same-Spin Scale       =       0.3333333333333333 [-]
	 SCS Opposite-Spin Scale   =       1.2000000000000000 [-]
	 SCS Same-Spin Energy      =      -0.0820028070830105 [Eh]
	 SCS Opposite-Spin Energy  =      -0.9811003625625965 [Eh]
	 SCS Correlation Energy    =      -1.0631031696456070 [Eh]
	 SCS Total Energy          =    -248.0851266683062590 [Eh]
	-----------------------------------------------------------

  Dipole Moment: [D]
     X:    -0.7225      Y:     0.5360      Z:     0.0000     Total:     0.8996

*** Psi4 exiting successfully. Buy a developer a beer!
