                               Psi4 1.3.2 release

  ==> Input File <==

--------------------------------------------------------------------------
#psi4
#
memory 32 gb

molecule  {
0 1
  O        1.8230110    -0.1562000     0.0000460
  N        0.5872960    -0.8583550    -0.0000260
  C       -0.4737998     0.0416348    -0.0000163
  C       -1.7709560    -0.6228440     0.0000070
  C       -0.2172690     1.4669500    -0.0000150
  H       -1.7049950    -1.7124010    -0.0004820
  H       -2.3322460    -0.2988480     0.8830240
  H       -2.3326640    -0.2980280    -0.8824330
  H       -1.1822450     1.9774040    -0.0005330
  H        0.3560010     1.7784360     0.8780530
  H        0.3569220     1.7783250    -0.8775160
  H        2.4586410    -0.8931450    -0.0001530
units angstrom
no_reorient  #important for SAPT in psi4, default
symmetry c1  #important for SAPT in psi4, default
}

set PROPERTIES_ORIGIN ["COM"]
properties('MP2/aug-cc-pvtz', properties = ['dipole'])
--------------------------------------------------------------------------

    Molecular point group: c1
  Charge       = 0
  Multiplicity = 1
  Basis Set: AUG-CC-PVTZ
    Blend: AUG-CC-PVTZ
  Basis Set: (AUG-CC-PVTZ AUX)
    Blend: AUG-CC-PVTZ-JKFIT

    Orbital Energies [Eh]
    ---------------------

    Doubly Occupied:

       1A    -20.583858     2A    -15.613802     3A    -11.292641
       4A    -11.233421     5A    -11.231045     6A     -1.393525
       7A     -1.143039     8A     -0.989125     9A     -0.970697
      10A     -0.733213    11A     -0.680111    12A     -0.649408
      13A     -0.618607    14A     -0.578771    15A     -0.563094
      16A     -0.543763    17A     -0.541685    18A     -0.527042
      19A     -0.431597    20A     -0.347887

  @DF-RHF Final Energy:  -246.99706924584453

   => Energetics <=

    Nuclear Repulsion Energy =            177.3412372667224872
    One-Electron Energy =                -687.3439526115690796
    Two-Electron Energy =                 263.0056460990020355
    Total Energy =                       -246.9970692458445569
  Basis Set: (AUG-CC-PVTZ AUX)
    Blend: AUG-CC-PVTZ-RI
    Molecular point group: c1

    Geometry (in Angstrom), charge = 0, multiplicity = 1:

       Center              X                  Y                   Z               Mass
    ------------   -----------------  -----------------  -----------------  -----------------
         O            1.776144972775    -0.135131177885     0.000045455556    15.994914619570
         N            0.540429972775    -0.837286177885    -0.000026544444    14.003074004430
         C           -0.520665827225     0.062703622115    -0.000016844444    12.000000000000
         C           -1.817822027225    -0.601775177885     0.000006455556    12.000000000000
         C           -0.264135027225     1.488018822115    -0.000015544444    12.000000000000
         H           -1.751861027225    -1.691332177885    -0.000482544444     1.007825032230
         H           -2.379112027225    -0.277779177885     0.883023455556     1.007825032230
         H           -2.379530027225    -0.276959177885    -0.882433544444     1.007825032230
         H           -1.229111027225     1.998472822115    -0.000533544444     1.007825032230
         H            0.309134972775     1.799504822115     0.878052455556     1.007825032230
         H            0.310055972775     1.799393822115    -0.877516544444     1.007825032230
         H            2.411774972775    -0.872076177885    -0.000153544444     1.007825032230

  Basis Set: AUG-CC-PVTZ
    Blend: AUG-CC-PVTZ
  Basis Set: (AUG-CC-PVTZ AUX)
    Blend: AUG-CC-PVTZ-JKFIT
	 Reference Energy          =    -246.9970692458445285 [Eh]
	 Singles Energy            =      -0.0000000000000000 [Eh]
	 Same-Spin Energy          =      -0.2509088331407335 [Eh]
	 Opposite-Spin Energy      =      -0.8269951339310596 [Eh]
	 Correlation Energy        =      -1.0779039670717931 [Eh]
	 Total Energy              =    -248.0749732129163192 [Eh]

	 ================> DF-SCS-MP2 Energies <==================
	-----------------------------------------------------------
	 SCS Same-Spin Scale       =       0.3333333333333333 [-]
	 SCS Opposite-Spin Scale   =       1.2000000000000000 [-]
	 SCS Same-Spin Energy      =      -0.0836362777135778 [Eh]
	 SCS Opposite-Spin Energy  =      -0.9923941607172715 [Eh]
	 SCS Correlation Energy    =      -1.0760304384308492 [Eh]
	 SCS Total Energy          =    -248.0730996842753768 [Eh]
	-----------------------------------------------------------

  Dipole Moment: [D]
     X:    -0.7411      Y:     0.6037      Z:    -0.0002     Total:     0.9559

*** Psi4 exiting successfully. Buy a developer a beer!
