                               Psi4 1.3.2 release

  ==> Input File <==

--------------------------------------------------------------------------
#psi4
#
memory 32 gb

molecule  {
0 1
  O        1.8230110    -0.1562000     0.0000460
  N        0.6431650    -0.7876218    -0.0000262
  C       -0.3975370    -0.0230490    -0.0000170
  C       -1.7709560    -0.6228440     0.0000070
  C       -0.2172690     1.4669500    -0.0000150
  H       -1.7049950    -1.7124010    -0.0004820
  H       -2.3322460    -0.2988480     0.8830240
  H       -2.3326640    -0.2980280    -0.8824330
  H       -1.1822450     1.9774040    -0.0005330
  H        0.3560010     1.7784360     0.8780530
  H        0.3569220     1.7783250    -0.8775160
  H        2.4586410    -0.8931450    -0.0001530
units angstrom
no_reorient  #important for SAPT in psi4, default
symmetry c1  #important for SAPT in psi4, default
}

set PROPERTIES_ORIGIN ["COM"]
properties('MP2/aug-cc-pvtz', properties = ['dipole'])
--------------------------------------------------------------------------

    Molecular point group: c1
  Charge       = 0
  Multiplicity = 1
  Basis Set: AUG-CC-PVTZ
    Blend: AUG-CC-PVTZ
  Basis Set: (AUG-CC-PVTZ AUX)
    Blend: AUG-CC-PVTZ-JKFIT

    Orbital Energies [Eh]
    ---------------------

    Doubly Occupied:

       1A    -20.597285     2A    -15.603090     3A    -11.273606
       4A    -11.230934     5A    -11.224005     6A     -1.446554
       7A     -1.155378     8A     -0.988797     9A     -0.955564
      10A     -0.748999    11A     -0.700056    12A     -0.652833
      13A     -0.625662    14A     -0.570574    15A     -0.568653
      16A     -0.550813    17A     -0.546923    18A     -0.517842
      19A     -0.417632    20A     -0.362177

  @DF-RHF Final Energy:  -247.02032345811375

   => Energetics <=

    Nuclear Repulsion Energy =            179.3408400590112706
    One-Electron Energy =                -691.2475730224466588
    Two-Electron Energy =                 264.8864095053216374
    Total Energy =                       -247.0203234581137508
  Basis Set: (AUG-CC-PVTZ AUX)
    Blend: AUG-CC-PVTZ-RI
    Molecular point group: c1

    Geometry (in Angstrom), charge = 0, multiplicity = 1:

       Center              X                  Y                   Z               Mass
    ------------   -----------------  -----------------  -----------------  -----------------
         O            1.752908461902    -0.138064354166     0.000045608878    15.994914619570
         N            0.573062461902    -0.769486154166    -0.000026591122    14.003074004430
         C           -0.467639538098    -0.004913354166    -0.000017391122    12.000000000000
         C           -1.841058538098    -0.604708354166     0.000006608878    12.000000000000
         C           -0.287371538098     1.485085645834    -0.000015391122    12.000000000000
         H           -1.775097538098    -1.694265354166    -0.000482391122     1.007825032230
         H           -2.402348538098    -0.280712354166     0.883023608878     1.007825032230
         H           -2.402766538098    -0.279892354166    -0.882433391122     1.007825032230
         H           -1.252347538098     1.995539645834    -0.000533391122     1.007825032230
         H            0.285898461902     1.796571645834     0.878052608878     1.007825032230
         H            0.286819461902     1.796460645834    -0.877516391122     1.007825032230
         H            2.388538461902    -0.875009354166    -0.000153391122     1.007825032230

  Basis Set: AUG-CC-PVTZ
    Blend: AUG-CC-PVTZ
  Basis Set: (AUG-CC-PVTZ AUX)
    Blend: AUG-CC-PVTZ-JKFIT
	 Reference Energy          =    -247.0203234581137508 [Eh]
	 Singles Energy            =      -0.0000000000000000 [Eh]
	 Same-Spin Energy          =      -0.2470292602547145 [Eh]
	 Opposite-Spin Energy      =      -0.8174137082077659 [Eh]
	 Correlation Energy        =      -1.0644429684624805 [Eh]
	 Total Energy              =    -248.0847664265762376 [Eh]

	 ================> DF-SCS-MP2 Energies <==================
	-----------------------------------------------------------
	 SCS Same-Spin Scale       =       0.3333333333333333 [-]
	 SCS Opposite-Spin Scale   =       1.2000000000000000 [-]
	 SCS Same-Spin Energy      =      -0.0823430867515715 [Eh]
	 SCS Opposite-Spin Energy  =      -0.9808964498493191 [Eh]
	 SCS Correlation Energy    =      -1.0632395366008907 [Eh]
	 SCS Total Energy          =    -248.0835629947146401 [Eh]
	-----------------------------------------------------------

  Dipole Moment: [D]
     X:    -0.4315      Y:     0.4170      Z:    -0.0002     Total:     0.6001

*** Psi4 exiting successfully. Buy a developer a beer!
