                               Psi4 1.4a3.dev225

  ==> Input File <==

--------------------------------------------------------------------------
#psi4
#
memory 32 gb

molecule  {
0 1
  O        1.8229650    -0.1562770     0.0000010
  N        0.5872700    -0.8583520    -0.0000020
  C       -0.3975690    -0.0229950    -0.0000020
  C       -1.7709740    -0.6228220     0.0000010
  C       -0.2171790     1.4669690     0.0000000
  H       -1.7049630    -1.7123800    -0.0000360
  H       -2.3324870    -0.2984810     0.8827490
  H       -2.3325170    -0.2984190    -0.8827050
  H       -1.1820940     1.9775330     0.0000190
  H        0.3565930     1.7783450     0.8777860
  H        0.3565600     1.7783500    -0.8778050
  H        2.4716986    -0.9083301     0.0000030
units angstrom
no_reorient  #important for SAPT in psi4, default
symmetry c1  #important for SAPT in psi4, default
}

set PROPERTIES_ORIGIN ["COM"]
properties('MP2/aug-cc-pvtz', properties = ['dipole'])
--------------------------------------------------------------------------

    Molecular point group: c1
  Charge       = 0
  Multiplicity = 1
  Basis Set: AUG-CC-PVTZ
    Blend: AUG-CC-PVTZ
  Basis Set: (AUG-CC-PVTZ AUX)
    Blend: AUG-CC-PVTZ-JKFIT

    Orbital Energies [Eh]
    ---------------------

    Doubly Occupied:

       1A    -20.588830     2A    -15.608872     3A    -11.282056
       4A    -11.231916     5A    -11.230185     6A     -1.400443
       7A     -1.159534     8A     -0.992134     9A     -0.958763
      10A     -0.728159    11A     -0.684163    12A     -0.645871
      13A     -0.617602    14A     -0.569526    15A     -0.560644
      16A     -0.546615    17A     -0.544435    18A     -0.519913
      19A     -0.431824    20A     -0.374304

  @DF-RHF Final Energy:  -247.01950690843435

   => Energetics <=

    Nuclear Repulsion Energy =            177.8941860796612104
    One-Electron Energy =                -688.4758039811845265
    Two-Electron Energy =                 263.5621109930889361
    Total Energy =                       -247.0195069084343800
  Basis Set: (AUG-CC-PVTZ AUX)
    Blend: AUG-CC-PVTZ-RI
    Molecular point group: c1

    Geometry (in Angstrom), charge = 0, multiplicity = 1:

       Center              X                  Y                   Z               Mass
    ------------   -----------------  -----------------  -----------------  -----------------
         O            1.763395620056    -0.124373561755     0.000001176929    15.994914619570
         N            0.527700620056    -0.826448561755    -0.000001823071    14.003074004430
         C           -0.457138379944     0.008908438245    -0.000001823071    12.000000000000
         C           -1.830543379944    -0.590918561755     0.000001176929    12.000000000000
         C           -0.276748379944     1.498872438245     0.000000176929    12.000000000000
         H           -1.764532379944    -1.680476561755    -0.000035823071     1.007825032230
         H           -2.392056379944    -0.266577561755     0.882749176929     1.007825032230
         H           -2.392086379944    -0.266515561755    -0.882704823071     1.007825032230
         H           -1.241663379944     2.009436438245     0.000019176929     1.007825032230
         H            0.297023620056     1.810248438245     0.877786176929     1.007825032230
         H            0.296990620056     1.810253438245    -0.877804823071     1.007825032230
         H            2.412129220056    -0.876426661755     0.000003176929     1.007825032230

  Basis Set: AUG-CC-PVTZ
    Blend: AUG-CC-PVTZ
  Basis Set: (AUG-CC-PVTZ AUX)
    Blend: AUG-CC-PVTZ-JKFIT
	 Reference Energy          =    -247.0195069084343515 [Eh]
	 Singles Energy            =      -0.0000000000000000 [Eh]
	 Same-Spin Energy          =      -0.2475812836891026 [Eh]
	 Opposite-Spin Energy      =      -0.8208999995285399 [Eh]
	 Correlation Energy        =      -1.0684812832176425 [Eh]
	 Total Energy              =    -248.0879881916519878 [Eh]

	 ================> DF-SCS-MP2 Energies <==================
	-----------------------------------------------------------
	 SCS Same-Spin Scale       =       0.3333333333333333 [-]
	 SCS Opposite-Spin Scale   =       1.2000000000000000 [-]
	 SCS Same-Spin Energy      =      -0.0825270945630342 [Eh]
	 SCS Opposite-Spin Energy  =      -0.9850799994342478 [Eh]
	 SCS Correlation Energy    =      -1.0676070939972822 [Eh]
	 SCS Total Energy          =    -248.0871140024316333 [Eh]
	-----------------------------------------------------------

  Dipole Moment: [D]
     X:    -0.7189      Y:     0.5537      Z:     0.0000     Total:     0.9075

*** Psi4 exiting successfully. Buy a developer a beer!
