                               Psi4 1.3.2 release

  ==> Input File <==

--------------------------------------------------------------------------
#psi4
#
memory 32 gb

molecule  {
0 1
  O        1.7977534    -0.1135019     0.0000472
  N        0.5872960    -0.8583550    -0.0000260
  C       -0.3975370    -0.0230490    -0.0000170
  C       -1.7709560    -0.6228440     0.0000070
  C       -0.2172690     1.4669500    -0.0000150
  H       -1.7049950    -1.7124010    -0.0004820
  H       -2.3322460    -0.2988480     0.8830240
  H       -2.3326640    -0.2980280    -0.8824330
  H       -1.1822450     1.9774040    -0.0005330
  H        0.3560010     1.7784360     0.8780530
  H        0.3569220     1.7783250    -0.8775160
  H        2.4586410    -0.8931450    -0.0001530
units angstrom
no_reorient  #important for SAPT in psi4, default
symmetry c1  #important for SAPT in psi4, default
}

set PROPERTIES_ORIGIN ["COM"]
properties('MP2/aug-cc-pvtz', properties = ['dipole'])
--------------------------------------------------------------------------

    Molecular point group: c1
  Charge       = 0
  Multiplicity = 1
  Basis Set: AUG-CC-PVTZ
    Blend: AUG-CC-PVTZ
  Basis Set: (AUG-CC-PVTZ AUX)
    Blend: AUG-CC-PVTZ-JKFIT

    Orbital Energies [Eh]
    ---------------------

    Doubly Occupied:

       1A    -20.590624     2A    -15.608610     3A    -11.281372
       4A    -11.231437     5A    -11.229818     6A     -1.398890
       7A     -1.155779     8A     -0.991236     9A     -0.958272
      10A     -0.724242    11A     -0.682007    12A     -0.645221
      13A     -0.618095    14A     -0.565219    15A     -0.560680
      16A     -0.544940    17A     -0.543113    18A     -0.519119
      19A     -0.435576    20A     -0.373795

  @DF-RHF Final Energy:  -247.01479598275461

   => Energetics <=

    Nuclear Repulsion Energy =            178.2461933990911973
    One-Electron Energy =                -689.2058886928081165
    Two-Electron Energy =                 263.9448993109622847
    Total Energy =                       -247.0147959827546060
  Basis Set: (AUG-CC-PVTZ AUX)
    Blend: AUG-CC-PVTZ-RI
    Molecular point group: c1

    Geometry (in Angstrom), charge = 0, multiplicity = 1:

       Center              X                  Y                   Z               Mass
    ------------   -----------------  -----------------  -----------------  -----------------
         O            1.743890232386    -0.091156560322     0.000046507801    15.994914619570
         N            0.533432832386    -0.836009660322    -0.000026692199    14.003074004430
         C           -0.451400167614    -0.000703660322    -0.000017692199    12.000000000000
         C           -1.824819167614    -0.600498660322     0.000006307801    12.000000000000
         C           -0.271132167614     1.489295339678    -0.000015692199    12.000000000000
         H           -1.758858167614    -1.690055660322    -0.000482692199     1.007825032230
         H           -2.386109167614    -0.276502660322     0.883023307801     1.007825032230
         H           -2.386527167614    -0.275682660322    -0.882433692199     1.007825032230
         H           -1.236108167614     1.999749339678    -0.000533692199     1.007825032230
         H            0.302137832386     1.800781339678     0.878052307801     1.007825032230
         H            0.303058832386     1.800670339678    -0.877516692199     1.007825032230
         H            2.404777832386    -0.870799660322    -0.000153692199     1.007825032230

  Basis Set: AUG-CC-PVTZ
    Blend: AUG-CC-PVTZ
  Basis Set: (AUG-CC-PVTZ AUX)
    Blend: AUG-CC-PVTZ-JKFIT
	 Reference Energy          =    -247.0147959827546060 [Eh]
	 Singles Energy            =      -0.0000000000000000 [Eh]
	 Same-Spin Energy          =      -0.2482674255794807 [Eh]
	 Opposite-Spin Energy      =      -0.8223775511334894 [Eh]
	 Correlation Energy        =      -1.0706449767129702 [Eh]
	 Total Energy              =    -248.0854409594675758 [Eh]

	 ================> DF-SCS-MP2 Energies <==================
	-----------------------------------------------------------
	 SCS Same-Spin Scale       =       0.3333333333333333 [-]
	 SCS Opposite-Spin Scale   =       1.2000000000000000 [-]
	 SCS Same-Spin Energy      =      -0.0827558085264936 [Eh]
	 SCS Opposite-Spin Energy  =      -0.9868530613601872 [Eh]
	 SCS Correlation Energy    =      -1.0696088698866808 [Eh]
	 SCS Total Energy          =    -248.0844048526412848 [Eh]
	-----------------------------------------------------------

  Dipole Moment: [D]
     X:    -0.6980      Y:     0.5263      Z:    -0.0002     Total:     0.8742

*** Psi4 exiting successfully. Buy a developer a beer!
