                               Psi4 1.4a3.dev225

  ==> Input File <==

--------------------------------------------------------------------------
#psi4
#
memory 32 gb

molecule  {
0 1
  O        1.8229650    -0.1562770     0.0000010
  N        0.5872700    -0.8583520    -0.0000020
  C       -0.4128212    -0.0100578    -0.0000020
  C       -1.7709740    -0.6228220     0.0000010
  C       -0.2171790     1.4669690     0.0000000
  H       -1.7049630    -1.7123800    -0.0000360
  H       -2.3324870    -0.2984810     0.8827490
  H       -2.3325170    -0.2984190    -0.8827050
  H       -1.1820940     1.9775330     0.0000190
  H        0.3565930     1.7783450     0.8777860
  H        0.3565600     1.7783500    -0.8778050
  H        2.4586350    -0.8931860     0.0000030
units angstrom
no_reorient  #important for SAPT in psi4, default
symmetry c1  #important for SAPT in psi4, default
}

set PROPERTIES_ORIGIN ["COM"]
properties('MP2/aug-cc-pvtz', properties = ['dipole'])
--------------------------------------------------------------------------

    Molecular point group: c1
  Charge       = 0
  Multiplicity = 1
  Basis Set: AUG-CC-PVTZ
    Blend: AUG-CC-PVTZ
  Basis Set: (AUG-CC-PVTZ AUX)
    Blend: AUG-CC-PVTZ-JKFIT

    Orbital Energies [Eh]
    ---------------------

    Doubly Occupied:

       1A    -20.586455     2A    -15.610427     3A    -11.284488
       4A    -11.232283     5A    -11.230425     6A     -1.401503
       7A     -1.156647     8A     -0.992632     9A     -0.961394
      10A     -0.730197    11A     -0.685885    12A     -0.647024
      13A     -0.617671    14A     -0.572109    15A     -0.561273
      16A     -0.544750    17A     -0.544501    18A     -0.522826
      19A     -0.433282    20A     -0.369165

  @DF-RHF Final Energy:  -247.01853385362460

   => Energetics <=

    Nuclear Repulsion Energy =            177.8645314266339597
    One-Electron Energy =                -688.3962621320293920
    Two-Electron Energy =                 263.5131968517708287
    Total Energy =                       -247.0185338536246036
  Basis Set: (AUG-CC-PVTZ AUX)
    Blend: AUG-CC-PVTZ-RI
    Molecular point group: c1

    Geometry (in Angstrom), charge = 0, multiplicity = 1:

       Center              X                  Y                   Z               Mass
    ------------   -----------------  -----------------  -----------------  -----------------
         O            1.766081243607    -0.126707614487     0.000001176929    15.994914619570
         N            0.530386243607    -0.828782614487    -0.000001823071    14.003074004430
         C           -0.469704956393     0.019511585513    -0.000001823071    12.000000000000
         C           -1.827857756393    -0.593252614487     0.000001176929    12.000000000000
         C           -0.274062756393     1.496538385513     0.000000176929    12.000000000000
         H           -1.761846756393    -1.682810614487    -0.000035823071     1.007825032230
         H           -2.389370756393    -0.268911614487     0.882749176929     1.007825032230
         H           -2.389400756393    -0.268849614487    -0.882704823071     1.007825032230
         H           -1.238977756393     2.007102385513     0.000019176929     1.007825032230
         H            0.299709243607     1.807914385513     0.877786176929     1.007825032230
         H            0.299676243607     1.807919385513    -0.877804823071     1.007825032230
         H            2.401751243607    -0.863616614487     0.000003176929     1.007825032230

  Basis Set: AUG-CC-PVTZ
    Blend: AUG-CC-PVTZ
  Basis Set: (AUG-CC-PVTZ AUX)
    Blend: AUG-CC-PVTZ-JKFIT
	 Reference Energy          =    -247.0185338536246036 [Eh]
	 Singles Energy            =      -0.0000000000000000 [Eh]
	 Same-Spin Energy          =      -0.2479435273489984 [Eh]
	 Opposite-Spin Energy      =      -0.8214105629521313 [Eh]
	 Correlation Energy        =      -1.0693540903011298 [Eh]
	 Total Energy              =    -248.0878879439257219 [Eh]

	 ================> DF-SCS-MP2 Energies <==================
	-----------------------------------------------------------
	 SCS Same-Spin Scale       =       0.3333333333333333 [-]
	 SCS Opposite-Spin Scale   =       1.2000000000000000 [-]
	 SCS Same-Spin Energy      =      -0.0826478424496661 [Eh]
	 SCS Opposite-Spin Energy  =      -0.9856926755425576 [Eh]
	 SCS Correlation Energy    =      -1.0683405179922236 [Eh]
	 SCS Total Energy          =    -248.0868743716168296 [Eh]
	-----------------------------------------------------------

  Dipole Moment: [D]
     X:    -0.7460      Y:     0.5805      Z:     0.0000     Total:     0.9453

*** Psi4 exiting successfully. Buy a developer a beer!
