                               Psi4 1.3.2 release

  ==> Input File <==

--------------------------------------------------------------------------
#psi4
#
memory 32 gb

molecule  {
0 1
  O        1.8230110    -0.1562000     0.0000460
  N        0.6130656    -0.8267561    -0.0192404
  C       -0.3975370    -0.0230490    -0.0000170
  C       -1.7709560    -0.6228440     0.0000070
  C       -0.2172690     1.4669500    -0.0000150
  H       -1.7049950    -1.7124010    -0.0004820
  H       -2.3322460    -0.2988480     0.8830240
  H       -2.3326640    -0.2980280    -0.8824330
  H       -1.1822450     1.9774040    -0.0005330
  H        0.3560010     1.7784360     0.8780530
  H        0.3569220     1.7783250    -0.8775160
  H        2.4586410    -0.8931450    -0.0001530
units angstrom
no_reorient  #important for SAPT in psi4, default
symmetry c1  #important for SAPT in psi4, default
}

set PROPERTIES_ORIGIN ["COM"]
properties('MP2/aug-cc-pvtz', properties = ['dipole'])
--------------------------------------------------------------------------

    Molecular point group: c1
  Charge       = 0
  Multiplicity = 1
  Basis Set: AUG-CC-PVTZ
    Blend: AUG-CC-PVTZ
  Basis Set: (AUG-CC-PVTZ AUX)
    Blend: AUG-CC-PVTZ-JKFIT

    Orbital Energies [Eh]
    ---------------------

    Doubly Occupied:

       1A    -20.591598     2A    -15.606240     3A    -11.278477
       4A    -11.231585     5A    -11.227557     6A     -1.422047
       7A     -1.158555     8A     -0.990891     9A     -0.957690
      10A     -0.736919    11A     -0.692862    12A     -0.649646
      13A     -0.620436    14A     -0.570692    15A     -0.563936
      16A     -0.549016    17A     -0.546762    18A     -0.519301
      19A     -0.426422    20A     -0.369171

  @DF-RHF Final Energy:  -247.02223845309453

   => Energetics <=

    Nuclear Repulsion Energy =            178.5915847067333004
    One-Electron Energy =                -689.8080412545392619
    Two-Electron Energy =                 264.1942180947114025
    Total Energy =                       -247.0222384530945305
  Basis Set: (AUG-CC-PVTZ AUX)
    Blend: AUG-CC-PVTZ-RI
    Molecular point group: c1

    Geometry (in Angstrom), charge = 0, multiplicity = 1:

       Center              X                  Y                   Z               Mass
    ------------   -----------------  -----------------  -----------------  -----------------
         O            1.758678046836    -0.130562919995     0.003728670960    15.994914619570
         N            0.548732646836    -0.801119019995    -0.015557729040    14.003074004430
         C           -0.461869953164     0.002588080005     0.003665670960    12.000000000000
         C           -1.835288953164    -0.597206919995     0.003689670960    12.000000000000
         C           -0.281601953164     1.492587080005     0.003667670960    12.000000000000
         H           -1.769327953164    -1.686763919995     0.003200670960     1.007825032230
         H           -2.396578953164    -0.273210919995     0.886706670960     1.007825032230
         H           -2.396996953164    -0.272390919995    -0.878750329040     1.007825032230
         H           -1.246577953164     2.003041080005     0.003149670960     1.007825032230
         H            0.291668046836     1.804073080005     0.881735670960     1.007825032230
         H            0.292589046836     1.803962080005    -0.873833329040     1.007825032230
         H            2.394308046836    -0.867507919995     0.003529670960     1.007825032230

  Basis Set: AUG-CC-PVTZ
    Blend: AUG-CC-PVTZ
  Basis Set: (AUG-CC-PVTZ AUX)
    Blend: AUG-CC-PVTZ-JKFIT
	 Reference Energy          =    -247.0222384530945305 [Eh]
	 Singles Energy            =      -0.0000000000000000 [Eh]
	 Same-Spin Energy          =      -0.2471350413517928 [Eh]
	 Opposite-Spin Energy      =      -0.8188395658769420 [Eh]
	 Correlation Energy        =      -1.0659746072287348 [Eh]
	 Total Energy              =    -248.0882130603232554 [Eh]

	 ================> DF-SCS-MP2 Energies <==================
	-----------------------------------------------------------
	 SCS Same-Spin Scale       =       0.3333333333333333 [-]
	 SCS Opposite-Spin Scale   =       1.2000000000000000 [-]
	 SCS Same-Spin Energy      =      -0.0823783471172643 [Eh]
	 SCS Opposite-Spin Energy  =      -0.9826074790523303 [Eh]
	 SCS Correlation Energy    =      -1.0649858261695946 [Eh]
	 SCS Total Energy          =    -248.0872242792641202 [Eh]
	-----------------------------------------------------------

  Dipole Moment: [D]
     X:    -0.6082      Y:     0.5049      Z:     0.0220     Total:     0.7908

*** Psi4 exiting successfully. Buy a developer a beer!
