                               Psi4 1.3.2 release

  ==> Input File <==

--------------------------------------------------------------------------
#psi4
#
memory 32 gb

molecule  {
0 1
  O        1.8230110    -0.1562000     0.0000460
  N        0.5725679    -0.8754155    -0.0000259
  C       -0.3975370    -0.0230490    -0.0000170
  C       -1.7709560    -0.6228440     0.0000070
  C       -0.2172690     1.4669500    -0.0000150
  H       -1.7049950    -1.7124010    -0.0004820
  H       -2.3322460    -0.2988480     0.8830240
  H       -2.3326640    -0.2980280    -0.8824330
  H       -1.1822450     1.9774040    -0.0005330
  H        0.3560010     1.7784360     0.8780530
  H        0.3569220     1.7783250    -0.8775160
  H        2.4586410    -0.8931450    -0.0001530
units angstrom
no_reorient  #important for SAPT in psi4, default
symmetry c1  #important for SAPT in psi4, default
}

set PROPERTIES_ORIGIN ["COM"]
properties('MP2/aug-cc-pvtz', properties = ['dipole'])
--------------------------------------------------------------------------

    Molecular point group: c1
  Charge       = 0
  Multiplicity = 1
  Basis Set: AUG-CC-PVTZ
    Blend: AUG-CC-PVTZ
  Basis Set: (AUG-CC-PVTZ AUX)
    Blend: AUG-CC-PVTZ-JKFIT

    Orbital Energies [Eh]
    ---------------------

    Doubly Occupied:

       1A    -20.584644     2A    -15.610924     3A    -11.284485
       4A    -11.232356     5A    -11.231826     6A     -1.394240
       7A     -1.163118     8A     -0.994023     9A     -0.959701
      10A     -0.726383    11A     -0.684424    12A     -0.644128
      13A     -0.616951    14A     -0.570774    15A     -0.559987
      16A     -0.545665    17A     -0.542769    18A     -0.520670
      19A     -0.435285    20A     -0.377743

  @DF-RHF Final Energy:  -247.01965963805372

   => Energetics <=

    Nuclear Repulsion Energy =            177.7031926584739097
    One-Electron Energy =                -688.0855060916691173
    Two-Electron Energy =                 263.3626537951415116
    Total Energy =                       -247.0196596380537244
  Basis Set: (AUG-CC-PVTZ AUX)
    Blend: AUG-CC-PVTZ-RI
    Molecular point group: c1

    Geometry (in Angstrom), charge = 0, multiplicity = 1:

       Center              X                  Y                   Z               Mass
    ------------   -----------------  -----------------  -----------------  -----------------
         O            1.766440823495    -0.121235672903     0.000045551373    15.994914619570
         N            0.515997723495    -0.840451172903    -0.000026348627    14.003074004430
         C           -0.454107176505     0.011915327097    -0.000017448627    12.000000000000
         C           -1.827526176505    -0.587879672903     0.000006551373    12.000000000000
         C           -0.273839176505     1.501914327097    -0.000015448627    12.000000000000
         H           -1.761565176505    -1.677436672903    -0.000482448627     1.007825032230
         H           -2.388816176505    -0.263883672903     0.883023551373     1.007825032230
         H           -2.389234176505    -0.263063672903    -0.882433448627     1.007825032230
         H           -1.238815176505     2.012368327097    -0.000533448627     1.007825032230
         H            0.299430823495     1.813400327097     0.878052551373     1.007825032230
         H            0.300351823495     1.813289327097    -0.877516448627     1.007825032230
         H            2.402070823495    -0.858180672903    -0.000153448627     1.007825032230

  Basis Set: AUG-CC-PVTZ
    Blend: AUG-CC-PVTZ
  Basis Set: (AUG-CC-PVTZ AUX)
    Blend: AUG-CC-PVTZ-JKFIT
	 Reference Energy          =    -247.0196596380537244 [Eh]
	 Singles Energy            =      -0.0000000000000000 [Eh]
	 Same-Spin Energy          =      -0.2474683499093578 [Eh]
	 Opposite-Spin Energy      =      -0.8210554178566147 [Eh]
	 Correlation Energy        =      -1.0685237677659725 [Eh]
	 Total Energy              =    -248.0881834058197057 [Eh]

	 ================> DF-SCS-MP2 Energies <==================
	-----------------------------------------------------------
	 SCS Same-Spin Scale       =       0.3333333333333333 [-]
	 SCS Opposite-Spin Scale   =       1.2000000000000000 [-]
	 SCS Same-Spin Energy      =      -0.0824894499697859 [Eh]
	 SCS Opposite-Spin Energy  =      -0.9852665014279376 [Eh]
	 SCS Correlation Energy    =      -1.0677559513977235 [Eh]
	 SCS Total Energy          =    -248.0874155894514388 [Eh]
	-----------------------------------------------------------

  Dipole Moment: [D]
     X:    -0.8123      Y:     0.6029      Z:    -0.0002     Total:     1.0116

*** Psi4 exiting successfully. Buy a developer a beer!
