                               Psi4 1.3.2 release

  ==> Input File <==

--------------------------------------------------------------------------
#psi4
#
memory 32 gb

molecule  {
0 1
  O        1.8230110    -0.1562000     0.0000460
  N        0.5266290    -0.9250187    -0.0000257
  C       -0.3975370    -0.0230490    -0.0000170
  C       -1.7709560    -0.6228440     0.0000070
  C       -0.2172690     1.4669500    -0.0000150
  H       -1.7049950    -1.7124010    -0.0004820
  H       -2.3322460    -0.2988480     0.8830240
  H       -2.3326640    -0.2980280    -0.8824330
  H       -1.1822450     1.9774040    -0.0005330
  H        0.3560010     1.7784360     0.8780530
  H        0.3569220     1.7783250    -0.8775160
  H        2.4586410    -0.8931450    -0.0001530
units angstrom
no_reorient  #important for SAPT in psi4, default
symmetry c1  #important for SAPT in psi4, default
}

set PROPERTIES_ORIGIN ["COM"]
properties('MP2/aug-cc-pvtz', properties = ['dipole'])
--------------------------------------------------------------------------

    Molecular point group: c1
  Charge       = 0
  Multiplicity = 1
  Basis Set: AUG-CC-PVTZ
    Blend: AUG-CC-PVTZ
  Basis Set: (AUG-CC-PVTZ AUX)
    Blend: AUG-CC-PVTZ-JKFIT

    Orbital Energies [Eh]
    ---------------------

    Doubly Occupied:

       1A    -20.577187     2A    -15.616720     3A    -11.290787
       4A    -11.236113     5A    -11.233252     6A     -1.368337
       7A     -1.168581     8A     -0.997760     9A     -0.961173
      10A     -0.720659    11A     -0.675868    12A     -0.637523
      13A     -0.615717    14A     -0.570597    15A     -0.559596
      16A     -0.542050    17A     -0.533811    18A     -0.521492
      19A     -0.441038    20A     -0.386326

  @DF-RHF Final Energy:  -247.01172905508713

   => Energetics <=

    Nuclear Repulsion Energy =            176.8357121898878574
    One-Electron Energy =                -686.3857084003096816
    Two-Electron Energy =                 262.5382671553346654
    Total Energy =                       -247.0117290550871303
  Basis Set: (AUG-CC-PVTZ AUX)
    Blend: AUG-CC-PVTZ-RI
    Molecular point group: c1

    Geometry (in Angstrom), charge = 0, multiplicity = 1:

       Center              X                  Y                   Z               Mass
    ------------   -----------------  -----------------  -----------------  -----------------
         O            1.775246593222    -0.111727514089     0.000045513036    15.994914619570
         N            0.478864593222    -0.880546214089    -0.000026186964    14.003074004430
         C           -0.445301406778     0.021423485911    -0.000017486964    12.000000000000
         C           -1.818720406778    -0.578371514089     0.000006513036    12.000000000000
         C           -0.265033406778     1.511422485911    -0.000015486964    12.000000000000
         H           -1.752759406778    -1.667928514089    -0.000482486964     1.007825032230
         H           -2.380010406778    -0.254375514089     0.883023513036     1.007825032230
         H           -2.380428406778    -0.253555514089    -0.882433486964     1.007825032230
         H           -1.230009406778     2.021876485911    -0.000533486964     1.007825032230
         H            0.308236593222     1.822908485911     0.878052513036     1.007825032230
         H            0.309157593222     1.822797485911    -0.877516486964     1.007825032230
         H            2.410876593222    -0.848672514089    -0.000153486964     1.007825032230

  Basis Set: AUG-CC-PVTZ
    Blend: AUG-CC-PVTZ
  Basis Set: (AUG-CC-PVTZ AUX)
    Blend: AUG-CC-PVTZ-JKFIT
	 Reference Energy          =    -247.0117290550871303 [Eh]
	 Singles Energy            =      -0.0000000000000000 [Eh]
	 Same-Spin Energy          =      -0.2480486613854980 [Eh]
	 Opposite-Spin Energy      =      -0.8238682301501723 [Eh]
	 Correlation Energy        =      -1.0719168915356703 [Eh]
	 Total Energy              =    -248.0836459466227950 [Eh]

	 ================> DF-SCS-MP2 Energies <==================
	-----------------------------------------------------------
	 SCS Same-Spin Scale       =       0.3333333333333333 [-]
	 SCS Opposite-Spin Scale   =       1.2000000000000000 [-]
	 SCS Same-Spin Energy      =      -0.0826828871284993 [Eh]
	 SCS Opposite-Spin Energy  =      -0.9886418761802067 [Eh]
	 SCS Correlation Energy    =      -1.0713247633087060 [Eh]
	 SCS Total Energy          =    -248.0830538183958254 [Eh]
	-----------------------------------------------------------

  Dipole Moment: [D]
     X:    -1.0019      Y:     0.6919      Z:    -0.0002     Total:     1.2176

*** Psi4 exiting successfully. Buy a developer a beer!
