                               Psi4 1.3.2 release

  ==> Input File <==

--------------------------------------------------------------------------
#psi4
#
memory 32 gb

molecule  {
0 1
  O        1.8230110    -0.1562000     0.0000460
  N        0.5603266    -0.8889362     0.0191884
  C       -0.3975370    -0.0230490    -0.0000170
  C       -1.7709560    -0.6228440     0.0000070
  C       -0.2172690     1.4669500    -0.0000150
  H       -1.7049950    -1.7124010    -0.0004820
  H       -2.3322460    -0.2988480     0.8830240
  H       -2.3326640    -0.2980280    -0.8824330
  H       -1.1822450     1.9774040    -0.0005330
  H        0.3560010     1.7784360     0.8780530
  H        0.3569220     1.7783250    -0.8775160
  H        2.4586410    -0.8931450    -0.0001530
units angstrom
no_reorient  #important for SAPT in psi4, default
symmetry c1  #important for SAPT in psi4, default
}

set PROPERTIES_ORIGIN ["COM"]
properties('MP2/aug-cc-pvtz', properties = ['dipole'])
--------------------------------------------------------------------------

    Molecular point group: c1
  Charge       = 0
  Multiplicity = 1
  Basis Set: AUG-CC-PVTZ
    Blend: AUG-CC-PVTZ
  Basis Set: (AUG-CC-PVTZ AUX)
    Blend: AUG-CC-PVTZ-JKFIT

    Orbital Energies [Eh]
    ---------------------

    Doubly Occupied:

       1A    -20.582626     2A    -15.612415     3A    -11.286213
       4A    -11.233016     5A    -11.232591     6A     -1.386797
       7A     -1.164552     8A     -0.995003     9A     -0.960167
      10A     -0.724318    11A     -0.682031    12A     -0.642335
      13A     -0.616414    14A     -0.570761    15A     -0.559586
      16A     -0.544631    17A     -0.540655    18A     -0.520961
      19A     -0.437274    20A     -0.380116

  @DF-RHF Final Energy:  -247.01793179849892

   => Energetics <=

    Nuclear Repulsion Energy =            177.4584821535481751
    One-Electron Energy =                -687.6079050397892161
    Two-Electron Energy =                 263.1314910877421198
    Total Energy =                       -247.0179317984989211
  Basis Set: (AUG-CC-PVTZ AUX)
    Blend: AUG-CC-PVTZ-RI
    Molecular point group: c1

    Geometry (in Angstrom), charge = 0, multiplicity = 1:

       Center              X                  Y                   Z               Mass
    ------------   -----------------  -----------------  -----------------  -----------------
         O            1.768787289539    -0.118643965859    -0.003637529878    15.994914619570
         N            0.506102889539    -0.851380165859     0.015504870122    14.003074004430
         C           -0.451760710461     0.014507034141    -0.003700529878    12.000000000000
         C           -1.825179710461    -0.585287965859    -0.003676529878    12.000000000000
         C           -0.271492710461     1.504506034141    -0.003698529878    12.000000000000
         H           -1.759218710461    -1.674844965859    -0.004165529878     1.007825032230
         H           -2.386469710461    -0.261291965859     0.879340470122     1.007825032230
         H           -2.386887710461    -0.260471965859    -0.886116529878     1.007825032230
         H           -1.236468710461     2.014960034141    -0.004216529878     1.007825032230
         H            0.301777289539     1.815992034141     0.874369470122     1.007825032230
         H            0.302698289539     1.815881034141    -0.881199529878     1.007825032230
         H            2.404417289539    -0.855588965859    -0.003836529878     1.007825032230

  Basis Set: AUG-CC-PVTZ
    Blend: AUG-CC-PVTZ
  Basis Set: (AUG-CC-PVTZ AUX)
    Blend: AUG-CC-PVTZ-JKFIT
	 Reference Energy          =    -247.0179317984989211 [Eh]
	 Singles Energy            =      -0.0000000000000000 [Eh]
	 Same-Spin Energy          =      -0.2476048952025150 [Eh]
	 Opposite-Spin Energy      =      -0.8217817928176990 [Eh]
	 Correlation Energy        =      -1.0693866880202141 [Eh]
	 Total Energy              =    -248.0873184865191377 [Eh]

	 ================> DF-SCS-MP2 Energies <==================
	-----------------------------------------------------------
	 SCS Same-Spin Scale       =       0.3333333333333333 [-]
	 SCS Opposite-Spin Scale   =       1.2000000000000000 [-]
	 SCS Same-Spin Energy      =      -0.0825349650675050 [Eh]
	 SCS Opposite-Spin Energy  =      -0.9861381513812388 [Eh]
	 SCS Correlation Energy    =      -1.0686731164487437 [Eh]
	 SCS Total Energy          =    -248.0866049149476567 [Eh]
	-----------------------------------------------------------

  Dipole Moment: [D]
     X:    -0.8673      Y:     0.6283      Z:    -0.0211     Total:     1.0712

*** Psi4 exiting successfully. Buy a developer a beer!
