                               Psi4 1.4a3.dev225

  ==> Input File <==

--------------------------------------------------------------------------
#psi4
#
memory 32 gb

molecule  {
0 1
  O        1.8229650    -0.1562770     0.0000010
  N        0.5872700    -0.8583520    -0.0000020
  C       -0.3823168    -0.0359322    -0.0000020
  C       -1.7709740    -0.6228220     0.0000010
  C       -0.2171790     1.4669690     0.0000000
  H       -1.7049630    -1.7123800    -0.0000360
  H       -2.3324870    -0.2984810     0.8827490
  H       -2.3325170    -0.2984190    -0.8827050
  H       -1.1820940     1.9775330     0.0000190
  H        0.3565930     1.7783450     0.8777860
  H        0.3565600     1.7783500    -0.8778050
  H        2.4586350    -0.8931860     0.0000030
units angstrom
no_reorient  #important for SAPT in psi4, default
symmetry c1  #important for SAPT in psi4, default
}

set PROPERTIES_ORIGIN ["COM"]
properties('MP2/aug-cc-pvtz', properties = ['dipole'])
--------------------------------------------------------------------------

    Molecular point group: c1
  Charge       = 0
  Multiplicity = 1
  Basis Set: AUG-CC-PVTZ
    Blend: AUG-CC-PVTZ
  Basis Set: (AUG-CC-PVTZ AUX)
    Blend: AUG-CC-PVTZ-JKFIT

    Orbital Energies [Eh]
    ---------------------

    Doubly Occupied:

       1A    -20.587783     2A    -15.607750     3A    -11.280189
       4A    -11.231895     5A    -11.230262     6A     -1.406184
       7A     -1.166675     8A     -0.992772     9A     -0.956773
      10A     -0.728901    11A     -0.688925    12A     -0.645369
      13A     -0.618273    14A     -0.569513    15A     -0.560634
      16A     -0.549420    17A     -0.544797    18A     -0.517789
      19A     -0.431084    20A     -0.380383

  @DF-RHF Final Energy:  -247.02257119627444

   => Energetics <=

    Nuclear Repulsion Energy =            178.1679571608213735
    One-Electron Energy =                -688.9903117130261307
    Two-Electron Energy =                 263.7997833559302876
    Total Energy =                       -247.0225711962744413
  Basis Set: (AUG-CC-PVTZ AUX)
    Blend: AUG-CC-PVTZ-RI
    Molecular point group: c1

    Geometry (in Angstrom), charge = 0, multiplicity = 1:

       Center              X                  Y                   Z               Mass
    ------------   -----------------  -----------------  -----------------  -----------------
         O            1.761070443458    -0.122457360511     0.000001176929    15.994914619570
         N            0.525375443458    -0.824532360511    -0.000001823071    14.003074004430
         C           -0.444211356542    -0.002112560511    -0.000001823071    12.000000000000
         C           -1.832868556542    -0.589002360511     0.000001176929    12.000000000000
         C           -0.279073556542     1.500788639489     0.000000176929    12.000000000000
         H           -1.766857556542    -1.678560360511    -0.000035823071     1.007825032230
         H           -2.394381556542    -0.264661360511     0.882749176929     1.007825032230
         H           -2.394411556542    -0.264599360511    -0.882704823071     1.007825032230
         H           -1.243988556542     2.011352639489     0.000019176929     1.007825032230
         H            0.294698443458     1.812164639489     0.877786176929     1.007825032230
         H            0.294665443458     1.812169639489    -0.877804823071     1.007825032230
         H            2.396740443458    -0.859366360511     0.000003176929     1.007825032230

  Basis Set: AUG-CC-PVTZ
    Blend: AUG-CC-PVTZ
  Basis Set: (AUG-CC-PVTZ AUX)
    Blend: AUG-CC-PVTZ-JKFIT
	 Reference Energy          =    -247.0225711962744413 [Eh]
	 Singles Energy            =      -0.0000000000000000 [Eh]
	 Same-Spin Energy          =      -0.2467587262860469 [Eh]
	 Opposite-Spin Energy      =      -0.8190993927188067 [Eh]
	 Correlation Energy        =      -1.0658581190048537 [Eh]
	 Total Energy              =    -248.0884293152792850 [Eh]

	 ================> DF-SCS-MP2 Energies <==================
	-----------------------------------------------------------
	 SCS Same-Spin Scale       =       0.3333333333333333 [-]
	 SCS Opposite-Spin Scale   =       1.2000000000000000 [-]
	 SCS Same-Spin Energy      =      -0.0822529087620156 [Eh]
	 SCS Opposite-Spin Energy  =      -0.9829192712625681 [Eh]
	 SCS Correlation Energy    =      -1.0651721800245837 [Eh]
	 SCS Total Energy          =    -248.0877433762990165 [Eh]
	-----------------------------------------------------------

  Dipole Moment: [D]
     X:    -0.7356      Y:     0.5575      Z:     0.0000     Total:     0.9230

*** Psi4 exiting successfully. Buy a developer a beer!
