                               Psi4 1.3.2 release

  ==> Input File <==

--------------------------------------------------------------------------
#psi4
#
memory 32 gb

molecule  {
0 1
  O        1.8230110    -0.1562000     0.0000460
  N        0.5575443    -0.8922163    -0.0000259
  C       -0.3975370    -0.0230490    -0.0000170
  C       -1.7709560    -0.6228440     0.0000070
  C       -0.2172690     1.4669500    -0.0000150
  H       -1.7049950    -1.7124010    -0.0004820
  H       -2.3322460    -0.2988480     0.8830240
  H       -2.3326640    -0.2980280    -0.8824330
  H       -1.1822450     1.9774040    -0.0005330
  H        0.3560010     1.7784360     0.8780530
  H        0.3569220     1.7783250    -0.8775160
  H        2.4586410    -0.8931450    -0.0001530
units angstrom
no_reorient  #important for SAPT in psi4, default
symmetry c1  #important for SAPT in psi4, default
}

set PROPERTIES_ORIGIN ["COM"]
properties('MP2/aug-cc-pvtz', properties = ['dipole'])
--------------------------------------------------------------------------

    Molecular point group: c1
  Charge       = 0
  Multiplicity = 1
  Basis Set: AUG-CC-PVTZ
    Blend: AUG-CC-PVTZ
  Basis Set: (AUG-CC-PVTZ AUX)
    Blend: AUG-CC-PVTZ-JKFIT

    Orbital Energies [Eh]
    ---------------------

    Doubly Occupied:

       1A    -20.582178     2A    -15.612767     3A    -11.286595
       4A    -11.233285     5A    -11.232640     6A     -1.385178
       7A     -1.164878     8A     -0.995234     9A     -0.960260
      10A     -0.723907    11A     -0.681508    12A     -0.641938
      13A     -0.616316    14A     -0.570756    15A     -0.559530
      16A     -0.544380    17A     -0.540148    18A     -0.521019
      19A     -0.437684    20A     -0.380673

  @DF-RHF Final Energy:  -247.01754096053429

   => Energetics <=

    Nuclear Repulsion Energy =            177.4043269145620911
    One-Electron Energy =                -687.5019879777157712
    Two-Electron Energy =                 263.0801201026193894
    Total Energy =                       -247.0175409605342907
  Basis Set: (AUG-CC-PVTZ AUX)
    Blend: AUG-CC-PVTZ-RI
    Molecular point group: c1

    Geometry (in Angstrom), charge = 0, multiplicity = 1:

       Center              X                  Y                   Z               Mass
    ------------   -----------------  -----------------  -----------------  -----------------
         O            1.769320612999    -0.118015221912     0.000045551373    15.994914619570
         N            0.503853912999    -0.854031521912    -0.000026348627    14.003074004430
         C           -0.451227387001     0.015135778088    -0.000017448627    12.000000000000
         C           -1.824646387001    -0.584659221912     0.000006551373    12.000000000000
         C           -0.270959387001     1.505134778088    -0.000015448627    12.000000000000
         H           -1.758685387001    -1.674216221912    -0.000482448627     1.007825032230
         H           -2.385936387001    -0.260663221912     0.883023551373     1.007825032230
         H           -2.386354387001    -0.259843221912    -0.882433448627     1.007825032230
         H           -1.235935387001     2.015588778088    -0.000533448627     1.007825032230
         H            0.302310612999     1.816620778088     0.878052551373     1.007825032230
         H            0.303231612999     1.816509778088    -0.877516448627     1.007825032230
         H            2.404950612999    -0.854960221912    -0.000153448627     1.007825032230

  Basis Set: AUG-CC-PVTZ
    Blend: AUG-CC-PVTZ
  Basis Set: (AUG-CC-PVTZ AUX)
    Blend: AUG-CC-PVTZ-JKFIT
	 Reference Energy          =    -247.0175409605342907 [Eh]
	 Singles Energy            =      -0.0000000000000000 [Eh]
	 Same-Spin Energy          =      -0.2476379087338937 [Eh]
	 Opposite-Spin Energy      =      -0.8219477772691294 [Eh]
	 Correlation Energy        =      -1.0695856860030231 [Eh]
	 Total Energy              =    -248.0871266465373139 [Eh]

	 ================> DF-SCS-MP2 Energies <==================
	-----------------------------------------------------------
	 SCS Same-Spin Scale       =       0.3333333333333333 [-]
	 SCS Opposite-Spin Scale   =       1.2000000000000000 [-]
	 SCS Same-Spin Energy      =      -0.0825459695779645 [Eh]
	 SCS Opposite-Spin Energy  =      -0.9863373327229552 [Eh]
	 SCS Correlation Energy    =      -1.0688833023009197 [Eh]
	 SCS Total Energy          =    -248.0864242628352088 [Eh]
	-----------------------------------------------------------

  Dipole Moment: [D]
     X:    -0.8791      Y:     0.6342      Z:    -0.0002     Total:     1.0840

*** Psi4 exiting successfully. Buy a developer a beer!
