                               Psi4 1.3.2 release

  ==> Input File <==

--------------------------------------------------------------------------
#psi4
#
memory 32 gb

molecule  {
0 1
  O        1.8230110    -0.1562000     0.0000460
  N        0.6608810    -0.7606604    -0.0575754
  C       -0.3975370    -0.0230490    -0.0000170
  C       -1.7709560    -0.6228440     0.0000070
  C       -0.2172690     1.4669500    -0.0000150
  H       -1.7049950    -1.7124010    -0.0004820
  H       -2.3322460    -0.2988480     0.8830240
  H       -2.3326640    -0.2980280    -0.8824330
  H       -1.1822450     1.9774040    -0.0005330
  H        0.3560010     1.7784360     0.8780530
  H        0.3569220     1.7783250    -0.8775160
  H        2.4586410    -0.8931450    -0.0001530
units angstrom
no_reorient  #important for SAPT in psi4, default
symmetry c1  #important for SAPT in psi4, default
}

set PROPERTIES_ORIGIN ["COM"]
properties('MP2/aug-cc-pvtz', properties = ['dipole'])
--------------------------------------------------------------------------

    Molecular point group: c1
  Charge       = 0
  Multiplicity = 1
  Basis Set: AUG-CC-PVTZ
    Blend: AUG-CC-PVTZ
  Basis Set: (AUG-CC-PVTZ AUX)
    Blend: AUG-CC-PVTZ-JKFIT

    Orbital Energies [Eh]
    ---------------------

    Doubly Occupied:

       1A    -20.600843     2A    -15.601309     3A    -11.270623
       4A    -11.230556     5A    -11.221702     6A     -1.462527
       7A     -1.153667     8A     -0.987702     9A     -0.954010
      10A     -0.757948    11A     -0.704695    12A     -0.654070
      13A     -0.630221    14A     -0.571461    15A     -0.570474
      16A     -0.551407    17A     -0.546333    18A     -0.516826
      19A     -0.411510    20A     -0.357507

  @DF-RHF Final Energy:  -247.01653637738420

   => Energetics <=

    Nuclear Repulsion Energy =            179.8217974687698302
    One-Electron Energy =                -692.1658844878378432
    Two-Electron Energy =                 265.3275506416837288
    Total Energy =                       -247.0165363773842273
  Basis Set: (AUG-CC-PVTZ AUX)
    Blend: AUG-CC-PVTZ-RI
    Molecular point group: c1

    Geometry (in Angstrom), charge = 0, multiplicity = 1:

       Center              X                  Y                   Z               Mass
    ------------   -----------------  -----------------  -----------------  -----------------
         O            1.749512581363    -0.143232433505     0.011076891803    15.994914619570
         N            0.587382581363    -0.747692833505    -0.046544508197    14.003074004430
         C           -0.471035418637    -0.010081433505     0.011013891803    12.000000000000
         C           -1.844454418637    -0.609876433505     0.011037891803    12.000000000000
         C           -0.290767418637     1.479917566495     0.011015891803    12.000000000000
         H           -1.778493418637    -1.699433433505     0.010548891803     1.007825032230
         H           -2.405744418637    -0.285880433505     0.894054891803     1.007825032230
         H           -2.406162418637    -0.285060433505    -0.871402108197     1.007825032230
         H           -1.255743418637     1.990371566495     0.010497891803     1.007825032230
         H            0.282502581363     1.791403566495     0.889083891803     1.007825032230
         H            0.283423581363     1.791292566495    -0.866485108197     1.007825032230
         H            2.385142581363    -0.880177433505     0.010877891803     1.007825032230

  Basis Set: AUG-CC-PVTZ
    Blend: AUG-CC-PVTZ
  Basis Set: (AUG-CC-PVTZ AUX)
    Blend: AUG-CC-PVTZ-JKFIT
	 Reference Energy          =    -247.0165363773841989 [Eh]
	 Singles Energy            =      -0.0000000000000000 [Eh]
	 Same-Spin Energy          =      -0.2470398409011576 [Eh]
	 Opposite-Spin Energy      =      -0.8167144188618263 [Eh]
	 Correlation Energy        =      -1.0637542597629839 [Eh]
	 Total Energy              =    -248.0802906371471863 [Eh]

	 ================> DF-SCS-MP2 Energies <==================
	-----------------------------------------------------------
	 SCS Same-Spin Scale       =       0.3333333333333333 [-]
	 SCS Opposite-Spin Scale   =       1.2000000000000000 [-]
	 SCS Same-Spin Energy      =      -0.0823466136337192 [Eh]
	 SCS Opposite-Spin Energy  =      -0.9800573026341914 [Eh]
	 SCS Correlation Energy    =      -1.0624039162679106 [Eh]
	 SCS Total Energy          =    -248.0789402936520958 [Eh]
	-----------------------------------------------------------

  Dipole Moment: [D]
     X:    -0.3208      Y:     0.3538      Z:     0.0701     Total:     0.4827

*** Psi4 exiting successfully. Buy a developer a beer!
