                               Psi4 1.3.2 release

  ==> Input File <==

--------------------------------------------------------------------------
#psi4
#
memory 32 gb

molecule  {
0 1
  O        1.8230110    -0.1562000     0.0000460
  N        0.5752299    -0.8366819    -0.0000206
  C       -0.3975370    -0.0230490    -0.0000170
  C       -1.7709560    -0.6228440     0.0000070
  C       -0.2172690     1.4669500    -0.0000150
  H       -1.7049950    -1.7124010    -0.0004820
  H       -2.3322460    -0.2988480     0.8830240
  H       -2.3326640    -0.2980280    -0.8824330
  H       -1.1822450     1.9774040    -0.0005330
  H        0.3560010     1.7784360     0.8780530
  H        0.3569220     1.7783250    -0.8775160
  H        2.4586410    -0.8931450    -0.0001530
units angstrom
no_reorient  #important for SAPT in psi4, default
symmetry c1  #important for SAPT in psi4, default
}

set PROPERTIES_ORIGIN ["COM"]
properties('MP2/aug-cc-pvtz', properties = ['dipole'])
--------------------------------------------------------------------------

    Molecular point group: c1
  Charge       = 0
  Multiplicity = 1
  Basis Set: AUG-CC-PVTZ
    Blend: AUG-CC-PVTZ
  Basis Set: (AUG-CC-PVTZ AUX)
    Blend: AUG-CC-PVTZ-JKFIT

    Orbital Energies [Eh]
    ---------------------

    Doubly Occupied:

       1A    -20.587772     2A    -15.605989     3A    -11.277908
       4A    -11.231629     5A    -11.228979     6A     -1.404803
       7A     -1.169898     8A     -0.993264     9A     -0.958803
      10A     -0.730642    11A     -0.687381    12A     -0.647123
      13A     -0.619429    14A     -0.571026    15A     -0.560772
      16A     -0.548410    17A     -0.544391    18A     -0.520871
      19A     -0.428129    20A     -0.380260

  @DF-RHF Final Energy:  -247.02308650900861

   => Energetics <=

    Nuclear Repulsion Energy =            178.5027021193504027
    One-Electron Energy =                -689.6566188019501169
    Two-Electron Energy =                 264.1308301735911641
    Total Energy =                       -247.0230865090085786
  Basis Set: (AUG-CC-PVTZ AUX)
    Blend: AUG-CC-PVTZ-RI
    Molecular point group: c1

    Geometry (in Angstrom), charge = 0, multiplicity = 1:

       Center              X                  Y                   Z               Mass
    ------------   -----------------  -----------------  -----------------  -----------------
         O            1.765930559666    -0.128660299141     0.000044535446    15.994914619570
         N            0.518149459666    -0.809142199141    -0.000022064554    14.003074004430
         C           -0.454617440334     0.004490700859    -0.000018464554    12.000000000000
         C           -1.828036440334    -0.595304299141     0.000005535446    12.000000000000
         C           -0.274349440334     1.494489700859    -0.000016464554    12.000000000000
         H           -1.762075440334    -1.684861299141    -0.000483464554     1.007825032230
         H           -2.389326440334    -0.271308299141     0.883022535446     1.007825032230
         H           -2.389744440334    -0.270488299141    -0.882434464554     1.007825032230
         H           -1.239325440334     2.004943700859    -0.000534464554     1.007825032230
         H            0.298920559666     1.805975700859     0.878051535446     1.007825032230
         H            0.299841559666     1.805864700859    -0.877517464554     1.007825032230
         H            2.401560559666    -0.865605299141    -0.000154464554     1.007825032230

  Basis Set: AUG-CC-PVTZ
    Blend: AUG-CC-PVTZ
  Basis Set: (AUG-CC-PVTZ AUX)
    Blend: AUG-CC-PVTZ-JKFIT
	 Reference Energy          =    -247.0230865090086070 [Eh]
	 Singles Energy            =      -0.0000000000000000 [Eh]
	 Same-Spin Energy          =      -0.2468071559864431 [Eh]
	 Opposite-Spin Energy      =      -0.8188444146300597 [Eh]
	 Correlation Energy        =      -1.0656515706165028 [Eh]
	 Total Energy              =    -248.0887380796251023 [Eh]

	 ================> DF-SCS-MP2 Energies <==================
	-----------------------------------------------------------
	 SCS Same-Spin Scale       =       0.3333333333333333 [-]
	 SCS Opposite-Spin Scale   =       1.2000000000000000 [-]
	 SCS Same-Spin Energy      =      -0.0822690519954810 [Eh]
	 SCS Opposite-Spin Energy  =      -0.9826132975560716 [Eh]
	 SCS Correlation Energy    =      -1.0648823495515527 [Eh]
	 SCS Total Energy          =    -248.0879688585601457 [Eh]
	-----------------------------------------------------------

  Dipole Moment: [D]
     X:    -0.7453      Y:     0.5389      Z:    -0.0002     Total:     0.9198

*** Psi4 exiting successfully. Buy a developer a beer!
