                               Psi4 1.3.2 release

  ==> Input File <==

--------------------------------------------------------------------------
#psi4
#
memory 32 gb

molecule  {
0 1
  O        1.8230110    -0.1562000     0.0000460
  N        0.5872960    -0.8583550    -0.0000260
  C       -0.3975370    -0.0230490    -0.0000170
  C       -1.7709560    -0.6228440     0.0000070
  C       -0.2172690     1.4669500    -0.0000150
  H       -1.7049950    -1.7124010    -0.0004820
  H       -2.3322460    -0.2988480     0.8830240
  H       -2.3326640    -0.2980280    -0.8824330
  H       -1.1822450     1.9774040    -0.0005330
  H        0.3560010     1.7784360     0.8780530
  H        0.3569220     1.7783250    -0.8775160
  H        2.4586410    -0.8931450    -0.0001530
units angstrom
no_reorient  #important for SAPT in psi4, default
symmetry c1  #important for SAPT in psi4, default
}

set PROPERTIES_ORIGIN ["COM"]
properties('MP2/aug-cc-pvtz', properties = ['dipole'])
--------------------------------------------------------------------------

    Molecular point group: c1
  Charge       = 0
  Multiplicity = 1
  Basis Set: AUG-CC-PVTZ
    Blend: AUG-CC-PVTZ
  Basis Set: (AUG-CC-PVTZ AUX)
    Blend: AUG-CC-PVTZ-JKFIT

    Orbital Energies [Eh]
    ---------------------

    Doubly Occupied:

       1A    -20.587112     2A    -15.609171     3A    -11.282358
       4A    -11.232079     5A    -11.230335     6A     -1.403752
       7A     -1.161425     8A     -0.992857     9A     -0.959064
      10A     -0.729513    11A     -0.687389    12A     -0.646237
      13A     -0.617870    14A     -0.570762    15A     -0.560934
      16A     -0.546937    17A     -0.544807    18A     -0.520246
      19A     -0.432462    20A     -0.374748

  @DF-RHF Final Energy:  -247.02118880593201

   => Energetics <=

    Nuclear Repulsion Energy =            178.0117238474494741
    One-Electron Energy =                -688.6857119298673524
    Two-Electron Energy =                 263.6527992764858368
    Total Energy =                       -247.0211888059320131
  Basis Set: (AUG-CC-PVTZ AUX)
    Blend: AUG-CC-PVTZ-RI
    Molecular point group: c1

    Geometry (in Angstrom), charge = 0, multiplicity = 1:

       Center              X                  Y                   Z               Mass
    ------------   -----------------  -----------------  -----------------  -----------------
         O            1.763617676726    -0.124505904328     0.000045570541    15.994914619570
         N            0.527902676726    -0.826660904328    -0.000026429459    14.003074004430
         C           -0.456930323274     0.008645095672    -0.000017429459    12.000000000000
         C           -1.830349323274    -0.591149904328     0.000006570541    12.000000000000
         C           -0.276662323274     1.498644095672    -0.000015429459    12.000000000000
         H           -1.764388323274    -1.680706904328    -0.000482429459     1.007825032230
         H           -2.391639323274    -0.267153904328     0.883023570541     1.007825032230
         H           -2.392057323274    -0.266333904328    -0.882433429459     1.007825032230
         H           -1.241638323274     2.009098095672    -0.000533429459     1.007825032230
         H            0.296607676726     1.810130095672     0.878052570541     1.007825032230
         H            0.297528676726     1.810019095672    -0.877516429459     1.007825032230
         H            2.399247676726    -0.861450904328    -0.000153429459     1.007825032230

  Basis Set: AUG-CC-PVTZ
    Blend: AUG-CC-PVTZ
  Basis Set: (AUG-CC-PVTZ AUX)
    Blend: AUG-CC-PVTZ-JKFIT
	 Reference Energy          =    -247.0211888059320131 [Eh]
	 Singles Energy            =      -0.0000000000000000 [Eh]
	 Same-Spin Energy          =      -0.2473246356592644 [Eh]
	 Opposite-Spin Energy      =      -0.8202139943634206 [Eh]
	 Correlation Energy        =      -1.0675386300226850 [Eh]
	 Total Energy              =    -248.0887274359546950 [Eh]

	 ================> DF-SCS-MP2 Energies <==================
	-----------------------------------------------------------
	 SCS Same-Spin Scale       =       0.3333333333333333 [-]
	 SCS Opposite-Spin Scale   =       1.2000000000000000 [-]
	 SCS Same-Spin Energy      =      -0.0824415452197548 [Eh]
	 SCS Opposite-Spin Energy  =      -0.9842567932361046 [Eh]
	 SCS Correlation Energy    =      -1.0666983384558595 [Eh]
	 SCS Total Energy          =    -248.0878871443878779 [Eh]
	-----------------------------------------------------------

  Dipole Moment: [D]
     X:    -0.7422      Y:     0.5698      Z:    -0.0002     Total:     0.9357

*** Psi4 exiting successfully. Buy a developer a beer!
