                               Psi4 1.4a3.dev225

  ==> Input File <==

--------------------------------------------------------------------------
#psi4
#
memory 32 gb

molecule  {
0 1
  C        0.4325650     0.0000100    -0.0000020
  C       -0.8671790     0.8245630    -0.0000540
  C        0.5185540    -0.8790830     1.2499350
  C        1.6124760     0.9760580    -0.0001380
  C        0.5184830    -0.8793570    -1.2497460
  C       -2.1582890     0.0453116     0.0000003
  H       -0.8502370     1.4847800     0.8779110
  H       -0.8502460     1.4846590    -0.8781100
  H       -0.2707110    -1.6364310     1.2681610
  H        0.4320040    -0.2740170     2.1596200
  H        1.4805750    -1.4021870     1.2834330
  H        1.5875310     1.6192780    -0.8867600
  H        1.5875470     1.6195060     0.8863170
  H        2.5658350     0.4362190    -0.0000780
  H       -0.2707460    -1.6367490    -1.2677310
  H        1.4805270    -1.4024220    -1.2832170
  H        0.4318210    -0.2745040    -2.1595630
  H       -2.2660690    -0.6006200     0.8847210
  H       -3.0286490     0.7201330     0.0000090
  H       -2.2661130    -0.6006550    -0.8846890
units angstrom
no_reorient  #important for SAPT in psi4, default
symmetry c1  #important for SAPT in psi4, default
}

set PROPERTIES_ORIGIN ["COM"]
properties('MP2/aug-cc-pvtz', properties = ['dipole'])
--------------------------------------------------------------------------

    Molecular point group: c1
  Charge       = 0
  Multiplicity = 1
  Basis Set: AUG-CC-PVTZ
    Blend: AUG-CC-PVTZ
  Basis Set: (AUG-CC-PVTZ AUX)
    Blend: AUG-CC-PVTZ-JKFIT

    Orbital Energies [Eh]
    ---------------------

    Doubly Occupied:

       1A    -11.227334     2A    -11.213012     3A    -11.209911
       4A    -11.206937     5A    -11.206924     6A    -11.206886
       7A     -1.110478     8A     -0.998521     9A     -0.927026
      10A     -0.926656    11A     -0.847140    12A     -0.721864
      13A     -0.624222    14A     -0.623029    15A     -0.597311
      16A     -0.580166    17A     -0.550950    18A     -0.527455
      19A     -0.523115    20A     -0.508049    21A     -0.502610
      22A     -0.481730    23A     -0.447346    24A     -0.446302
      25A     -0.437230

  @DF-RHF Final Energy:  -235.44709235742562

   => Energetics <=

    Nuclear Repulsion Energy =            266.7719284442775347
    One-Electron Energy =                -845.1336322848964073
    Two-Electron Energy =                 342.9146114831933119
    Total Energy =                       -235.4470923574256176
  Basis Set: (AUG-CC-PVTZ AUX)
    Blend: AUG-CC-PVTZ-RI
    Molecular point group: c1

    Geometry (in Angstrom), charge = 0, multiplicity = 1:

       Center              X                  Y                   Z               Mass
    ------------   -----------------  -----------------  -----------------  -----------------
         C            0.427449016872    -0.006765068837    -0.000001625916    12.000000000000
         C           -0.872294983128     0.817787931163    -0.000053625916    12.000000000000
         C            0.513438016872    -0.885858068837     1.249935374084    12.000000000000
         C            1.607360016872     0.969282931163    -0.000137625916    12.000000000000
         C            0.513367016872    -0.886132068837    -1.249745625916    12.000000000000
         C           -2.163404983128     0.038536531163     0.000000674084    12.000000000000
         H           -0.855352983128     1.478004931163     0.877911374084     1.007825032230
         H           -0.855361983128     1.477883931163    -0.878109625916     1.007825032230
         H           -0.275826983128    -1.643206068837     1.268161374084     1.007825032230
         H            0.426888016872    -0.280792068837     2.159620374084     1.007825032230
         H            1.475459016872    -1.408962068837     1.283433374084     1.007825032230
         H            1.582415016872     1.612502931163    -0.886759625916     1.007825032230
         H            1.582431016872     1.612730931163     0.886317374084     1.007825032230
         H            2.560719016872     0.429443931163    -0.000077625916     1.007825032230
         H           -0.275861983128    -1.643524068837    -1.267730625916     1.007825032230
         H            1.475411016872    -1.409197068837    -1.283216625916     1.007825032230
         H            0.426705016872    -0.281279068837    -2.159562625916     1.007825032230
         H           -2.271184983128    -0.607395068837     0.884721374084     1.007825032230
         H           -3.033764983128     0.713357931163     0.000009374084     1.007825032230
         H           -2.271228983128    -0.607430068837    -0.884688625916     1.007825032230

  Basis Set: AUG-CC-PVTZ
    Blend: AUG-CC-PVTZ
  Basis Set: (AUG-CC-PVTZ AUX)
    Blend: AUG-CC-PVTZ-JKFIT
	 Reference Energy          =    -235.4470923574256176 [Eh]
	 Singles Energy            =      -0.0000000000000000 [Eh]
	 Same-Spin Energy          =      -0.2555377268643271 [Eh]
	 Opposite-Spin Energy      =      -0.9542018686546022 [Eh]
	 Correlation Energy        =      -1.2097395955189292 [Eh]
	 Total Energy              =    -236.6568319529445432 [Eh]

	 ================> DF-SCS-MP2 Energies <==================
	-----------------------------------------------------------
	 SCS Same-Spin Scale       =       0.3333333333333333 [-]
	 SCS Opposite-Spin Scale   =       1.2000000000000000 [-]
	 SCS Same-Spin Energy      =      -0.0851792422881090 [Eh]
	 SCS Opposite-Spin Energy  =      -1.1450422423855227 [Eh]
	 SCS Correlation Energy    =      -1.2302214846736317 [Eh]
	 SCS Total Energy          =    -236.6773138420992382 [Eh]
	-----------------------------------------------------------

  Dipole Moment: [D]
     X:    -0.0558      Y:     0.0317      Z:    -0.0000     Total:     0.0642

*** Psi4 exiting successfully. Buy a developer a beer!
