                               Psi4 1.3.2 release

  ==> Input File <==

--------------------------------------------------------------------------
#psi4
#
memory 32 gb

molecule  {
0 1
  C       -0.3349850     0.0294592     0.0319340
  C        0.8671890     0.8245510    -0.0008470
  C       -0.5186390    -0.8803510    -1.2490450
  C       -1.6124710     0.9760830    -0.0007580
  C       -0.5183990    -0.8781140     1.2506300
  C        2.1754120     0.0349960    -0.0000500
  H        0.8502280     1.4838230    -0.8795210
  H        0.8502290     1.4855890     0.8765000
  H        0.2706380    -1.6377050    -1.2666100
  H       -0.4322060    -0.2762080    -2.1593560
  H       -1.4806460    -1.4035230    -1.2819340
  H       -1.5874350     1.6202330     0.8851840
  H       -1.5876340     1.6186070    -0.8878840
  H       -2.5658430     0.4362680    -0.0001590
  H        0.2708010    -1.6355150     1.2692820
  H       -1.4804630    -1.4011040     1.2847180
  H       -0.4316200    -0.2723440     2.1598230
  H        2.2659520    -0.6017660    -0.8839470
  H        3.0286720     0.7201300    -0.0010770
  H        2.2662480    -0.5994780     0.8854570
units angstrom
no_reorient  #important for SAPT in psi4, default
symmetry c1  #important for SAPT in psi4, default
}

set PROPERTIES_ORIGIN ["COM"]
properties('MP2/aug-cc-pvtz', properties = ['dipole'])
--------------------------------------------------------------------------

    Molecular point group: c1
  Charge       = 0
  Multiplicity = 1
  Basis Set: AUG-CC-PVTZ
    Blend: AUG-CC-PVTZ
  Basis Set: (AUG-CC-PVTZ AUX)
    Blend: AUG-CC-PVTZ-JKFIT

    Orbital Energies [Eh]
    ---------------------

    Doubly Occupied:

       1A    -11.228983     2A    -11.211917     3A    -11.209952
       4A    -11.207864     5A    -11.207795     6A    -11.207774
       7A     -1.114264     8A     -0.995094     9A     -0.924734
      10A     -0.919113    11A     -0.861902    12A     -0.720834
      13A     -0.628173    14A     -0.621633    15A     -0.594703
      16A     -0.575729    17A     -0.550656    18A     -0.533057
      19A     -0.524652    20A     -0.506424    21A     -0.500528
      22A     -0.487176    23A     -0.469722    24A     -0.435522
      25A     -0.418695

  @DF-RHF Final Energy:  -235.43573036953211

   => Energetics <=

    Nuclear Repulsion Energy =            266.7679290955200599
    One-Electron Energy =                -845.0935276822417563
    Two-Electron Energy =                 342.8898682171896439
    Total Energy =                       -235.4357303695321093
  Basis Set: (AUG-CC-PVTZ AUX)
    Blend: AUG-CC-PVTZ-RI
    Molecular point group: c1

    Geometry (in Angstrom), charge = 0, multiplicity = 1:

       Center              X                  Y                   Z               Mass
    ------------   -----------------  -----------------  -----------------  -----------------
         C           -0.345855558603     0.020019196416     0.027487945843    12.000000000000
         C            0.856318441397     0.815110996416    -0.005293054157    12.000000000000
         C           -0.529509558603    -0.889791003584    -1.253491054157    12.000000000000
         C           -1.623341558603     0.966642996416    -0.005204054157    12.000000000000
         C           -0.529269558603    -0.887554003584     1.246183945843    12.000000000000
         C            2.164541441397     0.025555996416    -0.004496054157    12.000000000000
         H            0.839357441397     1.474382996416    -0.883967054157     1.007825032230
         H            0.839358441397     1.476148996416     0.872053945843     1.007825032230
         H            0.259767441397    -1.647145003584    -1.271056054157     1.007825032230
         H           -0.443076558603    -0.285648003584    -2.163802054157     1.007825032230
         H           -1.491516558603    -1.412963003584    -1.286380054157     1.007825032230
         H           -1.598305558603     1.610792996416     0.880737945843     1.007825032230
         H           -1.598504558603     1.609166996416    -0.892330054157     1.007825032230
         H           -2.576713558603     0.426827996416    -0.004605054157     1.007825032230
         H            0.259930441397    -1.644955003584     1.264835945843     1.007825032230
         H           -1.491333558603    -1.410544003584     1.280271945843     1.007825032230
         H           -0.442490558603    -0.281784003584     2.155376945843     1.007825032230
         H            2.255081441397    -0.611206003584    -0.888393054157     1.007825032230
         H            3.017801441397     0.710689996416    -0.005523054157     1.007825032230
         H            2.255377441397    -0.608918003584     0.881010945843     1.007825032230

  Basis Set: AUG-CC-PVTZ
    Blend: AUG-CC-PVTZ
  Basis Set: (AUG-CC-PVTZ AUX)
    Blend: AUG-CC-PVTZ-JKFIT
	 Reference Energy          =    -235.4357303695321093 [Eh]
	 Singles Energy            =      -0.0000000000000000 [Eh]
	 Same-Spin Energy          =      -0.2558767123921933 [Eh]
	 Opposite-Spin Energy      =      -0.9550880325874280 [Eh]
	 Correlation Energy        =      -1.2109647449796213 [Eh]
	 Total Energy              =    -236.6466951145117434 [Eh]

	 ================> DF-SCS-MP2 Energies <==================
	-----------------------------------------------------------
	 SCS Same-Spin Scale       =       0.3333333333333333 [-]
	 SCS Opposite-Spin Scale   =       1.2000000000000000 [-]
	 SCS Same-Spin Energy      =      -0.0852922374640644 [Eh]
	 SCS Opposite-Spin Energy  =      -1.1461056391049136 [Eh]
	 SCS Correlation Energy    =      -1.2313978765689779 [Eh]
	 SCS Total Energy          =    -236.6671282461011003 [Eh]
	-----------------------------------------------------------

  Dipole Moment: [D]
     X:     0.0966      Y:     0.0287      Z:     0.0171     Total:     0.1023

*** Psi4 exiting successfully. Buy a developer a beer!
