                               Psi4 1.3.2 release

  ==> Input File <==

--------------------------------------------------------------------------
#psi4
#
memory 32 gb

molecule  {
0 1
  C       -0.4815611    -0.0163437    -0.0137057
  C        0.8671890     0.8245510    -0.0008470
  C       -0.5186390    -0.8803510    -1.2490450
  C       -1.6124710     0.9760830    -0.0007580
  C       -0.5183990    -0.8781140     1.2506300
  C        2.1754120     0.0349960    -0.0000500
  H        0.8502280     1.4838230    -0.8795210
  H        0.8502290     1.4855890     0.8765000
  H        0.2706380    -1.6377050    -1.2666100
  H       -0.4322060    -0.2762080    -2.1593560
  H       -1.4806460    -1.4035230    -1.2819340
  H       -1.5874350     1.6202330     0.8851840
  H       -1.5876340     1.6186070    -0.8878840
  H       -2.5658430     0.4362680    -0.0001590
  H        0.2708010    -1.6355150     1.2692820
  H       -1.4804630    -1.4011040     1.2847180
  H       -0.4316200    -0.2723440     2.1598230
  H        2.2659520    -0.6017660    -0.8839470
  H        3.0286720     0.7201300    -0.0010770
  H        2.2662480    -0.5994780     0.8854570
units angstrom
no_reorient  #important for SAPT in psi4, default
symmetry c1  #important for SAPT in psi4, default
}

set PROPERTIES_ORIGIN ["COM"]
properties('MP2/aug-cc-pvtz', properties = ['dipole'])
--------------------------------------------------------------------------

    Molecular point group: c1
  Charge       = 0
  Multiplicity = 1
  Basis Set: AUG-CC-PVTZ
    Blend: AUG-CC-PVTZ
  Basis Set: (AUG-CC-PVTZ AUX)
    Blend: AUG-CC-PVTZ-JKFIT

    Orbital Energies [Eh]
    ---------------------

    Doubly Occupied:

       1A    -11.227322     2A    -11.214228     3A    -11.208327
       4A    -11.207075     5A    -11.206827     6A    -11.206627
       7A     -1.109239     8A     -0.996029     9A     -0.930946
      10A     -0.928224    11A     -0.842560    12A     -0.722160
      13A     -0.625167    14A     -0.620363    15A     -0.597551
      16A     -0.583362    17A     -0.549880    18A     -0.528530
      19A     -0.523185    20A     -0.508990    21A     -0.500172
      22A     -0.482910    23A     -0.457104    24A     -0.451317
      25A     -0.420874

  @DF-RHF Final Energy:  -235.44491637514847

   => Energetics <=

    Nuclear Repulsion Energy =            266.3691087503030985
    One-Electron Energy =                -844.3301132686688106
    Two-Electron Energy =                 342.5160881432172459
    Total Energy =                       -235.4449163751484662
  Basis Set: (AUG-CC-PVTZ AUX)
    Blend: AUG-CC-PVTZ-RI
    Molecular point group: c1

    Geometry (in Angstrom), charge = 0, multiplicity = 1:

       Center              X                  Y                   Z               Mass
    ------------   -----------------  -----------------  -----------------  -----------------
         C           -0.472005199624    -0.019400732158    -0.011791525853    12.000000000000
         C            0.876744900376     0.821493967842     0.001067174147    12.000000000000
         C           -0.509083099624    -0.883408032158    -1.247130825853    12.000000000000
         C           -1.602915099624     0.973025967842     0.001156174147    12.000000000000
         C           -0.508843099624    -0.881171032158     1.252544174147    12.000000000000
         C            2.184967900376     0.031938967842     0.001864174147    12.000000000000
         H            0.859783900376     1.480765967842    -0.877606825853     1.007825032230
         H            0.859784900376     1.482531967842     0.878414174147     1.007825032230
         H            0.280193900376    -1.640762032158    -1.264695825853     1.007825032230
         H           -0.422650099624    -0.279265032158    -2.157441825853     1.007825032230
         H           -1.471090099624    -1.406580032158    -1.280019825853     1.007825032230
         H           -1.577879099624     1.617175967842     0.887098174147     1.007825032230
         H           -1.578078099624     1.615549967842    -0.885969825853     1.007825032230
         H           -2.556287099624     0.433210967842     0.001755174147     1.007825032230
         H            0.280356900376    -1.638572032158     1.271196174147     1.007825032230
         H           -1.470907099624    -1.404161032158     1.286632174147     1.007825032230
         H           -0.422064099624    -0.275401032158     2.161737174147     1.007825032230
         H            2.275507900376    -0.604823032158    -0.882032825853     1.007825032230
         H            3.038227900376     0.717072967842     0.000837174147     1.007825032230
         H            2.275803900376    -0.602535032158     0.887371174147     1.007825032230

  Basis Set: AUG-CC-PVTZ
    Blend: AUG-CC-PVTZ
  Basis Set: (AUG-CC-PVTZ AUX)
    Blend: AUG-CC-PVTZ-JKFIT
	 Reference Energy          =    -235.4449163751484662 [Eh]
	 Singles Energy            =      -0.0000000000000000 [Eh]
	 Same-Spin Energy          =      -0.2555430414782601 [Eh]
	 Opposite-Spin Energy      =      -0.9542680014586074 [Eh]
	 Correlation Energy        =      -1.2098110429368676 [Eh]
	 Total Energy              =    -236.6547274180853435 [Eh]

	 ================> DF-SCS-MP2 Energies <==================
	-----------------------------------------------------------
	 SCS Same-Spin Scale       =       0.3333333333333333 [-]
	 SCS Opposite-Spin Scale   =       1.2000000000000000 [-]
	 SCS Same-Spin Energy      =      -0.0851810138260867 [Eh]
	 SCS Opposite-Spin Energy  =      -1.1451216017503287 [Eh]
	 SCS Correlation Energy    =      -1.2303026155764154 [Eh]
	 SCS Total Energy          =    -236.6752189907248862 [Eh]
	-----------------------------------------------------------

  Dipole Moment: [D]
     X:     0.0344      Y:     0.0314      Z:    -0.0065     Total:     0.0470

*** Psi4 exiting successfully. Buy a developer a beer!
