                               Psi4 1.3.2 release

  ==> Input File <==

--------------------------------------------------------------------------
#psi4
#
memory 32 gb

molecule  {
0 1
  C       -0.4325780     0.0000000    -0.0000100
  C        0.8671890     0.8245510    -0.0008470
  C       -0.5186390    -0.8803510    -1.2490450
  C       -1.6124710     0.9760830    -0.0007580
  C       -0.5183990    -0.8781140     1.2506300
  C        2.1754120     0.0349960    -0.0000500
  H        0.8486963     1.5434901    -0.8313769
  H        0.8502290     1.4855890     0.8765000
  H        0.2706380    -1.6377050    -1.2666100
  H       -0.4322060    -0.2762080    -2.1593560
  H       -1.4806460    -1.4035230    -1.2819340
  H       -1.5874350     1.6202330     0.8851840
  H       -1.5876340     1.6186070    -0.8878840
  H       -2.5658430     0.4362680    -0.0001590
  H        0.2708010    -1.6355150     1.2692820
  H       -1.4804630    -1.4011040     1.2847180
  H       -0.4316200    -0.2723440     2.1598230
  H        2.2659520    -0.6017660    -0.8839470
  H        3.0286720     0.7201300    -0.0010770
  H        2.2662480    -0.5994780     0.8854570
units angstrom
no_reorient  #important for SAPT in psi4, default
symmetry c1  #important for SAPT in psi4, default
}

set PROPERTIES_ORIGIN ["COM"]
properties('MP2/aug-cc-pvtz', properties = ['dipole'])
--------------------------------------------------------------------------

    Molecular point group: c1
  Charge       = 0
  Multiplicity = 1
  Basis Set: AUG-CC-PVTZ
    Blend: AUG-CC-PVTZ
  Basis Set: (AUG-CC-PVTZ AUX)
    Blend: AUG-CC-PVTZ-JKFIT

    Orbital Energies [Eh]
    ---------------------

    Doubly Occupied:

       1A    -11.227657     2A    -11.213616     3A    -11.209303
       4A    -11.207083     5A    -11.206882     6A    -11.206770
       7A     -1.109287     8A     -0.995811     9A     -0.926882
      10A     -0.926719    11A     -0.849341    12A     -0.722846
      13A     -0.624862    14A     -0.619185    15A     -0.596263
      16A     -0.580206    17A     -0.550591    18A     -0.529816
      19A     -0.523550    20A     -0.507709    21A     -0.501769
      22A     -0.481626    23A     -0.446637    24A     -0.445461
      25A     -0.439139

  @DF-RHF Final Energy:  -235.44714729107190

   => Energetics <=

    Nuclear Repulsion Energy =            266.4364037321190608
    One-Electron Energy =                -844.4690791116872788
    Two-Electron Energy =                 342.5855280884962895
    Total Energy =                       -235.4471472910719285
  Basis Set: (AUG-CC-PVTZ AUX)
    Blend: AUG-CC-PVTZ-RI
    Molecular point group: c1

    Geometry (in Angstrom), charge = 0, multiplicity = 1:

       Center              X                  Y                   Z               Mass
    ------------   -----------------  -----------------  -----------------  -----------------
         C           -0.429830328343    -0.006032990059    -0.000567900414    12.000000000000
         C            0.869936671657     0.818518009941    -0.001404900414    12.000000000000
         C           -0.515891328343    -0.886383990059    -1.249602900414    12.000000000000
         C           -1.609723328343     0.970050009941    -0.001315900414    12.000000000000
         C           -0.515651328343    -0.884146990059     1.250072099586    12.000000000000
         C            2.178159671657     0.028963009941    -0.000607900414    12.000000000000
         H            0.851443971657     1.537457109941    -0.831934800414     1.007825032230
         H            0.852976671657     1.479556009941     0.875942099586     1.007825032230
         H            0.273385671657    -1.643737990059    -1.267167900414     1.007825032230
         H           -0.429458328343    -0.282240990059    -2.159913900414     1.007825032230
         H           -1.477898328343    -1.409555990059    -1.282491900414     1.007825032230
         H           -1.584687328343     1.614200009941     0.884626099586     1.007825032230
         H           -1.584886328343     1.612574009941    -0.888441900414     1.007825032230
         H           -2.563095328343     0.430235009941    -0.000716900414     1.007825032230
         H            0.273548671657    -1.641547990059     1.268724099586     1.007825032230
         H           -1.477715328343    -1.407136990059     1.284160099586     1.007825032230
         H           -0.428872328343    -0.278376990059     2.159265099586     1.007825032230
         H            2.268699671657    -0.607798990059    -0.884504900414     1.007825032230
         H            3.031419671657     0.714097009941    -0.001634900414     1.007825032230
         H            2.268995671657    -0.605510990059     0.884899099586     1.007825032230

  Basis Set: AUG-CC-PVTZ
    Blend: AUG-CC-PVTZ
  Basis Set: (AUG-CC-PVTZ AUX)
    Blend: AUG-CC-PVTZ-JKFIT
	 Reference Energy          =    -235.4471472910719001 [Eh]
	 Singles Energy            =      -0.0000000000000000 [Eh]
	 Same-Spin Energy          =      -0.2553859403215615 [Eh]
	 Opposite-Spin Energy      =      -0.9540408190052527 [Eh]
	 Correlation Energy        =      -1.2094267593268142 [Eh]
	 Total Energy              =    -236.6565740503987172 [Eh]

	 ================> DF-SCS-MP2 Energies <==================
	-----------------------------------------------------------
	 SCS Same-Spin Scale       =       0.3333333333333333 [-]
	 SCS Opposite-Spin Scale   =       1.2000000000000000 [-]
	 SCS Same-Spin Energy      =      -0.0851286467738538 [Eh]
	 SCS Opposite-Spin Energy  =      -1.1448489828063033 [Eh]
	 SCS Correlation Energy    =      -1.2299776295801572 [Eh]
	 SCS Total Energy          =    -236.6771249206520622 [Eh]
	-----------------------------------------------------------

  Dipole Moment: [D]
     X:     0.0560      Y:     0.0486      Z:     0.0094     Total:     0.0747

*** Psi4 exiting successfully. Buy a developer a beer!
