                               Psi4 1.4a3.dev225

  ==> Input File <==

--------------------------------------------------------------------------
#psi4
#
memory 32 gb

molecule  {
0 1
  C        0.4325650     0.0000100    -0.0000020
  C       -0.8671790     0.8245630    -0.0000540
  C        0.5185540    -0.8790830     1.2499350
  C        1.6124760     0.9760580    -0.0001380
  C        0.5184830    -0.8793570    -1.2497460
  C       -2.1326046     0.0608135    -0.0000008
  H       -0.8502370     1.4847800     0.8779110
  H       -0.8502460     1.4846590    -0.8781100
  H       -0.2707110    -1.6364310     1.2681610
  H        0.4320040    -0.2740170     2.1596200
  H        1.4805750    -1.4021870     1.2834330
  H        1.5875310     1.6192780    -0.8867600
  H        1.5875470     1.6195060     0.8863170
  H        2.5658350     0.4362190    -0.0000780
  H       -0.2707460    -1.6367490    -1.2677310
  H        1.4805270    -1.4024220    -1.2832170
  H        0.4318210    -0.2745040    -2.1595630
  H       -2.2660690    -0.6006200     0.8847210
  H       -3.0286490     0.7201330     0.0000090
  H       -2.2661130    -0.6006550    -0.8846890
units angstrom
no_reorient  #important for SAPT in psi4, default
symmetry c1  #important for SAPT in psi4, default
}

set PROPERTIES_ORIGIN ["COM"]
properties('MP2/aug-cc-pvtz', properties = ['dipole'])
--------------------------------------------------------------------------

    Molecular point group: c1
  Charge       = 0
  Multiplicity = 1
  Basis Set: AUG-CC-PVTZ
    Blend: AUG-CC-PVTZ
  Basis Set: (AUG-CC-PVTZ AUX)
    Blend: AUG-CC-PVTZ-JKFIT

    Orbital Energies [Eh]
    ---------------------

    Doubly Occupied:

       1A    -11.227456     2A    -11.212071     3A    -11.211321
       4A    -11.206961     5A    -11.206940     6A    -11.206917
       7A     -1.112111     8A     -1.002673     9A     -0.927083
      10A     -0.926726    11A     -0.844603    12A     -0.722468
      13A     -0.624675    14A     -0.623963    15A     -0.599047
      16A     -0.579424    17A     -0.553099    18A     -0.524224
      19A     -0.522484    20A     -0.508119    21A     -0.506536
      22A     -0.477938    23A     -0.448211    24A     -0.446355
      25A     -0.435481

  @DF-RHF Final Energy:  -235.44465528231740

   => Energetics <=

    Nuclear Repulsion Energy =            267.1906059530373909
    One-Electron Energy =                -845.9567507035823155
    Two-Electron Energy =                 343.3214894682275826
    Total Energy =                       -235.4446552823173988
  Basis Set: (AUG-CC-PVTZ AUX)
    Blend: AUG-CC-PVTZ-RI
    Molecular point group: c1

    Geometry (in Angstrom), charge = 0, multiplicity = 1:

       Center              X                  Y                   Z               Mass
    ------------   -----------------  -----------------  -----------------  -----------------
         C            0.423869706582    -0.008925372764    -0.000001472623    12.000000000000
         C           -0.875874293418     0.815627627236    -0.000053472623    12.000000000000
         C            0.509858706582    -0.888018372764     1.249935527377    12.000000000000
         C            1.603780706582     0.967122627236    -0.000137472623    12.000000000000
         C            0.509787706582    -0.888292372764    -1.249745472623    12.000000000000
         C           -2.141299893418     0.051878127236    -0.000000272623    12.000000000000
         H           -0.858932293418     1.475844627236     0.877911527377     1.007825032230
         H           -0.858941293418     1.475723627236    -0.878109472623     1.007825032230
         H           -0.279406293418    -1.645366372764     1.268161527377     1.007825032230
         H            0.423308706582    -0.282952372764     2.159620527377     1.007825032230
         H            1.471879706582    -1.411122372764     1.283433527377     1.007825032230
         H            1.578835706582     1.610342627236    -0.886759472623     1.007825032230
         H            1.578851706582     1.610570627236     0.886317527377     1.007825032230
         H            2.557139706582     0.427283627236    -0.000077472623     1.007825032230
         H           -0.279441293418    -1.645684372764    -1.267730472623     1.007825032230
         H            1.471831706582    -1.411357372764    -1.283216472623     1.007825032230
         H            0.423125706582    -0.283439372764    -2.159562472623     1.007825032230
         H           -2.274764293418    -0.609555372764     0.884721527377     1.007825032230
         H           -3.037344293418     0.711197627236     0.000009527377     1.007825032230
         H           -2.274808293418    -0.609590372764    -0.884688472623     1.007825032230

  Basis Set: AUG-CC-PVTZ
    Blend: AUG-CC-PVTZ
  Basis Set: (AUG-CC-PVTZ AUX)
    Blend: AUG-CC-PVTZ-JKFIT
	 Reference Energy          =    -235.4446552823173988 [Eh]
	 Singles Energy            =      -0.0000000000000000 [Eh]
	 Same-Spin Energy          =      -0.2558186167560704 [Eh]
	 Opposite-Spin Energy      =      -0.9545081903563404 [Eh]
	 Correlation Energy        =      -1.2103268071124109 [Eh]
	 Total Energy              =    -236.6549820894298080 [Eh]

	 ================> DF-SCS-MP2 Energies <==================
	-----------------------------------------------------------
	 SCS Same-Spin Scale       =       0.3333333333333333 [-]
	 SCS Opposite-Spin Scale   =       1.2000000000000000 [-]
	 SCS Same-Spin Energy      =      -0.0852728722520235 [Eh]
	 SCS Opposite-Spin Energy  =      -1.1454098284276084 [Eh]
	 SCS Correlation Energy    =      -1.2306827006796319 [Eh]
	 SCS Total Energy          =    -236.6753379829970356 [Eh]
	-----------------------------------------------------------

  Dipole Moment: [D]
     X:    -0.0569      Y:     0.0330      Z:    -0.0000     Total:     0.0658

*** Psi4 exiting successfully. Buy a developer a beer!
