                               Psi4 1.3.2 release

  ==> Input File <==

--------------------------------------------------------------------------
#psi4
#
memory 32 gb

molecule  {
0 1
  C       -0.4325780     0.0000000    -0.0000100
  C        0.8671890     0.8245510    -0.0008470
  C       -0.5207464    -0.9019122    -1.2334173
  C       -1.6124710     0.9760830    -0.0007580
  C       -0.5183990    -0.8781140     1.2506300
  C        2.1754120     0.0349960    -0.0000500
  H        0.8502280     1.4838230    -0.8795210
  H        0.8502290     1.4855890     0.8765000
  H        0.2706380    -1.6377050    -1.2666100
  H       -0.4322060    -0.2762080    -2.1593560
  H       -1.4806460    -1.4035230    -1.2819340
  H       -1.5874350     1.6202330     0.8851840
  H       -1.5876340     1.6186070    -0.8878840
  H       -2.5658430     0.4362680    -0.0001590
  H        0.2708010    -1.6355150     1.2692820
  H       -1.4804630    -1.4011040     1.2847180
  H       -0.4316200    -0.2723440     2.1598230
  H        2.2659520    -0.6017660    -0.8839470
  H        3.0286720     0.7201300    -0.0010770
  H        2.2662480    -0.5994780     0.8854570
units angstrom
no_reorient  #important for SAPT in psi4, default
symmetry c1  #important for SAPT in psi4, default
}

set PROPERTIES_ORIGIN ["COM"]
properties('MP2/aug-cc-pvtz', properties = ['dipole'])
--------------------------------------------------------------------------

    Molecular point group: c1
  Charge       = 0
  Multiplicity = 1
  Basis Set: AUG-CC-PVTZ
    Blend: AUG-CC-PVTZ
  Basis Set: (AUG-CC-PVTZ AUX)
    Blend: AUG-CC-PVTZ-JKFIT

    Orbital Energies [Eh]
    ---------------------

    Doubly Occupied:

       1A    -11.227341     2A    -11.214070     3A    -11.209070
       4A    -11.207116     5A    -11.207073     6A    -11.206502
       7A     -1.109561     8A     -0.996212     9A     -0.927488
      10A     -0.926005    11A     -0.848955    12A     -0.721545
      13A     -0.625392    14A     -0.622765    15A     -0.594216
      16A     -0.581306    17A     -0.549499    18A     -0.530629
      19A     -0.524497    20A     -0.508052    21A     -0.500478
      22A     -0.482172    23A     -0.447038    24A     -0.444864
      25A     -0.438971

  @DF-RHF Final Energy:  -235.44695382328308

   => Energetics <=

    Nuclear Repulsion Energy =            266.4950767349429839
    One-Electron Energy =                -844.5824291432938935
    Two-Electron Energy =                 342.6403985850677714
    Total Energy =                       -235.4469538232830814
  Basis Set: (AUG-CC-PVTZ AUX)
    Blend: AUG-CC-PVTZ-RI
    Molecular point group: c1

    Geometry (in Angstrom), charge = 0, multiplicity = 1:

       Center              X                  Y                   Z               Mass
    ------------   -----------------  -----------------  -----------------  -----------------
         C           -0.429554573630    -0.002329935109    -0.002182257592    12.000000000000
         C            0.870212426370     0.822221064891    -0.003019257592    12.000000000000
         C           -0.517722973630    -0.904242135109    -1.235589557592    12.000000000000
         C           -1.609447573630     0.973753064891    -0.002930257592    12.000000000000
         C           -0.515375573630    -0.880443935109     1.248457742408    12.000000000000
         C            2.178435426370     0.032666064891    -0.002222257592    12.000000000000
         H            0.853251426370     1.481493064891    -0.881693257592     1.007825032230
         H            0.853252426370     1.483259064891     0.874327742408     1.007825032230
         H            0.273661426370    -1.640034935109    -1.268782257592     1.007825032230
         H           -0.429182573630    -0.278537935109    -2.161528257592     1.007825032230
         H           -1.477622573630    -1.405852935109    -1.284106257592     1.007825032230
         H           -1.584411573630     1.617903064891     0.883011742408     1.007825032230
         H           -1.584610573630     1.616277064891    -0.890056257592     1.007825032230
         H           -2.562819573630     0.433938064891    -0.002331257592     1.007825032230
         H            0.273824426370    -1.637844935109     1.267109742408     1.007825032230
         H           -1.477439573630    -1.403433935109     1.282545742408     1.007825032230
         H           -0.428596573630    -0.274673935109     2.157650742408     1.007825032230
         H            2.268975426370    -0.604095935109    -0.886119257592     1.007825032230
         H            3.031695426370     0.717800064891    -0.003249257592     1.007825032230
         H            2.269271426370    -0.601807935109     0.883284742408     1.007825032230

  Basis Set: AUG-CC-PVTZ
    Blend: AUG-CC-PVTZ
  Basis Set: (AUG-CC-PVTZ AUX)
    Blend: AUG-CC-PVTZ-JKFIT
	 Reference Energy          =    -235.4469538232830814 [Eh]
	 Singles Energy            =      -0.0000000000000000 [Eh]
	 Same-Spin Energy          =      -0.2553903576224159 [Eh]
	 Opposite-Spin Energy      =      -0.9540888582415945 [Eh]
	 Correlation Energy        =      -1.2094792158640104 [Eh]
	 Total Energy              =    -236.6564330391470889 [Eh]

	 ================> DF-SCS-MP2 Energies <==================
	-----------------------------------------------------------
	 SCS Same-Spin Scale       =       0.3333333333333333 [-]
	 SCS Opposite-Spin Scale   =       1.2000000000000000 [-]
	 SCS Same-Spin Energy      =      -0.0851301192074719 [Eh]
	 SCS Opposite-Spin Energy  =      -1.1449066298899133 [Eh]
	 SCS Correlation Energy    =      -1.2300367490973854 [Eh]
	 SCS Total Energy          =    -236.6769905723804754 [Eh]
	-----------------------------------------------------------

  Dipole Moment: [D]
     X:     0.0532      Y:     0.0272      Z:     0.0071     Total:     0.0602

*** Psi4 exiting successfully. Buy a developer a beer!
