                               Psi4 1.3.2 release

  ==> Input File <==

--------------------------------------------------------------------------
#psi4
#
memory 32 gb

molecule  {
0 1
  C       -0.4325780     0.0000000    -0.0000100
  C        0.8739972     0.8134052     0.0226290
  C       -0.5186390    -0.8803510    -1.2490450
  C       -1.6124710     0.9760830    -0.0007580
  C       -0.5183990    -0.8781140     1.2506300
  C        2.1754120     0.0349960    -0.0000500
  H        0.8502280     1.4838230    -0.8795210
  H        0.8502290     1.4855890     0.8765000
  H        0.2706380    -1.6377050    -1.2666100
  H       -0.4322060    -0.2762080    -2.1593560
  H       -1.4806460    -1.4035230    -1.2819340
  H       -1.5874350     1.6202330     0.8851840
  H       -1.5876340     1.6186070    -0.8878840
  H       -2.5658430     0.4362680    -0.0001590
  H        0.2708010    -1.6355150     1.2692820
  H       -1.4804630    -1.4011040     1.2847180
  H       -0.4316200    -0.2723440     2.1598230
  H        2.2659520    -0.6017660    -0.8839470
  H        3.0286720     0.7201300    -0.0010770
  H        2.2662480    -0.5994780     0.8854570
units angstrom
no_reorient  #important for SAPT in psi4, default
symmetry c1  #important for SAPT in psi4, default
}

set PROPERTIES_ORIGIN ["COM"]
properties('MP2/aug-cc-pvtz', properties = ['dipole'])
--------------------------------------------------------------------------

    Molecular point group: c1
  Charge       = 0
  Multiplicity = 1
  Basis Set: AUG-CC-PVTZ
    Blend: AUG-CC-PVTZ
  Basis Set: (AUG-CC-PVTZ AUX)
    Blend: AUG-CC-PVTZ-JKFIT

    Orbital Energies [Eh]
    ---------------------

    Doubly Occupied:

       1A    -11.227436     2A    -11.214506     3A    -11.208725
       4A    -11.207166     5A    -11.207111     6A    -11.206561
       7A     -1.109866     8A     -0.997913     9A     -0.927070
      10A     -0.926494    11A     -0.848180    12A     -0.721099
      13A     -0.624884    14A     -0.621204    15A     -0.596865
      16A     -0.581081    17A     -0.550970    18A     -0.529754
      19A     -0.523744    20A     -0.508037    21A     -0.501814
      22A     -0.481837    23A     -0.448076    24A     -0.445336
      25A     -0.436382

  @DF-RHF Final Energy:  -235.44675378214416

   => Energetics <=

    Nuclear Repulsion Energy =            266.5749064673537987
    One-Electron Energy =                -844.7390989334287497
    Two-Electron Energy =                 342.7174386839308227
    Total Energy =                       -235.4467537821441283
  Basis Set: (AUG-CC-PVTZ AUX)
    Blend: AUG-CC-PVTZ-RI
    Molecular point group: c1

    Geometry (in Angstrom), charge = 0, multiplicity = 1:

       Center              X                  Y                   Z               Mass
    ------------   -----------------  -----------------  -----------------  -----------------
         C           -0.430797028148    -0.003781397803    -0.003275975995    12.000000000000
         C            0.875778171852     0.809623802197     0.019363024005    12.000000000000
         C           -0.516858028148    -0.884132397803    -1.252310975995    12.000000000000
         C           -1.610690028148     0.972301602197    -0.004023975995    12.000000000000
         C           -0.516618028148    -0.881895397803     1.247364024005    12.000000000000
         C            2.177192971852     0.031214602197    -0.003315975995    12.000000000000
         H            0.852008971852     1.480041602197    -0.882786975995     1.007825032230
         H            0.852009971852     1.481807602197     0.873234024005     1.007825032230
         H            0.272418971852    -1.641486397803    -1.269875975995     1.007825032230
         H           -0.430425028148    -0.279989397803    -2.162621975995     1.007825032230
         H           -1.478865028148    -1.407304397803    -1.285199975995     1.007825032230
         H           -1.585654028148     1.616451602197     0.881918024005     1.007825032230
         H           -1.585853028148     1.614825602197    -0.891149975995     1.007825032230
         H           -2.564062028148     0.432486602197    -0.003424975995     1.007825032230
         H            0.272581971852    -1.639296397803     1.266016024005     1.007825032230
         H           -1.478682028148    -1.404885397803     1.281452024005     1.007825032230
         H           -0.429839028148    -0.276125397803     2.156557024005     1.007825032230
         H            2.267732971852    -0.605547397803    -0.887212975995     1.007825032230
         H            3.030452971852     0.716348602197    -0.004342975995     1.007825032230
         H            2.268028971852    -0.603259397803     0.882191024005     1.007825032230

  Basis Set: AUG-CC-PVTZ
    Blend: AUG-CC-PVTZ
  Basis Set: (AUG-CC-PVTZ AUX)
    Blend: AUG-CC-PVTZ-JKFIT
	 Reference Energy          =    -235.4467537821441567 [Eh]
	 Singles Energy            =      -0.0000000000000000 [Eh]
	 Same-Spin Energy          =      -0.2554824924485568 [Eh]
	 Opposite-Spin Energy      =      -0.9541917416372780 [Eh]
	 Correlation Energy        =      -1.2096742340858349 [Eh]
	 Total Energy              =    -236.6564280162299951 [Eh]

	 ================> DF-SCS-MP2 Energies <==================
	-----------------------------------------------------------
	 SCS Same-Spin Scale       =       0.3333333333333333 [-]
	 SCS Opposite-Spin Scale   =       1.2000000000000000 [-]
	 SCS Same-Spin Energy      =      -0.0851608308161856 [Eh]
	 SCS Opposite-Spin Energy  =      -1.1450300899647337 [Eh]
	 SCS Correlation Energy    =      -1.2301909207809192 [Eh]
	 SCS Total Energy          =    -236.6769447029250841 [Eh]
	-----------------------------------------------------------

  Dipole Moment: [D]
     X:     0.0567      Y:     0.0259      Z:     0.0102     Total:     0.0631

*** Psi4 exiting successfully. Buy a developer a beer!
