                               Psi4 1.3.2 release

  ==> Input File <==

--------------------------------------------------------------------------
#psi4
#
memory 32 gb

molecule  {
0 1
  C       -0.4081219     0.0077718     0.0074104
  C        0.8671890     0.8245510    -0.0008470
  C       -0.5186390    -0.8803510    -1.2490450
  C       -1.6124710     0.9760830    -0.0007580
  C       -0.5183990    -0.8781140     1.2506300
  C        2.1754120     0.0349960    -0.0000500
  H        0.8502280     1.4838230    -0.8795210
  H        0.8502290     1.4855890     0.8765000
  H        0.2706380    -1.6377050    -1.2666100
  H       -0.4322060    -0.2762080    -2.1593560
  H       -1.4806460    -1.4035230    -1.2819340
  H       -1.5874350     1.6202330     0.8851840
  H       -1.5876340     1.6186070    -0.8878840
  H       -2.5658430     0.4362680    -0.0001590
  H        0.2708010    -1.6355150     1.2692820
  H       -1.4804630    -1.4011040     1.2847180
  H       -0.4316200    -0.2723440     2.1598230
  H        2.2659520    -0.6017660    -0.8839470
  H        3.0286720     0.7201300    -0.0010770
  H        2.2662480    -0.5994780     0.8854570
units angstrom
no_reorient  #important for SAPT in psi4, default
symmetry c1  #important for SAPT in psi4, default
}

set PROPERTIES_ORIGIN ["COM"]
properties('MP2/aug-cc-pvtz', properties = ['dipole'])
--------------------------------------------------------------------------

    Molecular point group: c1
  Charge       = 0
  Multiplicity = 1
  Basis Set: AUG-CC-PVTZ
    Blend: AUG-CC-PVTZ
  Basis Set: (AUG-CC-PVTZ AUX)
    Blend: AUG-CC-PVTZ-JKFIT

    Orbital Energies [Eh]
    ---------------------

    Doubly Occupied:

       1A    -11.227497     2A    -11.213476     3A    -11.209146
       4A    -11.207082     5A    -11.207053     6A    -11.207009
       7A     -1.110159     8A     -0.995823     9A     -0.926307
      10A     -0.924696    11A     -0.851955    12A     -0.721241
      13A     -0.623771    14A     -0.623362    15A     -0.595840
      16A     -0.579490    17A     -0.550033    18A     -0.530245
      19A     -0.523922    20A     -0.507573    21A     -0.499788
      22A     -0.484822    23A     -0.447166    24A     -0.444213
      25A     -0.438892

  @DF-RHF Final Energy:  -235.44698907080328

   => Energetics <=

    Nuclear Repulsion Energy =            266.5622559559450906
    One-Electron Energy =                -844.7173685890346633
    Two-Electron Energy =                 342.7081235622863460
    Total Energy =                       -235.4469890708032835
  Basis Set: (AUG-CC-PVTZ AUX)
    Blend: AUG-CC-PVTZ-RI
    Molecular point group: c1

    Geometry (in Angstrom), charge = 0, multiplicity = 1:

       Center              X                  Y                   Z               Mass
    ------------   -----------------  -----------------  -----------------  -----------------
         C           -0.408800292979     0.001354095321     0.006381890105    12.000000000000
         C            0.866510607021     0.818133295321    -0.001875509895    12.000000000000
         C           -0.519317392979    -0.886768704679    -1.250073509895    12.000000000000
         C           -1.613149392979     0.969665295321    -0.001786509895    12.000000000000
         C           -0.519077392979    -0.884531704679     1.249601490105    12.000000000000
         C            2.174733607021     0.028578295321    -0.001078509895    12.000000000000
         H            0.849549607021     1.477405295321    -0.880549509895     1.007825032230
         H            0.849550607021     1.479171295321     0.875471490105     1.007825032230
         H            0.269959607021    -1.644122704679    -1.267638509895     1.007825032230
         H           -0.432884392979    -0.282625704679    -2.160384509895     1.007825032230
         H           -1.481324392979    -1.409940704679    -1.282962509895     1.007825032230
         H           -1.588113392979     1.613815295321     0.884155490105     1.007825032230
         H           -1.588312392979     1.612189295321    -0.888912509895     1.007825032230
         H           -2.566521392979     0.429850295321    -0.001187509895     1.007825032230
         H            0.270122607021    -1.641932704679     1.268253490105     1.007825032230
         H           -1.481141392979    -1.407521704679     1.283689490105     1.007825032230
         H           -0.432298392979    -0.278761704679     2.158794490105     1.007825032230
         H            2.265273607021    -0.608183704679    -0.884975509895     1.007825032230
         H            3.027993607021     0.713712295321    -0.002105509895     1.007825032230
         H            2.265569607021    -0.605895704679     0.884428490105     1.007825032230

  Basis Set: AUG-CC-PVTZ
    Blend: AUG-CC-PVTZ
  Basis Set: (AUG-CC-PVTZ AUX)
    Blend: AUG-CC-PVTZ-JKFIT
	 Reference Energy          =    -235.4469890708032835 [Eh]
	 Singles Energy            =      -0.0000000000000000 [Eh]
	 Same-Spin Energy          =      -0.2554078669667643 [Eh]
	 Opposite-Spin Energy      =      -0.9541385231729139 [Eh]
	 Correlation Energy        =      -1.2095463901396781 [Eh]
	 Total Energy              =    -236.6565354609429619 [Eh]

	 ================> DF-SCS-MP2 Energies <==================
	-----------------------------------------------------------
	 SCS Same-Spin Scale       =       0.3333333333333333 [-]
	 SCS Opposite-Spin Scale   =       1.2000000000000000 [-]
	 SCS Same-Spin Energy      =      -0.0851359556555881 [Eh]
	 SCS Opposite-Spin Energy  =      -1.1449662278074966 [Eh]
	 SCS Correlation Energy    =      -1.2301021834630848 [Eh]
	 SCS Total Energy          =    -236.6770912542663723 [Eh]
	-----------------------------------------------------------

  Dipole Moment: [D]
     X:     0.0630      Y:     0.0313      Z:     0.0036     Total:     0.0704

*** Psi4 exiting successfully. Buy a developer a beer!
