                               Psi4 1.3.2 release

  ==> Input File <==

--------------------------------------------------------------------------
#psi4
#
memory 32 gb

molecule  {
0 1
  C       -0.4325780     0.0000000    -0.0000100
  C        0.8671890     0.8245510    -0.0008470
  C       -0.5054672    -0.7455878    -1.3346631
  C       -1.6124710     0.9760830    -0.0007580
  C       -0.5183990    -0.8781140     1.2506300
  C        2.1754120     0.0349960    -0.0000500
  H        0.8502280     1.4838230    -0.8795210
  H        0.8502290     1.4855890     0.8765000
  H        0.2706380    -1.6377050    -1.2666100
  H       -0.4322060    -0.2762080    -2.1593560
  H       -1.4806460    -1.4035230    -1.2819340
  H       -1.5874350     1.6202330     0.8851840
  H       -1.5876340     1.6186070    -0.8878840
  H       -2.5658430     0.4362680    -0.0001590
  H        0.2708010    -1.6355150     1.2692820
  H       -1.4804630    -1.4011040     1.2847180
  H       -0.4316200    -0.2723440     2.1598230
  H        2.2659520    -0.6017660    -0.8839470
  H        3.0286720     0.7201300    -0.0010770
  H        2.2662480    -0.5994780     0.8854570
units angstrom
no_reorient  #important for SAPT in psi4, default
symmetry c1  #important for SAPT in psi4, default
}

set PROPERTIES_ORIGIN ["COM"]
properties('MP2/aug-cc-pvtz', properties = ['dipole'])
--------------------------------------------------------------------------

    Molecular point group: c1
  Charge       = 0
  Multiplicity = 1
  Basis Set: AUG-CC-PVTZ
    Blend: AUG-CC-PVTZ
  Basis Set: (AUG-CC-PVTZ AUX)
    Blend: AUG-CC-PVTZ-JKFIT

    Orbital Energies [Eh]
    ---------------------

    Doubly Occupied:

       1A    -11.229403     2A    -11.213058     3A    -11.211112
       4A    -11.210761     5A    -11.207992     6A    -11.206041
       7A     -1.110993     8A     -0.995219     9A     -0.936219
      10A     -0.923850    11A     -0.848222    12A     -0.728277
      13A     -0.625153    14A     -0.620404    15A     -0.610484
      16A     -0.578362    17A     -0.553896    18A     -0.528675
      19A     -0.527427    20A     -0.503712    21A     -0.493655
      22A     -0.482726    23A     -0.457314    24A     -0.432791
      25A     -0.429114

  @DF-RHF Final Energy:  -235.41538949014242

   => Energetics <=

    Nuclear Repulsion Energy =            266.5927684677182015
    One-Electron Energy =                -844.6865941349464038
    Two-Electron Energy =                 342.6784361770858141
    Total Energy =                       -235.4153894901423882
  Basis Set: (AUG-CC-PVTZ AUX)
    Blend: AUG-CC-PVTZ-RI
    Molecular point group: c1

    Geometry (in Angstrom), charge = 0, multiplicity = 1:

       Center              X                  Y                   Z               Mass
    ------------   -----------------  -----------------  -----------------  -----------------
         C           -0.431683842672    -0.024114891484     0.011927090252    12.000000000000
         C            0.868083157328     0.800436108516     0.011090090252    12.000000000000
         C           -0.504573042672    -0.769702691484    -1.322726009748    12.000000000000
         C           -1.611576842672     0.951968108516     0.011179090252    12.000000000000
         C           -0.517504842672    -0.902228891484     1.262567090252    12.000000000000
         C            2.176306157328     0.010881108516     0.011887090252    12.000000000000
         H            0.851122157328     1.459708108516    -0.867583909748     1.007825032230
         H            0.851123157328     1.461474108516     0.888437090252     1.007825032230
         H            0.271532157328    -1.661819891484    -1.254672909748     1.007825032230
         H           -0.431311842672    -0.300322891484    -2.147418909748     1.007825032230
         H           -1.479751842672    -1.427637891484    -1.269996909748     1.007825032230
         H           -1.586540842672     1.596118108516     0.897121090252     1.007825032230
         H           -1.586739842672     1.594492108516    -0.875946909748     1.007825032230
         H           -2.564948842672     0.412153108516     0.011778090252     1.007825032230
         H            0.271695157328    -1.659629891484     1.281219090252     1.007825032230
         H           -1.479568842672    -1.425218891484     1.296655090252     1.007825032230
         H           -0.430725842672    -0.296458891484     2.171760090252     1.007825032230
         H            2.266846157328    -0.625880891484    -0.872009909748     1.007825032230
         H            3.029566157328     0.696015108516     0.010860090252     1.007825032230
         H            2.267142157328    -0.623592891484     0.897394090252     1.007825032230

  Basis Set: AUG-CC-PVTZ
    Blend: AUG-CC-PVTZ
  Basis Set: (AUG-CC-PVTZ AUX)
    Blend: AUG-CC-PVTZ-JKFIT
	 Reference Energy          =    -235.4153894901424167 [Eh]
	 Singles Energy            =      -0.0000000000000000 [Eh]
	 Same-Spin Energy          =      -0.2559624157668732 [Eh]
	 Opposite-Spin Energy      =      -0.9556384378972425 [Eh]
	 Correlation Energy        =      -1.2116008536641156 [Eh]
	 Total Energy              =    -236.6269903438065398 [Eh]

	 ================> DF-SCS-MP2 Energies <==================
	-----------------------------------------------------------
	 SCS Same-Spin Scale       =       0.3333333333333333 [-]
	 SCS Opposite-Spin Scale   =       1.2000000000000000 [-]
	 SCS Same-Spin Energy      =      -0.0853208052556244 [Eh]
	 SCS Opposite-Spin Energy  =      -1.1467661254766910 [Eh]
	 SCS Correlation Energy    =      -1.2320869307323155 [Eh]
	 SCS Total Energy          =    -236.6474764208747388 [Eh]
	-----------------------------------------------------------

  Dipole Moment: [D]
     X:     0.0551      Y:     0.0690      Z:     0.0292     Total:     0.0930

*** Psi4 exiting successfully. Buy a developer a beer!
