                               Psi4 1.3.2 release

  ==> Input File <==

--------------------------------------------------------------------------
#psi4
#
memory 32 gb

molecule  {
0 1
  C       -0.4325780     0.0000000    -0.0000100
  C        0.8804075     0.8020116     0.0460982
  C       -0.5186390    -0.8803510    -1.2490450
  C       -1.6124710     0.9760830    -0.0007580
  C       -0.5183990    -0.8781140     1.2506300
  C        2.1754120     0.0349960    -0.0000500
  H        0.8502280     1.4838230    -0.8795210
  H        0.8502290     1.4855890     0.8765000
  H        0.2706380    -1.6377050    -1.2666100
  H       -0.4322060    -0.2762080    -2.1593560
  H       -1.4806460    -1.4035230    -1.2819340
  H       -1.5874350     1.6202330     0.8851840
  H       -1.5876340     1.6186070    -0.8878840
  H       -2.5658430     0.4362680    -0.0001590
  H        0.2708010    -1.6355150     1.2692820
  H       -1.4804630    -1.4011040     1.2847180
  H       -0.4316200    -0.2723440     2.1598230
  H        2.2659520    -0.6017660    -0.8839470
  H        3.0286720     0.7201300    -0.0010770
  H        2.2662480    -0.5994780     0.8854570
units angstrom
no_reorient  #important for SAPT in psi4, default
symmetry c1  #important for SAPT in psi4, default
}

set PROPERTIES_ORIGIN ["COM"]
properties('MP2/aug-cc-pvtz', properties = ['dipole'])
--------------------------------------------------------------------------

    Molecular point group: c1
  Charge       = 0
  Multiplicity = 1
  Basis Set: AUG-CC-PVTZ
    Blend: AUG-CC-PVTZ
  Basis Set: (AUG-CC-PVTZ AUX)
    Blend: AUG-CC-PVTZ-JKFIT

    Orbital Energies [Eh]
    ---------------------

    Doubly Occupied:

       1A    -11.227700     2A    -11.215394     3A    -11.208669
       4A    -11.207426     5A    -11.207377     6A    -11.206251
       7A     -1.110293     8A     -0.999914     9A     -0.927236
      10A     -0.926370    11A     -0.847776    12A     -0.721017
      13A     -0.626050    14A     -0.619715    15A     -0.597501
      16A     -0.581352    17A     -0.552140    18A     -0.529962
      19A     -0.523890    20A     -0.508388    21A     -0.504362
      22A     -0.479181    23A     -0.449380    24A     -0.446177
      25A     -0.432234

  @DF-RHF Final Energy:  -235.44434248407384

   => Energetics <=

    Nuclear Repulsion Energy =            266.6525773687245646
    One-Electron Energy =                -844.8823333764787549
    Two-Electron Energy =                 342.7854135236803472
    Total Energy =                       -235.4443424840738430
  Basis Set: (AUG-CC-PVTZ AUX)
    Blend: AUG-CC-PVTZ-RI
    Molecular point group: c1

    Geometry (in Angstrom), charge = 0, multiplicity = 1:

       Center              X                  Y                   Z               Mass
    ------------   -----------------  -----------------  -----------------  -----------------
         C           -0.431690350661    -0.002193615736    -0.006546581851    12.000000000000
         C            0.881295149339     0.799817984264     0.039561618149    12.000000000000
         C           -0.517751350661    -0.882544615736    -1.255581581851    12.000000000000
         C           -1.611583350661     0.973889384264    -0.007294581851    12.000000000000
         C           -0.517511350661    -0.880307615736     1.244093418149    12.000000000000
         C            2.176299649339     0.032802384264    -0.006586581851    12.000000000000
         H            0.851115649339     1.481629384264    -0.886057581851     1.007825032230
         H            0.851116649339     1.483395384264     0.869963418149     1.007825032230
         H            0.271525649339    -1.639898615736    -1.273146581851     1.007825032230
         H           -0.431318350661    -0.278401615736    -2.165892581851     1.007825032230
         H           -1.479758350661    -1.405716615736    -1.288470581851     1.007825032230
         H           -1.586547350661     1.618039384264     0.878647418149     1.007825032230
         H           -1.586746350661     1.616413384264    -0.894420581851     1.007825032230
         H           -2.564955350661     0.434074384264    -0.006695581851     1.007825032230
         H            0.271688649339    -1.637708615736     1.262745418149     1.007825032230
         H           -1.479575350661    -1.403297615736     1.278181418149     1.007825032230
         H           -0.430732350661    -0.274537615736     2.153286418149     1.007825032230
         H            2.266839649339    -0.603959615736    -0.890483581851     1.007825032230
         H            3.029559649339     0.717936384264    -0.007613581851     1.007825032230
         H            2.267135649339    -0.601671615736     0.878920418149     1.007825032230

  Basis Set: AUG-CC-PVTZ
    Blend: AUG-CC-PVTZ
  Basis Set: (AUG-CC-PVTZ AUX)
    Blend: AUG-CC-PVTZ-JKFIT
	 Reference Energy          =    -235.4443424840738430 [Eh]
	 Singles Energy            =      -0.0000000000000000 [Eh]
	 Same-Spin Energy          =      -0.2556065193495423 [Eh]
	 Opposite-Spin Energy      =      -0.9544067816915285 [Eh]
	 Correlation Energy        =      -1.2100133010410707 [Eh]
	 Total Energy              =    -236.6543557851149160 [Eh]

	 ================> DF-SCS-MP2 Energies <==================
	-----------------------------------------------------------
	 SCS Same-Spin Scale       =       0.3333333333333333 [-]
	 SCS Opposite-Spin Scale   =       1.2000000000000000 [-]
	 SCS Same-Spin Energy      =      -0.0852021731165141 [Eh]
	 SCS Opposite-Spin Energy  =      -1.1452881380298341 [Eh]
	 SCS Correlation Energy    =      -1.2304903111463481 [Eh]
	 SCS Total Energy          =    -236.6748327952201976 [Eh]
	-----------------------------------------------------------

  Dipole Moment: [D]
     X:     0.0594      Y:     0.0171      Z:     0.0219     Total:     0.0656

*** Psi4 exiting successfully. Buy a developer a beer!
