                               Psi4 1.3.2 release

  ==> Input File <==

--------------------------------------------------------------------------
#psi4
#
memory 32 gb

molecule  {
0 1
  C       -0.3474709    -0.0572768    -0.0298229
  C        0.8671890     0.8245510    -0.0008470
  C       -0.5186390    -0.8803510    -1.2490450
  C       -1.6124710     0.9760830    -0.0007580
  C       -0.5183990    -0.8781140     1.2506300
  C        2.1754120     0.0349960    -0.0000500
  H        0.8502280     1.4838230    -0.8795210
  H        0.8502290     1.4855890     0.8765000
  H        0.2706380    -1.6377050    -1.2666100
  H       -0.4322060    -0.2762080    -2.1593560
  H       -1.4806460    -1.4035230    -1.2819340
  H       -1.5874350     1.6202330     0.8851840
  H       -1.5876340     1.6186070    -0.8878840
  H       -2.5658430     0.4362680    -0.0001590
  H        0.2708010    -1.6355150     1.2692820
  H       -1.4804630    -1.4011040     1.2847180
  H       -0.4316200    -0.2723440     2.1598230
  H        2.2659520    -0.6017660    -0.8839470
  H        3.0286720     0.7201300    -0.0010770
  H        2.2662480    -0.5994780     0.8854570
units angstrom
no_reorient  #important for SAPT in psi4, default
symmetry c1  #important for SAPT in psi4, default
}

set PROPERTIES_ORIGIN ["COM"]
properties('MP2/aug-cc-pvtz', properties = ['dipole'])
--------------------------------------------------------------------------

    Molecular point group: c1
  Charge       = 0
  Multiplicity = 1
  Basis Set: AUG-CC-PVTZ
    Blend: AUG-CC-PVTZ
  Basis Set: (AUG-CC-PVTZ AUX)
    Blend: AUG-CC-PVTZ-JKFIT

    Orbital Energies [Eh]
    ---------------------

    Doubly Occupied:

       1A    -11.228844     2A    -11.214046     3A    -11.208000
       4A    -11.207777     5A    -11.207007     6A    -11.206983
       7A     -1.112106     8A     -0.996048     9A     -0.932109
      10A     -0.918200    11A     -0.851608    12A     -0.723181
      13A     -0.624700    14A     -0.623864    15A     -0.597148
      16A     -0.575328    17A     -0.549888    18A     -0.531705
      19A     -0.526748    20A     -0.507200    21A     -0.498519
      22A     -0.489200    23A     -0.463111    24A     -0.449285
      25A     -0.409195

  @DF-RHF Final Energy:  -235.43704746057142

   => Energetics <=

    Nuclear Repulsion Energy =            266.7071776887255510
    One-Electron Energy =                -844.9848518631941943
    Two-Electron Energy =                 342.8406267138972225
    Total Energy =                       -235.4370474605714207
  Basis Set: (AUG-CC-PVTZ AUX)
    Blend: AUG-CC-PVTZ-RI
    Molecular point group: c1

    Geometry (in Angstrom), charge = 0, multiplicity = 1:

       Center              X                  Y                   Z               Mass
    ------------   -----------------  -----------------  -----------------  -----------------
         C           -0.356601456487    -0.054629503226    -0.025662675340    12.000000000000
         C            0.858058443513     0.827198296774     0.003313224660    12.000000000000
         C           -0.527769556487    -0.877703703226    -1.244884775340    12.000000000000
         C           -1.621601556487     0.978730296774     0.003402224660    12.000000000000
         C           -0.527529556487    -0.875466703226     1.254790224660    12.000000000000
         C            2.166281443513     0.037643296774     0.004110224660    12.000000000000
         H            0.841097443513     1.486470296774    -0.875360775340     1.007825032230
         H            0.841098443513     1.488236296774     0.880660224660     1.007825032230
         H            0.261507443513    -1.635057703226    -1.262449775340     1.007825032230
         H           -0.441336556487    -0.273560703226    -2.155195775340     1.007825032230
         H           -1.489776556487    -1.400875703226    -1.277773775340     1.007825032230
         H           -1.596565556487     1.622880296774     0.889344224660     1.007825032230
         H           -1.596764556487     1.621254296774    -0.883723775340     1.007825032230
         H           -2.574973556487     0.438915296774     0.004001224660     1.007825032230
         H            0.261670443513    -1.632867703226     1.273442224660     1.007825032230
         H           -1.489593556487    -1.398456703226     1.288878224660     1.007825032230
         H           -0.440750556487    -0.269696703226     2.163983224660     1.007825032230
         H            2.256821443513    -0.599118703226    -0.879786775340     1.007825032230
         H            3.019541443513     0.722777296774     0.003083224660     1.007825032230
         H            2.257117443513    -0.596830703226     0.889617224660     1.007825032230

  Basis Set: AUG-CC-PVTZ
    Blend: AUG-CC-PVTZ
  Basis Set: (AUG-CC-PVTZ AUX)
    Blend: AUG-CC-PVTZ-JKFIT
	 Reference Energy          =    -235.4370474605714207 [Eh]
	 Singles Energy            =      -0.0000000000000000 [Eh]
	 Same-Spin Energy          =      -0.2558469675964938 [Eh]
	 Opposite-Spin Energy      =      -0.9550375630856713 [Eh]
	 Correlation Energy        =      -1.2108845306821652 [Eh]
	 Total Energy              =    -236.6479319912535857 [Eh]

	 ================> DF-SCS-MP2 Energies <==================
	-----------------------------------------------------------
	 SCS Same-Spin Scale       =       0.3333333333333333 [-]
	 SCS Opposite-Spin Scale   =       1.2000000000000000 [-]
	 SCS Same-Spin Energy      =      -0.0852823225321646 [Eh]
	 SCS Opposite-Spin Energy  =      -1.1460450757028056 [Eh]
	 SCS Correlation Energy    =      -1.2313273982349702 [Eh]
	 SCS Total Energy          =    -236.6683748588064020 [Eh]
	-----------------------------------------------------------

  Dipole Moment: [D]
     X:     0.0931      Y:     0.0014      Z:    -0.0136     Total:     0.0941

*** Psi4 exiting successfully. Buy a developer a beer!
