                               Psi4 1.4a3.dev225

  ==> Input File <==

--------------------------------------------------------------------------
#psi4
#
memory 32 gb

molecule  {
0 1
  C        0.4325650     0.0000100    -0.0000020
  C       -0.8671790     0.8245630    -0.0000540
  C        0.5185540    -0.8790830     1.2499350
  C        1.6124760     0.9760580    -0.0001380
  C        0.5173603    -0.8678660    -1.2334152
  C       -2.1754120     0.0349770     0.0000010
  H       -0.8502370     1.4847800     0.8779110
  H       -0.8502460     1.4846590    -0.8781100
  H       -0.2707110    -1.6364310     1.2681610
  H        0.4320040    -0.2740170     2.1596200
  H        1.4805750    -1.4021870     1.2834330
  H        1.5875310     1.6192780    -0.8867600
  H        1.5875470     1.6195060     0.8863170
  H        2.5658350     0.4362190    -0.0000780
  H       -0.2707460    -1.6367490    -1.2677310
  H        1.4805270    -1.4024220    -1.2832170
  H        0.4318210    -0.2745040    -2.1595630
  H       -2.2660690    -0.6006200     0.8847210
  H       -3.0286490     0.7201330     0.0000090
  H       -2.2661130    -0.6006550    -0.8846890
units angstrom
no_reorient  #important for SAPT in psi4, default
symmetry c1  #important for SAPT in psi4, default
}

set PROPERTIES_ORIGIN ["COM"]
properties('MP2/aug-cc-pvtz', properties = ['dipole'])
--------------------------------------------------------------------------

    Molecular point group: c1
  Charge       = 0
  Multiplicity = 1
  Basis Set: AUG-CC-PVTZ
    Blend: AUG-CC-PVTZ
  Basis Set: (AUG-CC-PVTZ AUX)
    Blend: AUG-CC-PVTZ-JKFIT

    Orbital Energies [Eh]
    ---------------------

    Doubly Occupied:

       1A    -11.226293     2A    -11.213909     3A    -11.208872
       4A    -11.208004     5A    -11.207008     6A    -11.206927
       7A     -1.111709     8A     -0.996378     9A     -0.927062
      10A     -0.926455    11A     -0.848794    12A     -0.722432
      13A     -0.624388    14A     -0.622991    15A     -0.596590
      16A     -0.580852    17A     -0.549580    18A     -0.529289
      19A     -0.521979    20A     -0.506536    21A     -0.499197
      22A     -0.483758    23A     -0.451165    24A     -0.444522
      25A     -0.437852

  @DF-RHF Final Energy:  -235.44701375253081

   => Energetics <=

    Nuclear Repulsion Energy =            266.8229023290416535
    One-Electron Energy =                -845.2347504770359592
    Two-Electron Energy =                 342.9648343954635266
    Total Energy =                       -235.4470137525307791
  Basis Set: (AUG-CC-PVTZ AUX)
    Blend: AUG-CC-PVTZ-RI
    Molecular point group: c1

    Geometry (in Angstrom), charge = 0, multiplicity = 1:

       Center              X                  Y                   Z               Mass
    ------------   -----------------  -----------------  -----------------  -----------------
         C            0.429991689535    -0.006926221693    -0.002277540713    12.000000000000
         C           -0.869752310465     0.817626778307    -0.002329540713    12.000000000000
         C            0.515980689535    -0.886019221693     1.247659459287    12.000000000000
         C            1.609902689535     0.969121778307    -0.002413540713    12.000000000000
         C            0.514786989535    -0.874802221693    -1.235690740713    12.000000000000
         C           -2.177985310465     0.028040778307    -0.002274540713    12.000000000000
         H           -0.852810310465     1.477843778307     0.875635459287     1.007825032230
         H           -0.852819310465     1.477722778307    -0.880385540713     1.007825032230
         H           -0.273284310465    -1.643367221693     1.265885459287     1.007825032230
         H            0.429430689535    -0.280953221693     2.157344459287     1.007825032230
         H            1.478001689535    -1.409123221693     1.281157459287     1.007825032230
         H            1.584957689535     1.612341778307    -0.889035540713     1.007825032230
         H            1.584973689535     1.612569778307     0.884041459287     1.007825032230
         H            2.563261689535     0.429282778307    -0.002353540713     1.007825032230
         H           -0.273319310465    -1.643685221693    -1.270006540713     1.007825032230
         H            1.477953689535    -1.409358221693    -1.285492540713     1.007825032230
         H            0.429247689535    -0.281440221693    -2.161838540713     1.007825032230
         H           -2.268642310465    -0.607556221693     0.882445459287     1.007825032230
         H           -3.031222310465     0.713196778307    -0.002266540713     1.007825032230
         H           -2.268686310465    -0.607591221693    -0.886964540713     1.007825032230

  Basis Set: AUG-CC-PVTZ
    Blend: AUG-CC-PVTZ
  Basis Set: (AUG-CC-PVTZ AUX)
    Blend: AUG-CC-PVTZ-JKFIT
	 Reference Energy          =    -235.4470137525308076 [Eh]
	 Singles Energy            =      -0.0000000000000000 [Eh]
	 Same-Spin Energy          =      -0.2555719466747909 [Eh]
	 Opposite-Spin Energy      =      -0.9542566626555031 [Eh]
	 Correlation Energy        =      -1.2098286093302941 [Eh]
	 Total Energy              =    -236.6568423618610950 [Eh]

	 ================> DF-SCS-MP2 Energies <==================
	-----------------------------------------------------------
	 SCS Same-Spin Scale       =       0.3333333333333333 [-]
	 SCS Opposite-Spin Scale   =       1.2000000000000000 [-]
	 SCS Same-Spin Energy      =      -0.0851906488915970 [Eh]
	 SCS Opposite-Spin Energy  =      -1.1451079951866037 [Eh]
	 SCS Correlation Energy    =      -1.2302986440782007 [Eh]
	 SCS Total Energy          =    -236.6773123966090111 [Eh]
	-----------------------------------------------------------

  Dipole Moment: [D]
     X:    -0.0532      Y:     0.0306      Z:    -0.0006     Total:     0.0614

*** Psi4 exiting successfully. Buy a developer a beer!
