                               Psi4 1.3.2 release

  ==> Input File <==

--------------------------------------------------------------------------
#psi4
#
memory 32 gb

molecule  {
0 1
  C       -0.4325780     0.0000000    -0.0000100
  C        0.8671890     0.8245510    -0.0008470
  C       -0.5186390    -0.8803510    -1.2490450
  C       -1.6124710     0.9760830    -0.0007580
  C       -0.5183990    -0.8781140     1.2506300
  C        2.1754120     0.0349960    -0.0000500
  H        0.8533157     1.3638063    -0.7195634
  H        0.8502290     1.4855890     0.8765000
  H        0.2706380    -1.6377050    -1.2666100
  H       -0.4322060    -0.2762080    -2.1593560
  H       -1.4806460    -1.4035230    -1.2819340
  H       -1.5874350     1.6202330     0.8851840
  H       -1.5876340     1.6186070    -0.8878840
  H       -2.5658430     0.4362680    -0.0001590
  H        0.2708010    -1.6355150     1.2692820
  H       -1.4804630    -1.4011040     1.2847180
  H       -0.4316200    -0.2723440     2.1598230
  H        2.2659520    -0.6017660    -0.8839470
  H        3.0286720     0.7201300    -0.0010770
  H        2.2662480    -0.5994780     0.8854570
units angstrom
no_reorient  #important for SAPT in psi4, default
symmetry c1  #important for SAPT in psi4, default
}

set PROPERTIES_ORIGIN ["COM"]
properties('MP2/aug-cc-pvtz', properties = ['dipole'])
--------------------------------------------------------------------------

    Molecular point group: c1
  Charge       = 0
  Multiplicity = 1
  Basis Set: AUG-CC-PVTZ
    Blend: AUG-CC-PVTZ
  Basis Set: (AUG-CC-PVTZ AUX)
    Blend: AUG-CC-PVTZ-JKFIT

    Orbital Energies [Eh]
    ---------------------

    Doubly Occupied:

       1A    -11.225649     2A    -11.207199     3A    -11.207023
       4A    -11.206997     5A    -11.205246     6A    -11.188002
       7A     -1.113326     8A     -1.003796     9A     -0.927401
      10A     -0.926441    11A     -0.862118    12A     -0.731075
      13A     -0.637140    14A     -0.622687    15A     -0.595609
      16A     -0.581958    17A     -0.549699    18A     -0.529709
      19A     -0.523226    20A     -0.510588    21A     -0.504228
      22A     -0.489664    23A     -0.451148    24A     -0.444436
      25A     -0.436916

  @DF-RHF Final Energy:  -235.41519375914038

   => Energetics <=

    Nuclear Repulsion Energy =            267.5496179473877305
    One-Electron Energy =                -846.5670632319491915
    Two-Electron Energy =                 343.6022515254211385
    Total Energy =                       -235.4151937591403794
  Basis Set: (AUG-CC-PVTZ AUX)
    Blend: AUG-CC-PVTZ-RI
    Molecular point group: c1

    Geometry (in Angstrom), charge = 0, multiplicity = 1:

       Center              X                  Y                   Z               Mass
    ------------   -----------------  -----------------  -----------------  -----------------
         C           -0.429884393739    -0.003929973255    -0.001876564130    12.000000000000
         C            0.869882606261     0.820621026745    -0.002713564130    12.000000000000
         C           -0.515945393739    -0.884280973255    -1.250911564130    12.000000000000
         C           -1.609777393739     0.972153026745    -0.002624564130    12.000000000000
         C           -0.515705393739    -0.882043973255     1.248763435870    12.000000000000
         C            2.178105606261     0.031066026745    -0.001916564130    12.000000000000
         H            0.856009306261     1.359876326745    -0.721429964130     1.007825032230
         H            0.852922606261     1.481659026745     0.874633435870     1.007825032230
         H            0.273331606261    -1.641634973255    -1.268476564130     1.007825032230
         H           -0.429512393739    -0.280137973255    -2.161222564130     1.007825032230
         H           -1.477952393739    -1.407452973255    -1.283800564130     1.007825032230
         H           -1.584741393739     1.616303026745     0.883317435870     1.007825032230
         H           -1.584940393739     1.614677026745    -0.889750564130     1.007825032230
         H           -2.563149393739     0.432338026745    -0.002025564130     1.007825032230
         H            0.273494606261    -1.639444973255     1.267415435870     1.007825032230
         H           -1.477769393739    -1.405033973255     1.282851435870     1.007825032230
         H           -0.428926393739    -0.276273973255     2.157956435870     1.007825032230
         H            2.268645606261    -0.605695973255    -0.885813564130     1.007825032230
         H            3.031365606261     0.716200026745    -0.002943564130     1.007825032230
         H            2.268941606261    -0.603407973255     0.883590435870     1.007825032230

  Basis Set: AUG-CC-PVTZ
    Blend: AUG-CC-PVTZ
  Basis Set: (AUG-CC-PVTZ AUX)
    Blend: AUG-CC-PVTZ-JKFIT
	 Reference Energy          =    -235.4151937591403794 [Eh]
	 Singles Energy            =      -0.0000000000000000 [Eh]
	 Same-Spin Energy          =      -0.2553329753474259 [Eh]
	 Opposite-Spin Energy      =      -0.9532631640412582 [Eh]
	 Correlation Energy        =      -1.2085961393886842 [Eh]
	 Total Energy              =    -236.6237898985290542 [Eh]

	 ================> DF-SCS-MP2 Energies <==================
	-----------------------------------------------------------
	 SCS Same-Spin Scale       =       0.3333333333333333 [-]
	 SCS Opposite-Spin Scale   =       1.2000000000000000 [-]
	 SCS Same-Spin Energy      =      -0.0851109917824753 [Eh]
	 SCS Opposite-Spin Energy  =      -1.1439157968495097 [Eh]
	 SCS Correlation Energy    =      -1.2290267886319850 [Eh]
	 SCS Total Energy          =    -236.6442205477723633 [Eh]
	-----------------------------------------------------------

  Dipole Moment: [D]
     X:     0.0509      Y:     0.1258      Z:    -0.0870     Total:     0.1612

*** Psi4 exiting successfully. Buy a developer a beer!
