                               Psi4 1.3.2 release

  ==> Input File <==

--------------------------------------------------------------------------
#psi4
#
memory 32 gb

molecule  {
0 1
  C       -0.4570602    -0.0080393    -0.0070494
  C        0.8671890     0.8245510    -0.0008470
  C       -0.5186390    -0.8803510    -1.2490450
  C       -1.6124710     0.9760830    -0.0007580
  C       -0.5183990    -0.8781140     1.2506300
  C        2.1754120     0.0349960    -0.0000500
  H        0.8502280     1.4838230    -0.8795210
  H        0.8502290     1.4855890     0.8765000
  H        0.2706380    -1.6377050    -1.2666100
  H       -0.4322060    -0.2762080    -2.1593560
  H       -1.4806460    -1.4035230    -1.2819340
  H       -1.5874350     1.6202330     0.8851840
  H       -1.5876340     1.6186070    -0.8878840
  H       -2.5658430     0.4362680    -0.0001590
  H        0.2708010    -1.6355150     1.2692820
  H       -1.4804630    -1.4011040     1.2847180
  H       -0.4316200    -0.2723440     2.1598230
  H        2.2659520    -0.6017660    -0.8839470
  H        3.0286720     0.7201300    -0.0010770
  H        2.2662480    -0.5994780     0.8854570
units angstrom
no_reorient  #important for SAPT in psi4, default
symmetry c1  #important for SAPT in psi4, default
}

set PROPERTIES_ORIGIN ["COM"]
properties('MP2/aug-cc-pvtz', properties = ['dipole'])
--------------------------------------------------------------------------

    Molecular point group: c1
  Charge       = 0
  Multiplicity = 1
  Basis Set: AUG-CC-PVTZ
    Blend: AUG-CC-PVTZ
  Basis Set: (AUG-CC-PVTZ AUX)
    Blend: AUG-CC-PVTZ-JKFIT

    Orbital Energies [Eh]
    ---------------------

    Doubly Occupied:

       1A    -11.227217     2A    -11.214087     3A    -11.208608
       4A    -11.206953     5A    -11.206845     6A    -11.206716
       7A     -1.109228     8A     -0.996025     9A     -0.928820
      10A     -0.927521    11A     -0.845604    12A     -0.721799
      13A     -0.624573    14A     -0.621373    15A     -0.596914
      16A     -0.582075    17A     -0.549879    18A     -0.529024
      19A     -0.523395    20A     -0.508480    21A     -0.499853
      22A     -0.483484    23A     -0.451914    24A     -0.448968
      25A     -0.429609

  @DF-RHF Final Energy:  -235.44698464480430

   => Energetics <=

    Nuclear Repulsion Energy =            266.4330570168194754
    One-Electron Energy =                -844.4621586208992312
    Two-Electron Energy =                 342.5821169592754813
    Total Energy =                       -235.4469846448042745
  Basis Set: (AUG-CC-PVTZ AUX)
    Blend: AUG-CC-PVTZ-RI
    Molecular point group: c1

    Geometry (in Angstrom), charge = 0, multiplicity = 1:

       Center              X                  Y                   Z               Mass
    ------------   -----------------  -----------------  -----------------  -----------------
         C           -0.450918680473    -0.012253611455    -0.006062830278    12.000000000000
         C            0.873330519527     0.820336688545     0.000139569722    12.000000000000
         C           -0.512497480473    -0.884565311455    -1.248058430278    12.000000000000
         C           -1.606329480473     0.971868688545     0.000228569722    12.000000000000
         C           -0.512257480473    -0.882328311455     1.251616569722    12.000000000000
         C            2.181553519527     0.030781688545     0.000936569722    12.000000000000
         H            0.856369519527     1.479608688545    -0.878534430278     1.007825032230
         H            0.856370519527     1.481374688545     0.877486569722     1.007825032230
         H            0.276779519527    -1.641919311455    -1.265623430278     1.007825032230
         H           -0.426064480473    -0.280422311455    -2.158369430278     1.007825032230
         H           -1.474504480473    -1.407737311455    -1.280947430278     1.007825032230
         H           -1.581293480473     1.616018688545     0.886170569722     1.007825032230
         H           -1.581492480473     1.614392688545    -0.886897430278     1.007825032230
         H           -2.559701480473     0.432053688545     0.000827569722     1.007825032230
         H            0.276942519527    -1.639729311455     1.270268569722     1.007825032230
         H           -1.474321480473    -1.405318311455     1.285704569722     1.007825032230
         H           -0.425478480473    -0.276558311455     2.160809569722     1.007825032230
         H            2.272093519527    -0.605980311455    -0.882960430278     1.007825032230
         H            3.034813519527     0.715915688545    -0.000090430278     1.007825032230
         H            2.272389519527    -0.603692311455     0.886443569722     1.007825032230

  Basis Set: AUG-CC-PVTZ
    Blend: AUG-CC-PVTZ
  Basis Set: (AUG-CC-PVTZ AUX)
    Blend: AUG-CC-PVTZ-JKFIT
	 Reference Energy          =    -235.4469846448043029 [Eh]
	 Singles Energy            =      -0.0000000000000000 [Eh]
	 Same-Spin Energy          =      -0.2554338567136806 [Eh]
	 Opposite-Spin Energy      =      -0.9541087703318445 [Eh]
	 Correlation Energy        =      -1.2095426270455252 [Eh]
	 Total Energy              =    -236.6565272718498250 [Eh]

	 ================> DF-SCS-MP2 Energies <==================
	-----------------------------------------------------------
	 SCS Same-Spin Scale       =       0.3333333333333333 [-]
	 SCS Opposite-Spin Scale   =       1.2000000000000000 [-]
	 SCS Same-Spin Energy      =      -0.0851446189045602 [Eh]
	 SCS Opposite-Spin Energy  =      -1.1449305243982133 [Eh]
	 SCS Correlation Energy    =      -1.2300751433027735 [Eh]
	 SCS Total Energy          =    -236.6770597881070728 [Eh]
	-----------------------------------------------------------

  Dipole Moment: [D]
     X:     0.0438      Y:     0.0317      Z:    -0.0034     Total:     0.0542

*** Psi4 exiting successfully. Buy a developer a beer!
