                               Psi4 1.3.2 release

  ==> Input File <==

--------------------------------------------------------------------------
#psi4
#
memory 32 gb

molecule  {
0 1
  C       -0.3899462    -0.0281206    -0.0156879
  C        0.8671890     0.8245510    -0.0008470
  C       -0.5186390    -0.8803510    -1.2490450
  C       -1.6124710     0.9760830    -0.0007580
  C       -0.5183990    -0.8781140     1.2506300
  C        2.1754120     0.0349960    -0.0000500
  H        0.8502280     1.4838230    -0.8795210
  H        0.8502290     1.4855890     0.8765000
  H        0.2706380    -1.6377050    -1.2666100
  H       -0.4322060    -0.2762080    -2.1593560
  H       -1.4806460    -1.4035230    -1.2819340
  H       -1.5874350     1.6202330     0.8851840
  H       -1.5876340     1.6186070    -0.8878840
  H       -2.5658430     0.4362680    -0.0001590
  H        0.2708010    -1.6355150     1.2692820
  H       -1.4804630    -1.4011040     1.2847180
  H       -0.4316200    -0.2723440     2.1598230
  H        2.2659520    -0.6017660    -0.8839470
  H        3.0286720     0.7201300    -0.0010770
  H        2.2662480    -0.5994780     0.8854570
units angstrom
no_reorient  #important for SAPT in psi4, default
symmetry c1  #important for SAPT in psi4, default
}

set PROPERTIES_ORIGIN ["COM"]
properties('MP2/aug-cc-pvtz', properties = ['dipole'])
--------------------------------------------------------------------------

    Molecular point group: c1
  Charge       = 0
  Multiplicity = 1
  Basis Set: AUG-CC-PVTZ
    Blend: AUG-CC-PVTZ
  Basis Set: (AUG-CC-PVTZ AUX)
    Blend: AUG-CC-PVTZ-JKFIT

    Orbital Energies [Eh]
    ---------------------

    Doubly Occupied:

       1A    -11.227709     2A    -11.213789     3A    -11.208392
       4A    -11.207166     5A    -11.207148     6A    -11.206849
       7A     -1.110374     8A     -0.995679     9A     -0.929545
      10A     -0.922326    11A     -0.850284    12A     -0.722148
      13A     -0.624046    14A     -0.623201    15A     -0.596502
      16A     -0.578038    17A     -0.549751    18A     -0.530379
      19A     -0.525187    20A     -0.507480    21A     -0.498978
      22A     -0.486521    23A     -0.455099    24A     -0.445690
      25A     -0.427093

  @DF-RHF Final Energy:  -235.44494034456403

   => Energetics <=

    Nuclear Repulsion Energy =            266.6044088909344509
    One-Electron Energy =                -844.7999510675591637
    Two-Electron Energy =                 342.7506018320606813
    Total Energy =                       -235.4449403445640314
  Basis Set: (AUG-CC-PVTZ AUX)
    Blend: AUG-CC-PVTZ-RI
    Molecular point group: c1

    Geometry (in Angstrom), charge = 0, multiplicity = 1:

       Center              X                  Y                   Z               Mass
    ------------   -----------------  -----------------  -----------------  -----------------
         C           -0.393157510627    -0.029536434413    -0.013497491685    12.000000000000
         C            0.863977689373     0.823135165587     0.001343408315    12.000000000000
         C           -0.521850310627    -0.881766834413    -1.246854591685    12.000000000000
         C           -1.615682310627     0.974667165587     0.001432408315    12.000000000000
         C           -0.521610310627    -0.879529834413     1.252820408315    12.000000000000
         C            2.172200689373     0.033580165587     0.002140408315    12.000000000000
         H            0.847016689373     1.482407165587    -0.877330591685     1.007825032230
         H            0.847017689373     1.484173165587     0.878690408315     1.007825032230
         H            0.267426689373    -1.639120834413    -1.264419591685     1.007825032230
         H           -0.435417310627    -0.277623834413    -2.157165591685     1.007825032230
         H           -1.483857310627    -1.404938834413    -1.279743591685     1.007825032230
         H           -1.590646310627     1.618817165587     0.887374408315     1.007825032230
         H           -1.590845310627     1.617191165587    -0.885693591685     1.007825032230
         H           -2.569054310627     0.434852165587     0.002031408315     1.007825032230
         H            0.267589689373    -1.636930834413     1.271472408315     1.007825032230
         H           -1.483674310627    -1.402519834413     1.286908408315     1.007825032230
         H           -0.434831310627    -0.273759834413     2.162013408315     1.007825032230
         H            2.262740689373    -0.603181834413    -0.881756591685     1.007825032230
         H            3.025460689373     0.718714165587     0.001113408315     1.007825032230
         H            2.263036689373    -0.600893834413     0.887647408315     1.007825032230

  Basis Set: AUG-CC-PVTZ
    Blend: AUG-CC-PVTZ
  Basis Set: (AUG-CC-PVTZ AUX)
    Blend: AUG-CC-PVTZ-JKFIT
	 Reference Energy          =    -235.4449403445640314 [Eh]
	 Singles Energy            =      -0.0000000000000000 [Eh]
	 Same-Spin Energy          =      -0.2554977587272046 [Eh]
	 Opposite-Spin Energy      =      -0.9543269022650624 [Eh]
	 Correlation Energy        =      -1.2098246609922669 [Eh]
	 Total Energy              =    -236.6547650055562997 [Eh]

	 ================> DF-SCS-MP2 Energies <==================
	-----------------------------------------------------------
	 SCS Same-Spin Scale       =       0.3333333333333333 [-]
	 SCS Opposite-Spin Scale   =       1.2000000000000000 [-]
	 SCS Same-Spin Energy      =      -0.0851659195757349 [Eh]
	 SCS Opposite-Spin Energy  =      -1.1451922827180749 [Eh]
	 SCS Correlation Energy    =      -1.2303582022938098 [Eh]
	 SCS Total Energy          =    -236.6752985468578458 [Eh]
	-----------------------------------------------------------

  Dipole Moment: [D]
     X:     0.0706      Y:     0.0179      Z:    -0.0074     Total:     0.0732

*** Psi4 exiting successfully. Buy a developer a beer!
