                               Psi4 1.4a3.dev225

  ==> Input File <==

--------------------------------------------------------------------------
#psi4
#
memory 32 gb

molecule  {
0 1
  C        0.4325650     0.0000100    -0.0000020
  C       -0.8671790     0.8245630    -0.0000540
  C        0.5185540    -0.8790830     1.2499350
  C        1.6124760     0.9760580    -0.0001380
  C        0.5184830    -0.8793570    -1.2497460
  C       -2.1754120     0.0349770     0.0000010
  H       -0.8494660     1.5148272     0.9178681
  H       -0.8502460     1.4846590    -0.8781100
  H       -0.2707110    -1.6364310     1.2681610
  H        0.4320040    -0.2740170     2.1596200
  H        1.4805750    -1.4021870     1.2834330
  H        1.5875310     1.6192780    -0.8867600
  H        1.5875470     1.6195060     0.8863170
  H        2.5658350     0.4362190    -0.0000780
  H       -0.2707460    -1.6367490    -1.2677310
  H        1.4805270    -1.4024220    -1.2832170
  H        0.4318210    -0.2745040    -2.1595630
  H       -2.2660690    -0.6006200     0.8847210
  H       -3.0286490     0.7201330     0.0000090
  H       -2.2661130    -0.6006550    -0.8846890
units angstrom
no_reorient  #important for SAPT in psi4, default
symmetry c1  #important for SAPT in psi4, default
}

set PROPERTIES_ORIGIN ["COM"]
properties('MP2/aug-cc-pvtz', properties = ['dipole'])
--------------------------------------------------------------------------

    Molecular point group: c1
  Charge       = 0
  Multiplicity = 1
  Basis Set: AUG-CC-PVTZ
    Blend: AUG-CC-PVTZ
  Basis Set: (AUG-CC-PVTZ AUX)
    Blend: AUG-CC-PVTZ-JKFIT

    Orbital Energies [Eh]
    ---------------------

    Doubly Occupied:

       1A    -11.227853     2A    -11.220087     3A    -11.209497
       4A    -11.207509     5A    -11.206947     6A    -11.206844
       7A     -1.109184     8A     -0.995018     9A     -0.927230
      10A     -0.926549    11A     -0.846657    12A     -0.719897
      13A     -0.624119    14A     -0.619577    15A     -0.596629
      16A     -0.580511    17A     -0.550066    18A     -0.529776
      19A     -0.523823    20A     -0.507933    21A     -0.499209
      22A     -0.481593    23A     -0.446957    24A     -0.444579
      25A     -0.438222

  @DF-RHF Final Energy:  -235.44560389569969

   => Energetics <=

    Nuclear Repulsion Energy =            266.2717438415349420
    One-Electron Energy =                -844.1421644436245515
    Two-Electron Energy =                 342.4248167063898336
    Total Energy =                       -235.4456038956997190
  Basis Set: (AUG-CC-PVTZ AUX)
    Blend: AUG-CC-PVTZ-RI
    Molecular point group: c1

    Geometry (in Angstrom), charge = 0, multiplicity = 1:

       Center              X                  Y                   Z               Mass
    ------------   -----------------  -----------------  -----------------  -----------------
         C            0.429826209249    -0.005676538248    -0.000469380833    12.000000000000
         C           -0.869917790751     0.818876461752    -0.000521380833    12.000000000000
         C            0.515815209249    -0.884769538248     1.249467619167    12.000000000000
         C            1.609737209249     0.970371461752    -0.000605380833    12.000000000000
         C            0.515744209249    -0.885043538248    -1.250213380833    12.000000000000
         C           -2.178150790751     0.029290461752    -0.000466380833    12.000000000000
         H           -0.852204790751     1.509140661752     0.917400719167     1.007825032230
         H           -0.852984790751     1.478972461752    -0.878577380833     1.007825032230
         H           -0.273449790751    -1.642117538248     1.267693619167     1.007825032230
         H            0.429265209249    -0.279703538248     2.159152619167     1.007825032230
         H            1.477836209249    -1.407873538248     1.282965619167     1.007825032230
         H            1.584792209249     1.613591461752    -0.887227380833     1.007825032230
         H            1.584808209249     1.613819461752     0.885849619167     1.007825032230
         H            2.563096209249     0.430532461752    -0.000545380833     1.007825032230
         H           -0.273484790751    -1.642435538248    -1.268198380833     1.007825032230
         H            1.477788209249    -1.408108538248    -1.283684380833     1.007825032230
         H            0.429082209249    -0.280190538248    -2.160030380833     1.007825032230
         H           -2.268807790751    -0.606306538248     0.884253619167     1.007825032230
         H           -3.031387790751     0.714446461752    -0.000458380833     1.007825032230
         H           -2.268851790751    -0.606341538248    -0.885156380833     1.007825032230

  Basis Set: AUG-CC-PVTZ
    Blend: AUG-CC-PVTZ
  Basis Set: (AUG-CC-PVTZ AUX)
    Blend: AUG-CC-PVTZ-JKFIT
	 Reference Energy          =    -235.4456038956996906 [Eh]
	 Singles Energy            =      -0.0000000000000000 [Eh]
	 Same-Spin Energy          =      -0.2554243027758899 [Eh]
	 Opposite-Spin Energy      =      -0.9544527503680589 [Eh]
	 Correlation Energy        =      -1.2098770531439489 [Eh]
	 Total Energy              =    -236.6554809488436319 [Eh]

	 ================> DF-SCS-MP2 Energies <==================
	-----------------------------------------------------------
	 SCS Same-Spin Scale       =       0.3333333333333333 [-]
	 SCS Opposite-Spin Scale   =       1.2000000000000000 [-]
	 SCS Same-Spin Energy      =      -0.0851414342586300 [Eh]
	 SCS Opposite-Spin Energy  =      -1.1453433004416707 [Eh]
	 SCS Correlation Energy    =      -1.2304847347003005 [Eh]
	 SCS Total Energy          =    -236.6760886303999882 [Eh]
	-----------------------------------------------------------

  Dipole Moment: [D]
     X:    -0.0535      Y:    -0.0011      Z:    -0.0311     Total:     0.0619

*** Psi4 exiting successfully. Buy a developer a beer!
