                               Psi4 1.3.2 release

  ==> Input File <==

--------------------------------------------------------------------------
#psi4
#
memory 32 gb

molecule  {
0 1
  C       -0.4325780     0.0000000    -0.0000100
  C        0.8671890     0.8245510    -0.0008470
  C       -0.5186390    -0.8803510    -1.2490450
  C       -1.6124710     0.9760830    -0.0007580
  C       -0.5183990    -0.8781140     1.2506300
  C        2.1754120     0.0349960    -0.0000500
  H        0.8506241     1.4683927    -0.8908969
  H        0.8502290     1.4855890     0.8765000
  H        0.2706380    -1.6377050    -1.2666100
  H       -0.4322060    -0.2762080    -2.1593560
  H       -1.4806460    -1.4035230    -1.2819340
  H       -1.5874350     1.6202330     0.8851840
  H       -1.5876340     1.6186070    -0.8878840
  H       -2.5658430     0.4362680    -0.0001590
  H        0.2708010    -1.6355150     1.2692820
  H       -1.4804630    -1.4011040     1.2847180
  H       -0.4316200    -0.2723440     2.1598230
  H        2.2659520    -0.6017660    -0.8839470
  H        3.0286720     0.7201300    -0.0010770
  H        2.2662480    -0.5994780     0.8854570
units angstrom
no_reorient  #important for SAPT in psi4, default
symmetry c1  #important for SAPT in psi4, default
}

set PROPERTIES_ORIGIN ["COM"]
properties('MP2/aug-cc-pvtz', properties = ['dipole'])
--------------------------------------------------------------------------

    Molecular point group: c1
  Charge       = 0
  Multiplicity = 1
  Basis Set: AUG-CC-PVTZ
    Blend: AUG-CC-PVTZ
  Basis Set: (AUG-CC-PVTZ AUX)
    Blend: AUG-CC-PVTZ-JKFIT

    Orbital Energies [Eh]
    ---------------------

    Doubly Occupied:

       1A    -11.227190     2A    -11.213887     3A    -11.208778
       4A    -11.206978     5A    -11.206891     6A    -11.206856
       7A     -1.109597     8A     -0.996004     9A     -0.927031
      10A     -0.926596    11A     -0.848604    12A     -0.721168
      13A     -0.623783    14A     -0.623348    15A     -0.596366
      16A     -0.580921    17A     -0.549780    18A     -0.529535
      19A     -0.523676    20A     -0.508093    21A     -0.499258
      22A     -0.484696    23A     -0.448176    24A     -0.444649
      25A     -0.437742

  @DF-RHF Final Energy:  -235.44764939390240

   => Energetics <=

    Nuclear Repulsion Energy =            266.5135318193197236
    One-Electron Energy =                -844.6231569788727711
    Two-Electron Energy =                 342.6619757656506522
    Total Energy =                       -235.4476493939023953
  Basis Set: (AUG-CC-PVTZ AUX)
    Blend: AUG-CC-PVTZ-RI
    Molecular point group: c1

    Geometry (in Angstrom), charge = 0, multiplicity = 1:

       Center              X                  Y                   Z               Mass
    ------------   -----------------  -----------------  -----------------  -----------------
         C           -0.429852891289    -0.005154051089     0.000128720874    12.000000000000
         C            0.869914108711     0.819396948911    -0.000708279126    12.000000000000
         C           -0.515913891289    -0.885505051089    -1.248906279126    12.000000000000
         C           -1.609745891289     0.970928948911    -0.000619279126    12.000000000000
         C           -0.515673891289    -0.883268051089     1.250768720874    12.000000000000
         C            2.178137108711     0.029841948911     0.000088720874    12.000000000000
         H            0.853349208711     1.463238648911    -0.890758179126     1.007825032230
         H            0.852954108711     1.480434948911     0.876638720874     1.007825032230
         H            0.273363108711    -1.642859051089    -1.266471279126     1.007825032230
         H           -0.429480891289    -0.281362051089    -2.159217279126     1.007825032230
         H           -1.477920891289    -1.408677051089    -1.281795279126     1.007825032230
         H           -1.584709891289     1.615078948911     0.885322720874     1.007825032230
         H           -1.584908891289     1.613452948911    -0.887745279126     1.007825032230
         H           -2.563117891289     0.431113948911    -0.000020279126     1.007825032230
         H            0.273526108711    -1.640669051089     1.269420720874     1.007825032230
         H           -1.477737891289    -1.406258051089     1.284856720874     1.007825032230
         H           -0.428894891289    -0.277498051089     2.159961720874     1.007825032230
         H            2.268677108711    -0.606920051089    -0.883808279126     1.007825032230
         H            3.031397108711     0.714975948911    -0.000938279126     1.007825032230
         H            2.268973108711    -0.604632051089     0.885595720874     1.007825032230

  Basis Set: AUG-CC-PVTZ
    Blend: AUG-CC-PVTZ
  Basis Set: (AUG-CC-PVTZ AUX)
    Blend: AUG-CC-PVTZ-JKFIT
	 Reference Energy          =    -235.4476493939023953 [Eh]
	 Singles Energy            =      -0.0000000000000000 [Eh]
	 Same-Spin Energy          =      -0.2553983363393412 [Eh]
	 Opposite-Spin Energy      =      -0.9540877267089091 [Eh]
	 Correlation Energy        =      -1.2094860630482502 [Eh]
	 Total Energy              =    -236.6571354569506411 [Eh]

	 ================> DF-SCS-MP2 Energies <==================
	-----------------------------------------------------------
	 SCS Same-Spin Scale       =       0.3333333333333333 [-]
	 SCS Opposite-Spin Scale   =       1.2000000000000000 [-]
	 SCS Same-Spin Energy      =      -0.0851327787797804 [Eh]
	 SCS Opposite-Spin Energy  =      -1.1449052720506909 [Eh]
	 SCS Correlation Energy    =      -1.2300380508304714 [Eh]
	 SCS Total Energy          =    -236.6776874447328680 [Eh]
	-----------------------------------------------------------

  Dipole Moment: [D]
     X:     0.0524      Y:     0.0276      Z:    -0.0020     Total:     0.0593

*** Psi4 exiting successfully. Buy a developer a beer!
