                               Psi4 1.3.2 release

  ==> Input File <==

--------------------------------------------------------------------------
#psi4
#
memory 32 gb

molecule  {
0 1
  C       -0.4325780     0.0000000    -0.0000100
  C        0.8599849     0.8354457    -0.0243228
  C       -0.5186390    -0.8803510    -1.2490450
  C       -1.6124710     0.9760830    -0.0007580
  C       -0.5183990    -0.8781140     1.2506300
  C        2.1754120     0.0349960    -0.0000500
  H        0.8502280     1.4838230    -0.8795210
  H        0.8502290     1.4855890     0.8765000
  H        0.2706380    -1.6377050    -1.2666100
  H       -0.4322060    -0.2762080    -2.1593560
  H       -1.4806460    -1.4035230    -1.2819340
  H       -1.5874350     1.6202330     0.8851840
  H       -1.5876340     1.6186070    -0.8878840
  H       -2.5658430     0.4362680    -0.0001590
  H        0.2708010    -1.6355150     1.2692820
  H       -1.4804630    -1.4011040     1.2847180
  H       -0.4316200    -0.2723440     2.1598230
  H        2.2659520    -0.6017660    -0.8839470
  H        3.0286720     0.7201300    -0.0010770
  H        2.2662480    -0.5994780     0.8854570
units angstrom
no_reorient  #important for SAPT in psi4, default
symmetry c1  #important for SAPT in psi4, default
}

set PROPERTIES_ORIGIN ["COM"]
properties('MP2/aug-cc-pvtz', properties = ['dipole'])
--------------------------------------------------------------------------

    Molecular point group: c1
  Charge       = 0
  Multiplicity = 1
  Basis Set: AUG-CC-PVTZ
    Blend: AUG-CC-PVTZ
  Basis Set: (AUG-CC-PVTZ AUX)
    Blend: AUG-CC-PVTZ-JKFIT

    Orbital Energies [Eh]
    ---------------------

    Doubly Occupied:

       1A    -11.227230     2A    -11.213369     3A    -11.209127
       4A    -11.207359     5A    -11.206729     6A    -11.206627
       7A     -1.109275     8A     -0.994058     9A     -0.927127
      10A     -0.926638    11A     -0.849465    12A     -0.722236
      13A     -0.624828    14A     -0.622101    15A     -0.595928
      16A     -0.580448    17A     -0.549017    18A     -0.529460
      19A     -0.523608    20A     -0.508200    21A     -0.499091
      22A     -0.485218    23A     -0.450059    24A     -0.443204
      25A     -0.437511

  @DF-RHF Final Energy:  -235.44705187023359

   => Energetics <=

    Nuclear Repulsion Energy =            266.4201359179684232
    One-Electron Energy =                -844.4385534699260916
    Two-Electron Energy =                 342.5713656817241031
    Total Energy =                       -235.4470518702335653
  Basis Set: (AUG-CC-PVTZ AUX)
    Blend: AUG-CC-PVTZ-RI
    Molecular point group: c1

    Geometry (in Angstrom), charge = 0, multiplicity = 1:

       Center              X                  Y                   Z               Mass
    ------------   -----------------  -----------------  -----------------  -----------------
         C           -0.428844310951    -0.006852903792     0.003267103107    12.000000000000
         C            0.863718589049     0.828592796208    -0.021045696893    12.000000000000
         C           -0.514905310951    -0.887203903792    -1.245767896893    12.000000000000
         C           -1.608737310951     0.969230096208     0.002519103107    12.000000000000
         C           -0.514665310951    -0.884966903792     1.253907103107    12.000000000000
         C            2.179145689049     0.028143096208     0.003227103107    12.000000000000
         H            0.853961689049     1.476970096208    -0.876243896893     1.007825032230
         H            0.853962689049     1.478736096208     0.879777103107     1.007825032230
         H            0.274371689049    -1.644557903792    -1.263332896893     1.007825032230
         H           -0.428472310951    -0.283060903792    -2.156078896893     1.007825032230
         H           -1.476912310951    -1.410375903792    -1.278656896893     1.007825032230
         H           -1.583701310951     1.613380096208     0.888461103107     1.007825032230
         H           -1.583900310951     1.611754096208    -0.884606896893     1.007825032230
         H           -2.562109310951     0.429415096208     0.003118103107     1.007825032230
         H            0.274534689049    -1.642367903792     1.272559103107     1.007825032230
         H           -1.476729310951    -1.407956903792     1.287995103107     1.007825032230
         H           -0.427886310951    -0.279196903792     2.163100103107     1.007825032230
         H            2.269685689049    -0.608618903792    -0.880669896893     1.007825032230
         H            3.032405689049     0.713277096208     0.002200103107     1.007825032230
         H            2.269981689049    -0.606330903792     0.888734103107     1.007825032230

  Basis Set: AUG-CC-PVTZ
    Blend: AUG-CC-PVTZ
  Basis Set: (AUG-CC-PVTZ AUX)
    Blend: AUG-CC-PVTZ-JKFIT
	 Reference Energy          =    -235.4470518702335937 [Eh]
	 Singles Energy            =      -0.0000000000000000 [Eh]
	 Same-Spin Energy          =      -0.2553245475187098 [Eh]
	 Opposite-Spin Energy      =      -0.9540298350234819 [Eh]
	 Correlation Energy        =      -1.2093543825421917 [Eh]
	 Total Energy              =    -236.6564062527757812 [Eh]

	 ================> DF-SCS-MP2 Energies <==================
	-----------------------------------------------------------
	 SCS Same-Spin Scale       =       0.3333333333333333 [-]
	 SCS Opposite-Spin Scale   =       1.2000000000000000 [-]
	 SCS Same-Spin Energy      =      -0.0851081825062366 [Eh]
	 SCS Opposite-Spin Energy  =      -1.1448358020281784 [Eh]
	 SCS Correlation Energy    =      -1.2299439845344149 [Eh]
	 SCS Total Energy          =    -236.6769958547679948 [Eh]
	-----------------------------------------------------------

  Dipole Moment: [D]
     X:     0.0491      Y:     0.0346      Z:    -0.0090     Total:     0.0607

*** Psi4 exiting successfully. Buy a developer a beer!
