                               Psi4 1.3.2 release

  ==> Input File <==

--------------------------------------------------------------------------
#psi4
#
memory 32 gb

molecule  {
0 1
  C       -0.4325780     0.0000000    -0.0000100
  C        0.8671890     0.8245510    -0.0008470
  C       -0.5269048    -0.9649216    -1.1842995
  C       -1.6124710     0.9760830    -0.0007580
  C       -0.5183990    -0.8781140     1.2506300
  C        2.1754120     0.0349960    -0.0000500
  H        0.8502280     1.4838230    -0.8795210
  H        0.8502290     1.4855890     0.8765000
  H        0.2706380    -1.6377050    -1.2666100
  H       -0.4322060    -0.2762080    -2.1593560
  H       -1.4806460    -1.4035230    -1.2819340
  H       -1.5874350     1.6202330     0.8851840
  H       -1.5876340     1.6186070    -0.8878840
  H       -2.5658430     0.4362680    -0.0001590
  H        0.2708010    -1.6355150     1.2692820
  H       -1.4804630    -1.4011040     1.2847180
  H       -0.4316200    -0.2723440     2.1598230
  H        2.2659520    -0.6017660    -0.8839470
  H        3.0286720     0.7201300    -0.0010770
  H        2.2662480    -0.5994780     0.8854570
units angstrom
no_reorient  #important for SAPT in psi4, default
symmetry c1  #important for SAPT in psi4, default
}

set PROPERTIES_ORIGIN ["COM"]
properties('MP2/aug-cc-pvtz', properties = ['dipole'])
--------------------------------------------------------------------------

    Molecular point group: c1
  Charge       = 0
  Multiplicity = 1
  Basis Set: AUG-CC-PVTZ
    Blend: AUG-CC-PVTZ
  Basis Set: (AUG-CC-PVTZ AUX)
    Blend: AUG-CC-PVTZ-JKFIT

    Orbital Energies [Eh]
    ---------------------

    Doubly Occupied:

       1A    -11.228174     2A    -11.214945     3A    -11.209706
       4A    -11.209016     5A    -11.208038     6A    -11.205604
       7A     -1.110140     8A     -0.997197     9A     -0.930520
      10A     -0.923816    11A     -0.849740    12A     -0.722857
      13A     -0.631339    14A     -0.623475    15A     -0.590460
      16A     -0.582962    17A     -0.550454    18A     -0.535246
      19A     -0.526836    20A     -0.505595    21A     -0.501485
      22A     -0.475945    23A     -0.451846    24A     -0.442516
      25A     -0.433057

  @DF-RHF Final Energy:  -235.43658593792986

   => Energetics <=

    Nuclear Repulsion Energy =            266.5052400736730078
    One-Electron Energy =                -844.5617125296369068
    Two-Electron Energy =                 342.6198865180340363
    Total Energy =                       -235.4365859379298627
  Basis Set: (AUG-CC-PVTZ AUX)
    Blend: AUG-CC-PVTZ-RI
    Molecular point group: c1

    Geometry (in Angstrom), charge = 0, multiplicity = 1:

       Center              X                  Y                   Z               Mass
    ------------   -----------------  -----------------  -----------------  -----------------
         C           -0.428696355237     0.006450888807    -0.009027184745    12.000000000000
         C            0.871070644763     0.831001888807    -0.009864184745    12.000000000000
         C           -0.523023155237    -0.958470711193    -1.193316684745    12.000000000000
         C           -1.608589355237     0.982533888807    -0.009775184745    12.000000000000
         C           -0.514517355237    -0.871663111193     1.241612815255    12.000000000000
         C            2.179293644763     0.041446888807    -0.009067184745    12.000000000000
         H            0.854109644763     1.490273888807    -0.888538184745     1.007825032230
         H            0.854110644763     1.492039888807     0.867482815255     1.007825032230
         H            0.274519644763    -1.631254111193    -1.275627184745     1.007825032230
         H           -0.428324355237    -0.269757111193    -2.168373184745     1.007825032230
         H           -1.476764355237    -1.397072111193    -1.290951184745     1.007825032230
         H           -1.583553355237     1.626683888807     0.876166815255     1.007825032230
         H           -1.583752355237     1.625057888807    -0.896901184745     1.007825032230
         H           -2.561961355237     0.442718888807    -0.009176184745     1.007825032230
         H            0.274682644763    -1.629064111193     1.260264815255     1.007825032230
         H           -1.476581355237    -1.394653111193     1.275700815255     1.007825032230
         H           -0.427738355237    -0.265893111193     2.150805815255     1.007825032230
         H            2.269833644763    -0.595315111193    -0.892964184745     1.007825032230
         H            3.032553644763     0.726580888807    -0.010094184745     1.007825032230
         H            2.270129644763    -0.593027111193     0.876439815255     1.007825032230

  Basis Set: AUG-CC-PVTZ
    Blend: AUG-CC-PVTZ
  Basis Set: (AUG-CC-PVTZ AUX)
    Blend: AUG-CC-PVTZ-JKFIT
	 Reference Energy          =    -235.4365859379298627 [Eh]
	 Singles Energy            =      -0.0000000000000000 [Eh]
	 Same-Spin Energy          =      -0.2555557762061802 [Eh]
	 Opposite-Spin Energy      =      -0.9546005798833461 [Eh]
	 Correlation Energy        =      -1.2101563560895263 [Eh]
	 Total Energy              =    -236.6467422940193899 [Eh]

	 ================> DF-SCS-MP2 Energies <==================
	-----------------------------------------------------------
	 SCS Same-Spin Scale       =       0.3333333333333333 [-]
	 SCS Opposite-Spin Scale   =       1.2000000000000000 [-]
	 SCS Same-Spin Energy      =      -0.0851852587353934 [Eh]
	 SCS Opposite-Spin Energy  =      -1.1455206958600153 [Eh]
	 SCS Correlation Energy    =      -1.2307059545954087 [Eh]
	 SCS Total Energy          =    -236.6672918925252702 [Eh]
	-----------------------------------------------------------

  Dipole Moment: [D]
     X:     0.0533      Y:     0.0159      Z:     0.0476     Total:     0.0732

*** Psi4 exiting successfully. Buy a developer a beer!
