                               Psi4 1.3.2 release

  ==> Input File <==

--------------------------------------------------------------------------
#psi4
#
memory 32 gb

molecule  {
0 1
  C       -0.4325780     0.0000000    -0.0000100
  C        0.8671890     0.8245510    -0.0008470
  C       -0.5186390    -0.8803510    -1.2490450
  C       -1.6124710     0.9760830    -0.0007580
  C       -0.5183990    -0.8781140     1.2506300
  C        2.3466431    -0.0683475     0.0000543
  H        0.8502280     1.4838230    -0.8795210
  H        0.8502290     1.4855890     0.8765000
  H        0.2706380    -1.6377050    -1.2666100
  H       -0.4322060    -0.2762080    -2.1593560
  H       -1.4806460    -1.4035230    -1.2819340
  H       -1.5874350     1.6202330     0.8851840
  H       -1.5876340     1.6186070    -0.8878840
  H       -2.5658430     0.4362680    -0.0001590
  H        0.2708010    -1.6355150     1.2692820
  H       -1.4804630    -1.4011040     1.2847180
  H       -0.4316200    -0.2723440     2.1598230
  H        2.2659520    -0.6017660    -0.8839470
  H        3.0286720     0.7201300    -0.0010770
  H        2.2662480    -0.5994780     0.8854570
units angstrom
no_reorient  #important for SAPT in psi4, default
symmetry c1  #important for SAPT in psi4, default
}

set PROPERTIES_ORIGIN ["COM"]
properties('MP2/aug-cc-pvtz', properties = ['dipole'])
--------------------------------------------------------------------------

    Molecular point group: c1
  Charge       = 0
  Multiplicity = 1
  Basis Set: AUG-CC-PVTZ
    Blend: AUG-CC-PVTZ
  Basis Set: (AUG-CC-PVTZ AUX)
    Blend: AUG-CC-PVTZ-JKFIT

    Orbital Energies [Eh]
    ---------------------

    Doubly Occupied:

       1A    -11.227616     2A    -11.221024     3A    -11.207239
       4A    -11.207221     5A    -11.207059     6A    -11.205324
       7A     -1.104062     8A     -0.977998     9A     -0.927027
      10A     -0.926664    11A     -0.861332    12A     -0.719159
      13A     -0.623663    14A     -0.620874    15A     -0.591612
      16A     -0.591003    17A     -0.561904    18A     -0.536364
      19A     -0.532119    20A     -0.507965    21A     -0.498606
      22A     -0.476502    23A     -0.449893    24A     -0.444939
      25A     -0.410471

  @DF-RHF Final Energy:  -235.42103288231723

   => Energetics <=

    Nuclear Repulsion Energy =            263.9051691129942583
    One-Electron Energy =                -839.3771220194952321
    Two-Electron Energy =                 340.0509200241837675
    Total Energy =                       -235.4210328823172063
  Basis Set: (AUG-CC-PVTZ AUX)
    Blend: AUG-CC-PVTZ-RI
    Molecular point group: c1

    Geometry (in Angstrom), charge = 0, multiplicity = 1:

       Center              X                  Y                   Z               Mass
    ------------   -----------------  -----------------  -----------------  -----------------
         C           -0.453710570138     0.009067030673    -0.000018957482    12.000000000000
         C            0.846056429862     0.833618030673    -0.000855957482    12.000000000000
         C           -0.539771570138    -0.871283969327    -1.249053957482    12.000000000000
         C           -1.633603570138     0.985150030673    -0.000766957482    12.000000000000
         C           -0.539531570138    -0.869046969327     1.250621042518    12.000000000000
         C            2.325510529862    -0.059280469327     0.000045342518    12.000000000000
         H            0.829095429862     1.492890030673    -0.879529957482     1.007825032230
         H            0.829096429862     1.494656030673     0.876491042518     1.007825032230
         H            0.249505429862    -1.628637969327    -1.266618957482     1.007825032230
         H           -0.453338570138    -0.267140969327    -2.159364957482     1.007825032230
         H           -1.501778570138    -1.394455969327    -1.281942957482     1.007825032230
         H           -1.608567570138     1.629300030673     0.885175042518     1.007825032230
         H           -1.608766570138     1.627674030673    -0.887892957482     1.007825032230
         H           -2.586975570138     0.445335030673    -0.000167957482     1.007825032230
         H            0.249668429862    -1.626447969327     1.269273042518     1.007825032230
         H           -1.501595570138    -1.392036969327     1.284709042518     1.007825032230
         H           -0.452752570138    -0.263276969327     2.159814042518     1.007825032230
         H            2.244819429862    -0.592698969327    -0.883955957482     1.007825032230
         H            3.007539429862     0.729197030673    -0.001085957482     1.007825032230
         H            2.245115429862    -0.590410969327     0.885448042518     1.007825032230

  Basis Set: AUG-CC-PVTZ
    Blend: AUG-CC-PVTZ
  Basis Set: (AUG-CC-PVTZ AUX)
    Blend: AUG-CC-PVTZ-JKFIT
	 Reference Energy          =    -235.4210328823172347 [Eh]
	 Singles Energy            =      -0.0000000000000000 [Eh]
	 Same-Spin Energy          =      -0.2553448881334829 [Eh]
	 Opposite-Spin Energy      =      -0.9553594255333602 [Eh]
	 Correlation Energy        =      -1.2107043136668429 [Eh]
	 Total Energy              =    -236.6317371959840727 [Eh]

	 ================> DF-SCS-MP2 Energies <==================
	-----------------------------------------------------------
	 SCS Same-Spin Scale       =       0.3333333333333333 [-]
	 SCS Opposite-Spin Scale   =       1.2000000000000000 [-]
	 SCS Same-Spin Energy      =      -0.0851149627111610 [Eh]
	 SCS Opposite-Spin Energy  =      -1.1464313106400321 [Eh]
	 SCS Correlation Energy    =      -1.2315462733511930 [Eh]
	 SCS Total Energy          =    -236.6525791556684339 [Eh]
	-----------------------------------------------------------

  Dipole Moment: [D]
     X:    -0.0526      Y:     0.0670      Z:    -0.0001     Total:     0.0851

*** Psi4 exiting successfully. Buy a developer a beer!
