                               Psi4 1.3.2 release

  ==> Input File <==

--------------------------------------------------------------------------
#psi4
#
memory 32 gb

molecule  {
0 1
  C       -0.4325780     0.0000000    -0.0000100
  C        0.8671890     0.8245510    -0.0008470
  C       -0.5186390    -0.8803510    -1.2490450
  C       -1.6124710     0.9760830    -0.0007580
  C       -0.5127918    -0.8207411     1.1689176
  C        2.1754120     0.0349960    -0.0000500
  H        0.8502280     1.4838230    -0.8795210
  H        0.8502290     1.4855890     0.8765000
  H        0.2706380    -1.6377050    -1.2666100
  H       -0.4322060    -0.2762080    -2.1593560
  H       -1.4806460    -1.4035230    -1.2819340
  H       -1.5874350     1.6202330     0.8851840
  H       -1.5876340     1.6186070    -0.8878840
  H       -2.5658430     0.4362680    -0.0001590
  H        0.2708010    -1.6355150     1.2692820
  H       -1.4804630    -1.4011040     1.2847180
  H       -0.4316200    -0.2723440     2.1598230
  H        2.2659520    -0.6017660    -0.8839470
  H        3.0286720     0.7201300    -0.0010770
  H        2.2662480    -0.5994780     0.8854570
units angstrom
no_reorient  #important for SAPT in psi4, default
symmetry c1  #important for SAPT in psi4, default
}

set PROPERTIES_ORIGIN ["COM"]
properties('MP2/aug-cc-pvtz', properties = ['dipole'])
--------------------------------------------------------------------------

    Molecular point group: c1
  Charge       = 0
  Multiplicity = 1
  Basis Set: AUG-CC-PVTZ
    Blend: AUG-CC-PVTZ
  Basis Set: (AUG-CC-PVTZ AUX)
    Blend: AUG-CC-PVTZ-JKFIT

    Orbital Energies [Eh]
    ---------------------

    Doubly Occupied:

       1A    -11.222072     2A    -11.214485     3A    -11.213237
       4A    -11.208915     5A    -11.207597     6A    -11.207484
       7A     -1.122276     8A     -0.998384     9A     -0.928458
      10A     -0.925611    11A     -0.849055    12A     -0.726344
      13A     -0.627045    14A     -0.625022    15A     -0.598524
      16A     -0.581623    17A     -0.548894    18A     -0.529600
      19A     -0.516753    20A     -0.503847    21A     -0.493949
      22A     -0.481854    23A     -0.463865    24A     -0.439919
      25A     -0.434170

  @DF-RHF Final Energy:  -235.43567836228436

   => Energetics <=

    Nuclear Repulsion Energy =            268.1695156415635779
    One-Electron Energy =                -847.8724186004470766
    Two-Electron Energy =                 344.2672245965990783
    Total Energy =                       -235.4356783622843636
  Basis Set: (AUG-CC-PVTZ AUX)
    Blend: AUG-CC-PVTZ-RI
    Molecular point group: c1

    Geometry (in Angstrom), charge = 0, multiplicity = 1:

       Center              X                  Y                   Z               Mass
    ------------   -----------------  -----------------  -----------------  -----------------
         C           -0.430629659953    -0.013329983246     0.011382802194    12.000000000000
         C            0.869137340047     0.811221016754     0.010545802194    12.000000000000
         C           -0.516690659953    -0.893680983246    -1.237652197806    12.000000000000
         C           -1.610522659953     0.962753016754     0.010634802194    12.000000000000
         C           -0.510843459953    -0.834071083246     1.180310402194    12.000000000000
         C            2.177360340047     0.021666016754     0.011342802194    12.000000000000
         H            0.852176340047     1.470493016754    -0.868128197806     1.007825032230
         H            0.852177340047     1.472259016754     0.887892802194     1.007825032230
         H            0.272586340047    -1.651034983246    -1.255217197806     1.007825032230
         H           -0.430257659953    -0.289537983246    -2.147963197806     1.007825032230
         H           -1.478697659953    -1.416852983246    -1.270541197806     1.007825032230
         H           -1.585486659953     1.606903016754     0.896576802194     1.007825032230
         H           -1.585685659953     1.605277016754    -0.876491197806     1.007825032230
         H           -2.563894659953     0.422938016754     0.011233802194     1.007825032230
         H            0.272749340047    -1.648844983246     1.280674802194     1.007825032230
         H           -1.478514659953    -1.414433983246     1.296110802194     1.007825032230
         H           -0.429671659953    -0.285673983246     2.171215802194     1.007825032230
         H            2.267900340047    -0.615095983246    -0.872554197806     1.007825032230
         H            3.030620340047     0.706800016754     0.010315802194     1.007825032230
         H            2.268196340047    -0.612807983246     0.896849802194     1.007825032230

  Basis Set: AUG-CC-PVTZ
    Blend: AUG-CC-PVTZ
  Basis Set: (AUG-CC-PVTZ AUX)
    Blend: AUG-CC-PVTZ-JKFIT
	 Reference Energy          =    -235.4356783622843636 [Eh]
	 Singles Energy            =      -0.0000000000000000 [Eh]
	 Same-Spin Energy          =      -0.2566589962564314 [Eh]
	 Opposite-Spin Energy      =      -0.9556254628143369 [Eh]
	 Correlation Energy        =      -1.2122844590707684 [Eh]
	 Total Energy              =    -236.6479628213551223 [Eh]

	 ================> DF-SCS-MP2 Energies <==================
	-----------------------------------------------------------
	 SCS Same-Spin Scale       =       0.3333333333333333 [-]
	 SCS Opposite-Spin Scale   =       1.2000000000000000 [-]
	 SCS Same-Spin Energy      =      -0.0855529987521438 [Eh]
	 SCS Opposite-Spin Energy  =      -1.1467505553772042 [Eh]
	 SCS Correlation Energy    =      -1.2323035541293479 [Eh]
	 SCS Total Energy          =    -236.6679819164137086 [Eh]
	-----------------------------------------------------------

  Dipole Moment: [D]
     X:     0.0551      Y:     0.0380      Z:    -0.0146     Total:     0.0685

*** Psi4 exiting successfully. Buy a developer a beer!
