                               Psi4 1.4a3.dev225

  ==> Input File <==

--------------------------------------------------------------------------
#psi4
#
memory 32 gb

molecule  {
0 1
  C        0.4325650     0.0000100    -0.0000020
  C       -0.8671790     0.8245630    -0.0000540
  C        0.5185540    -0.8790830     1.2499350
  C        1.6124760     0.9760580    -0.0001380
  C        0.5184830    -0.8793570    -1.2497460
  C       -2.2182194     0.0091405     0.0000028
  H       -0.8502370     1.4847800     0.8779110
  H       -0.8502460     1.4846590    -0.8781100
  H       -0.2707110    -1.6364310     1.2681610
  H        0.4320040    -0.2740170     2.1596200
  H        1.4805750    -1.4021870     1.2834330
  H        1.5875310     1.6192780    -0.8867600
  H        1.5875470     1.6195060     0.8863170
  H        2.5658350     0.4362190    -0.0000780
  H       -0.2707460    -1.6367490    -1.2677310
  H        1.4805270    -1.4024220    -1.2832170
  H        0.4318210    -0.2745040    -2.1595630
  H       -2.2660690    -0.6006200     0.8847210
  H       -3.0286490     0.7201330     0.0000090
  H       -2.2661130    -0.6006550    -0.8846890
units angstrom
no_reorient  #important for SAPT in psi4, default
symmetry c1  #important for SAPT in psi4, default
}

set PROPERTIES_ORIGIN ["COM"]
properties('MP2/aug-cc-pvtz', properties = ['dipole'])
--------------------------------------------------------------------------

    Molecular point group: c1
  Charge       = 0
  Multiplicity = 1
  Basis Set: AUG-CC-PVTZ
    Blend: AUG-CC-PVTZ
  Basis Set: (AUG-CC-PVTZ AUX)
    Blend: AUG-CC-PVTZ-JKFIT

    Orbital Energies [Eh]
    ---------------------

    Doubly Occupied:

       1A    -11.227208     2A    -11.215798     3A    -11.206971
       4A    -11.206953     5A    -11.206820     6A    -11.206797
       7A     -1.107557     8A     -0.990213     9A     -0.926947
      10A     -0.926559    11A     -0.852442    12A     -0.720672
      13A     -0.623561    14A     -0.621513    15A     -0.594450
      16A     -0.582735    17A     -0.549327    18A     -0.534029
      19A     -0.525374    20A     -0.507929    21A     -0.492327
      22A     -0.489408    23A     -0.448671    24A     -0.442264
      25A     -0.437519

  @DF-RHF Final Energy:  -235.44604134843118

   => Energetics <=

    Nuclear Repulsion Energy =            265.8273057290028305
    One-Electron Energy =                -843.2586052086178370
    Two-Electron Energy =                 341.9852581311839117
    Total Energy =                       -235.4460413484311516
  Basis Set: (AUG-CC-PVTZ AUX)
    Blend: AUG-CC-PVTZ-RI
    Molecular point group: c1

    Geometry (in Angstrom), charge = 0, multiplicity = 1:

       Center              X                  Y                   Z               Mass
    ------------   -----------------  -----------------  -----------------  -----------------
         C            0.435800759463    -0.001724359674    -0.000001974309    12.000000000000
         C           -0.863943240537     0.822828640326    -0.000053974309    12.000000000000
         C            0.521789759463    -0.880817359674     1.249935025691    12.000000000000
         C            1.615711759463     0.974323640326    -0.000137974309    12.000000000000
         C            0.521718759463    -0.881091359674    -1.249745974309    12.000000000000
         C           -2.214983640537     0.007406140326     0.000002825691    12.000000000000
         H           -0.847001240537     1.483045640326     0.877911025691     1.007825032230
         H           -0.847010240537     1.482924640326    -0.878109974309     1.007825032230
         H           -0.267475240537    -1.638165359674     1.268161025691     1.007825032230
         H            0.435239759463    -0.275751359674     2.159620025691     1.007825032230
         H            1.483810759463    -1.403921359674     1.283433025691     1.007825032230
         H            1.590766759463     1.617543640326    -0.886759974309     1.007825032230
         H            1.590782759463     1.617771640326     0.886317025691     1.007825032230
         H            2.569070759463     0.434484640326    -0.000077974309     1.007825032230
         H           -0.267510240537    -1.638483359674    -1.267730974309     1.007825032230
         H            1.483762759463    -1.404156359674    -1.283216974309     1.007825032230
         H            0.435056759463    -0.276238359674    -2.159562974309     1.007825032230
         H           -2.262833240537    -0.602354359674     0.884721025691     1.007825032230
         H           -3.025413240537     0.718398640326     0.000009025691     1.007825032230
         H           -2.262877240537    -0.602389359674    -0.884688974309     1.007825032230

  Basis Set: AUG-CC-PVTZ
    Blend: AUG-CC-PVTZ
  Basis Set: (AUG-CC-PVTZ AUX)
    Blend: AUG-CC-PVTZ-JKFIT
	 Reference Energy          =    -235.4460413484311800 [Eh]
	 Singles Energy            =      -0.0000000000000000 [Eh]
	 Same-Spin Energy          =      -0.2551403497737362 [Eh]
	 Opposite-Spin Energy      =      -0.9539474486465094 [Eh]
	 Correlation Energy        =      -1.2090877984202457 [Eh]
	 Total Energy              =    -236.6551291468514364 [Eh]

	 ================> DF-SCS-MP2 Energies <==================
	-----------------------------------------------------------
	 SCS Same-Spin Scale       =       0.3333333333333333 [-]
	 SCS Opposite-Spin Scale   =       1.2000000000000000 [-]
	 SCS Same-Spin Energy      =      -0.0850467832579121 [Eh]
	 SCS Opposite-Spin Energy  =      -1.1447369383758113 [Eh]
	 SCS Correlation Energy    =      -1.2297837216337233 [Eh]
	 SCS Total Energy          =    -236.6758250700649171 [Eh]
	-----------------------------------------------------------

  Dipole Moment: [D]
     X:    -0.0410      Y:     0.0343      Z:    -0.0000     Total:     0.0535

*** Psi4 exiting successfully. Buy a developer a beer!
