                               Psi4 1.3.2 release

  ==> Input File <==

--------------------------------------------------------------------------
#psi4
#
memory 32 gb

molecule  {
0 1
  C       -0.4325780     0.0000000    -0.0000100
  C        0.8523870     0.8460859    -0.0477911
  C       -0.5186390    -0.8803510    -1.2490450
  C       -1.6124710     0.9760830    -0.0007580
  C       -0.5183990    -0.8781140     1.2506300
  C        2.1754120     0.0349960    -0.0000500
  H        0.8502280     1.4838230    -0.8795210
  H        0.8502290     1.4855890     0.8765000
  H        0.2706380    -1.6377050    -1.2666100
  H       -0.4322060    -0.2762080    -2.1593560
  H       -1.4806460    -1.4035230    -1.2819340
  H       -1.5874350     1.6202330     0.8851840
  H       -1.5876340     1.6186070    -0.8878840
  H       -2.5658430     0.4362680    -0.0001590
  H        0.2708010    -1.6355150     1.2692820
  H       -1.4804630    -1.4011040     1.2847180
  H       -0.4316200    -0.2723440     2.1598230
  H        2.2659520    -0.6017660    -0.8839470
  H        3.0286720     0.7201300    -0.0010770
  H        2.2662480    -0.5994780     0.8854570
units angstrom
no_reorient  #important for SAPT in psi4, default
symmetry c1  #important for SAPT in psi4, default
}

set PROPERTIES_ORIGIN ["COM"]
properties('MP2/aug-cc-pvtz', properties = ['dipole'])
--------------------------------------------------------------------------

    Molecular point group: c1
  Charge       = 0
  Multiplicity = 1
  Basis Set: AUG-CC-PVTZ
    Blend: AUG-CC-PVTZ
  Basis Set: (AUG-CC-PVTZ AUX)
    Blend: AUG-CC-PVTZ-JKFIT

    Orbital Energies [Eh]
    ---------------------

    Doubly Occupied:

       1A    -11.227291     2A    -11.213110     3A    -11.209463
       4A    -11.207841     5A    -11.206552     6A    -11.206410
       7A     -1.109110     8A     -0.992241     9A     -0.927419
      10A     -0.926588    11A     -0.850366    12A     -0.723364
      13A     -0.626466    14A     -0.620947    15A     -0.595610
      16A     -0.580077    17A     -0.548225    18A     -0.529371
      19A     -0.523624    20A     -0.508683    21A     -0.500251
      22A     -0.484610    23A     -0.452940    24A     -0.440820
      25A     -0.435979

  @DF-RHF Final Energy:  -235.44469696047150

   => Energetics <=

    Nuclear Repulsion Energy =            266.3441856512690720
    One-Electron Energy =                -844.2830480730140152
    Two-Electron Energy =                 342.4941654612734396
    Total Energy =                       -235.4446969604715036
  Basis Set: (AUG-CC-PVTZ AUX)
    Blend: AUG-CC-PVTZ-RI
    Molecular point group: c1

    Geometry (in Angstrom), charge = 0, multiplicity = 1:

       Center              X                  Y                   Z               Mass
    ------------   -----------------  -----------------  -----------------  -----------------
         C           -0.427785487632    -0.008335694021     0.006537583541    12.000000000000
         C            0.857179512368     0.837750205979    -0.041243516459    12.000000000000
         C           -0.513846487632    -0.888686694021    -1.242497416459    12.000000000000
         C           -1.607678487632     0.967747305979     0.005789583541    12.000000000000
         C           -0.513606487632    -0.886449694021     1.257177583541    12.000000000000
         C            2.180204512368     0.026660305979     0.006497583541    12.000000000000
         H            0.855020512368     1.475487305979    -0.872973416459     1.007825032230
         H            0.855021512368     1.477253305979     0.883047583541     1.007825032230
         H            0.275430512368    -1.646040694021    -1.260062416459     1.007825032230
         H           -0.427413487632    -0.284543694021    -2.152808416459     1.007825032230
         H           -1.475853487632    -1.411858694021    -1.275386416459     1.007825032230
         H           -1.582642487632     1.611897305979     0.891731583541     1.007825032230
         H           -1.582841487632     1.610271305979    -0.881336416459     1.007825032230
         H           -2.561050487632     0.427932305979     0.006388583541     1.007825032230
         H            0.275593512368    -1.643850694021     1.275829583541     1.007825032230
         H           -1.475670487632    -1.409439694021     1.291265583541     1.007825032230
         H           -0.426827487632    -0.280679694021     2.166370583541     1.007825032230
         H            2.270744512368    -0.610101694021    -0.877399416459     1.007825032230
         H            3.033464512368     0.711794305979     0.005470583541     1.007825032230
         H            2.271040512368    -0.607813694021     0.892004583541     1.007825032230

  Basis Set: AUG-CC-PVTZ
    Blend: AUG-CC-PVTZ
  Basis Set: (AUG-CC-PVTZ AUX)
    Blend: AUG-CC-PVTZ-JKFIT
	 Reference Energy          =    -235.4446969604715036 [Eh]
	 Singles Energy            =      -0.0000000000000000 [Eh]
	 Same-Spin Energy          =      -0.2552925341295828 [Eh]
	 Opposite-Spin Energy      =      -0.9540904398121106 [Eh]
	 Correlation Energy        =      -1.2093829739416935 [Eh]
	 Total Energy              =    -236.6540799344132040 [Eh]

	 ================> DF-SCS-MP2 Energies <==================
	-----------------------------------------------------------
	 SCS Same-Spin Scale       =       0.3333333333333333 [-]
	 SCS Opposite-Spin Scale   =       1.2000000000000000 [-]
	 SCS Same-Spin Energy      =      -0.0850975113765276 [Eh]
	 SCS Opposite-Spin Energy  =      -1.1449085277745328 [Eh]
	 SCS Correlation Energy    =      -1.2300060391510603 [Eh]
	 SCS Total Energy          =    -236.6747029996225535 [Eh]
	-----------------------------------------------------------

  Dipole Moment: [D]
     X:     0.0443      Y:     0.0345      Z:    -0.0166     Total:     0.0585

*** Psi4 exiting successfully. Buy a developer a beer!
