                               Psi4 1.3.2 release

  ==> Input File <==

--------------------------------------------------------------------------
#psi4
#
memory 32 gb

molecule  {
0 1
  C       -0.4325780     0.0000000    -0.0000100
  C        0.9516308     0.8781195    -0.0009014
  C       -0.5186390    -0.8803510    -1.2490450
  C       -1.6124710     0.9760830    -0.0007580
  C       -0.5183990    -0.8781140     1.2506300
  C        2.1754120     0.0349960    -0.0000500
  H        0.8502280     1.4838230    -0.8795210
  H        0.8502290     1.4855890     0.8765000
  H        0.2706380    -1.6377050    -1.2666100
  H       -0.4322060    -0.2762080    -2.1593560
  H       -1.4806460    -1.4035230    -1.2819340
  H       -1.5874350     1.6202330     0.8851840
  H       -1.5876340     1.6186070    -0.8878840
  H       -2.5658430     0.4362680    -0.0001590
  H        0.2708010    -1.6355150     1.2692820
  H       -1.4804630    -1.4011040     1.2847180
  H       -0.4316200    -0.2723440     2.1598230
  H        2.2659520    -0.6017660    -0.8839470
  H        3.0286720     0.7201300    -0.0010770
  H        2.2662480    -0.5994780     0.8854570
units angstrom
no_reorient  #important for SAPT in psi4, default
symmetry c1  #important for SAPT in psi4, default
}

set PROPERTIES_ORIGIN ["COM"]
properties('MP2/aug-cc-pvtz', properties = ['dipole'])
--------------------------------------------------------------------------

    Molecular point group: c1
  Charge       = 0
  Multiplicity = 1
  Basis Set: AUG-CC-PVTZ
    Blend: AUG-CC-PVTZ
  Basis Set: (AUG-CC-PVTZ AUX)
    Blend: AUG-CC-PVTZ-JKFIT

    Orbital Energies [Eh]
    ---------------------

    Doubly Occupied:

       1A    -11.230096     2A    -11.212028     3A    -11.207456
       4A    -11.206501     5A    -11.206325     6A    -11.206306
       7A     -1.100597     8A     -1.005584     9A     -0.925426
      10A     -0.925102    11A     -0.843375    12A     -0.719935
      13A     -0.626120    14A     -0.620834    15A     -0.593990
      16A     -0.583066    17A     -0.550142    18A     -0.532999
      19A     -0.523839    20A     -0.510379    21A     -0.508122
      22A     -0.488064    23A     -0.451963    24A     -0.450308
      25A     -0.408433

  @DF-RHF Final Energy:  -235.44022034330470

   => Energetics <=

    Nuclear Repulsion Energy =            265.3702292791595028
    One-Electron Energy =                -842.3469180191061696
    Two-Electron Energy =                 341.5364683966419648
    Total Energy =                       -235.4402203433047021
  Basis Set: (AUG-CC-PVTZ AUX)
    Blend: AUG-CC-PVTZ-RI
    Molecular point group: c1

    Geometry (in Angstrom), charge = 0, multiplicity = 1:

       Center              X                  Y                   Z               Mass
    ------------   -----------------  -----------------  -----------------  -----------------
         C           -0.441615842032    -0.012799812089     0.000003158532    12.000000000000
         C            0.942592957968     0.865319687911    -0.000888241468    12.000000000000
         C           -0.527676842032    -0.893150812089    -1.249031841468    12.000000000000
         C           -1.621508842032     0.963283187911    -0.000744841468    12.000000000000
         C           -0.527436842032    -0.890913812089     1.250643158532    12.000000000000
         C            2.166374157968     0.022196187911    -0.000036841468    12.000000000000
         H            0.841190157968     1.471023187911    -0.879507841468     1.007825032230
         H            0.841191157968     1.472789187911     0.876513158532     1.007825032230
         H            0.261600157968    -1.650504812089    -1.266596841468     1.007825032230
         H           -0.441243842032    -0.289007812089    -2.159342841468     1.007825032230
         H           -1.489683842032    -1.416322812089    -1.281920841468     1.007825032230
         H           -1.596472842032     1.607433187911     0.885197158532     1.007825032230
         H           -1.596671842032     1.605807187911    -0.887870841468     1.007825032230
         H           -2.574880842032     0.423468187911    -0.000145841468     1.007825032230
         H            0.261763157968    -1.648314812089     1.269295158532     1.007825032230
         H           -1.489500842032    -1.413903812089     1.284731158532     1.007825032230
         H           -0.440657842032    -0.285143812089     2.159836158532     1.007825032230
         H            2.256914157968    -0.614565812089    -0.883933841468     1.007825032230
         H            3.019634157968     0.707330187911    -0.001063841468     1.007825032230
         H            2.257210157968    -0.612277812089     0.885470158532     1.007825032230

  Basis Set: AUG-CC-PVTZ
    Blend: AUG-CC-PVTZ
  Basis Set: (AUG-CC-PVTZ AUX)
    Blend: AUG-CC-PVTZ-JKFIT
	 Reference Energy          =    -235.4402203433047021 [Eh]
	 Singles Energy            =      -0.0000000000000000 [Eh]
	 Same-Spin Energy          =      -0.2553717361347819 [Eh]
	 Opposite-Spin Energy      =      -0.9541935464510443 [Eh]
	 Correlation Energy        =      -1.2095652825858263 [Eh]
	 Total Energy              =    -236.6497856258905301 [Eh]

	 ================> DF-SCS-MP2 Energies <==================
	-----------------------------------------------------------
	 SCS Same-Spin Scale       =       0.3333333333333333 [-]
	 SCS Opposite-Spin Scale   =       1.2000000000000000 [-]
	 SCS Same-Spin Energy      =      -0.0851239120449273 [Eh]
	 SCS Opposite-Spin Energy  =      -1.1450322557412531 [Eh]
	 SCS Correlation Energy    =      -1.2301561677861805 [Eh]
	 SCS Total Energy          =    -236.6703765110908932 [Eh]
	-----------------------------------------------------------

  Dipole Moment: [D]
     X:     0.0888      Y:     0.0437      Z:    -0.0001     Total:     0.0990

*** Psi4 exiting successfully. Buy a developer a beer!
