                               Psi4 1.3.2 release

  ==> Input File <==

--------------------------------------------------------------------------
#psi4
#
memory 32 gb

molecule  {
0 1
  C       -0.3982275    -0.0472399    -0.0901838
  C        0.8671890     0.8245510    -0.0008470
  C       -0.5186390    -0.8803510    -1.2490450
  C       -1.6124710     0.9760830    -0.0007580
  C       -0.5183990    -0.8781140     1.2506300
  C        2.1754120     0.0349960    -0.0000500
  H        0.8502280     1.4838230    -0.8795210
  H        0.8502290     1.4855890     0.8765000
  H        0.2706380    -1.6377050    -1.2666100
  H       -0.4322060    -0.2762080    -2.1593560
  H       -1.4806460    -1.4035230    -1.2819340
  H       -1.5874350     1.6202330     0.8851840
  H       -1.5876340     1.6186070    -0.8878840
  H       -2.5658430     0.4362680    -0.0001590
  H        0.2708010    -1.6355150     1.2692820
  H       -1.4804630    -1.4011040     1.2847180
  H       -0.4316200    -0.2723440     2.1598230
  H        2.2659520    -0.6017660    -0.8839470
  H        3.0286720     0.7201300    -0.0010770
  H        2.2662480    -0.5994780     0.8854570
units angstrom
no_reorient  #important for SAPT in psi4, default
symmetry c1  #important for SAPT in psi4, default
}

set PROPERTIES_ORIGIN ["COM"]
properties('MP2/aug-cc-pvtz', properties = ['dipole'])
--------------------------------------------------------------------------

    Molecular point group: c1
  Charge       = 0
  Multiplicity = 1
  Basis Set: AUG-CC-PVTZ
    Blend: AUG-CC-PVTZ
  Basis Set: (AUG-CC-PVTZ AUX)
    Blend: AUG-CC-PVTZ-JKFIT

    Orbital Energies [Eh]
    ---------------------

    Doubly Occupied:

       1A    -11.228493     2A    -11.214776     3A    -11.208012
       4A    -11.207677     5A    -11.207648     6A    -11.205490
       7A     -1.111969     8A     -0.997051     9A     -0.934877
      10A     -0.918611    11A     -0.847617    12A     -0.722808
      13A     -0.626238    14A     -0.622323    15A     -0.597883
      16A     -0.577612    17A     -0.549618    18A     -0.534471
      19A     -0.523105    20A     -0.507904    21A     -0.499346
      22A     -0.488191    23A     -0.471979    24A     -0.429064
      25A     -0.419061

  @DF-RHF Final Energy:  -235.43527402970886

   => Energetics <=

    Nuclear Repulsion Energy =            266.5828064043907375
    One-Electron Energy =                -844.7325067199711839
    Two-Electron Energy =                 342.7144262858716388
    Total Energy =                       -235.4352740297088644
  Basis Set: (AUG-CC-PVTZ AUX)
    Blend: AUG-CC-PVTZ-RI
    Molecular point group: c1

    Geometry (in Angstrom), charge = 0, multiplicity = 1:

       Center              X                  Y                   Z               Mass
    ------------   -----------------  -----------------  -----------------  -----------------
         C           -0.400284750485    -0.045991319156    -0.077611839403    12.000000000000
         C            0.865131749515     0.825799580844     0.011724960597    12.000000000000
         C           -0.520696250485    -0.879102419156    -1.236473039403    12.000000000000
         C           -1.614528250485     0.977331580844     0.011813960597    12.000000000000
         C           -0.520456250485    -0.876865419156     1.263201960597    12.000000000000
         C            2.173354749515     0.036244580844     0.012521960597    12.000000000000
         H            0.848170749515     1.485071580844    -0.866949039403     1.007825032230
         H            0.848171749515     1.486837580844     0.889071960597     1.007825032230
         H            0.268580749515    -1.636456419156    -1.254038039403     1.007825032230
         H           -0.434263250485    -0.274959419156    -2.146784039403     1.007825032230
         H           -1.482703250485    -1.402274419156    -1.269362039403     1.007825032230
         H           -1.589492250485     1.621481580844     0.897755960597     1.007825032230
         H           -1.589691250485     1.619855580844    -0.875312039403     1.007825032230
         H           -2.567900250485     0.437516580844     0.012412960597     1.007825032230
         H            0.268743749515    -1.634266419156     1.281853960597     1.007825032230
         H           -1.482520250485    -1.399855419156     1.297289960597     1.007825032230
         H           -0.433677250485    -0.271095419156     2.172394960597     1.007825032230
         H            2.263894749515    -0.600517419156    -0.871375039403     1.007825032230
         H            3.026614749515     0.721378580844     0.011494960597     1.007825032230
         H            2.264190749515    -0.598229419156     0.898028960597     1.007825032230

  Basis Set: AUG-CC-PVTZ
    Blend: AUG-CC-PVTZ
  Basis Set: (AUG-CC-PVTZ AUX)
    Blend: AUG-CC-PVTZ-JKFIT
	 Reference Energy          =    -235.4352740297088644 [Eh]
	 Singles Energy            =      -0.0000000000000000 [Eh]
	 Same-Spin Energy          =      -0.2559036805663816 [Eh]
	 Opposite-Spin Energy      =      -0.9550452654901749 [Eh]
	 Correlation Energy        =      -1.2109489460565563 [Eh]
	 Total Energy              =    -236.6462229757654256 [Eh]

	 ================> DF-SCS-MP2 Energies <==================
	-----------------------------------------------------------
	 SCS Same-Spin Scale       =       0.3333333333333333 [-]
	 SCS Opposite-Spin Scale   =       1.2000000000000000 [-]
	 SCS Same-Spin Energy      =      -0.0853012268554605 [Eh]
	 SCS Opposite-Spin Energy  =      -1.1460543185882097 [Eh]
	 SCS Correlation Energy    =      -1.2313555454436702 [Eh]
	 SCS Total Energy          =    -236.6666295751525411 [Eh]
	-----------------------------------------------------------

  Dipole Moment: [D]
     X:     0.0703      Y:     0.0154      Z:    -0.0426     Total:     0.0836

*** Psi4 exiting successfully. Buy a developer a beer!
