                               Psi4 1.3.2 release

  ==> Input File <==

--------------------------------------------------------------------------
#psi4
#
memory 32 gb

molecule  {
0 1
  C       -0.4325780     0.0000000    -0.0000100
  C        0.8181063     0.8860381    -0.1414476
  C       -0.5186390    -0.8803510    -1.2490450
  C       -1.6124710     0.9760830    -0.0007580
  C       -0.5183990    -0.8781140     1.2506300
  C        2.1754120     0.0349960    -0.0000500
  H        0.8502280     1.4838230    -0.8795210
  H        0.8502290     1.4855890     0.8765000
  H        0.2706380    -1.6377050    -1.2666100
  H       -0.4322060    -0.2762080    -2.1593560
  H       -1.4806460    -1.4035230    -1.2819340
  H       -1.5874350     1.6202330     0.8851840
  H       -1.5876340     1.6186070    -0.8878840
  H       -2.5658430     0.4362680    -0.0001590
  H        0.2708010    -1.6355150     1.2692820
  H       -1.4804630    -1.4011040     1.2847180
  H       -0.4316200    -0.2723440     2.1598230
  H        2.2659520    -0.6017660    -0.8839470
  H        3.0286720     0.7201300    -0.0010770
  H        2.2662480    -0.5994780     0.8854570
units angstrom
no_reorient  #important for SAPT in psi4, default
symmetry c1  #important for SAPT in psi4, default
}

set PROPERTIES_ORIGIN ["COM"]
properties('MP2/aug-cc-pvtz', properties = ['dipole'])
--------------------------------------------------------------------------

    Molecular point group: c1
  Charge       = 0
  Multiplicity = 1
  Basis Set: AUG-CC-PVTZ
    Blend: AUG-CC-PVTZ
  Basis Set: (AUG-CC-PVTZ AUX)
    Blend: AUG-CC-PVTZ-JKFIT

    Orbital Energies [Eh]
    ---------------------

    Doubly Occupied:

       1A    -11.228672     2A    -11.214091     3A    -11.211550
       4A    -11.210291     5A    -11.206143     6A    -11.205733
       7A     -1.109311     8A     -0.986219     9A     -0.929237
      10A     -0.926601    11A     -0.855844    12A     -0.732094
      13A     -0.633346    14A     -0.616007    15A     -0.595204
      16A     -0.578079    17A     -0.546142    18A     -0.529421
      19A     -0.524881    20A     -0.516681    21A     -0.505747
      22A     -0.477338    23A     -0.462381    24A     -0.428123
      25A     -0.426148

  @DF-RHF Final Energy:  -235.41574850731050

   => Energetics <=

    Nuclear Repulsion Energy =            266.0624519151660934
    One-Electron Energy =                -843.6458307712531450
    Two-Electron Energy =                 342.1676303487765836
    Total Energy =                       -235.4157485073104681
  Basis Set: (AUG-CC-PVTZ AUX)
    Blend: AUG-CC-PVTZ-RI
    Molecular point group: c1

    Geometry (in Angstrom), charge = 0, multiplicity = 1:

       Center              X                  Y                   Z               Mass
    ------------   -----------------  -----------------  -----------------  -----------------
         C           -0.423008219630    -0.013903327315     0.019589306540    12.000000000000
         C            0.827676080370     0.872134772685    -0.121848293460    12.000000000000
         C           -0.509069219630    -0.894254327315    -1.229445693460    12.000000000000
         C           -1.602901219630     0.962179672685     0.018841306540    12.000000000000
         C           -0.508829219630    -0.892017327315     1.270229306540    12.000000000000
         C            2.184981780370     0.021092672685     0.019549306540    12.000000000000
         H            0.859797780370     1.469919672685    -0.859921693460     1.007825032230
         H            0.859798780370     1.471685672685     0.896099306540     1.007825032230
         H            0.280207780370    -1.651608327315    -1.247010693460     1.007825032230
         H           -0.422636219630    -0.290111327315    -2.139756693460     1.007825032230
         H           -1.471076219630    -1.417426327315    -1.262334693460     1.007825032230
         H           -1.577865219630     1.606329672685     0.904783306540     1.007825032230
         H           -1.578064219630     1.604703672685    -0.868284693460     1.007825032230
         H           -2.556273219630     0.422364672685     0.019440306540     1.007825032230
         H            0.280370780370    -1.649418327315     1.288881306540     1.007825032230
         H           -1.470893219630    -1.415007327315     1.304317306540     1.007825032230
         H           -0.422050219630    -0.286247327315     2.179422306540     1.007825032230
         H            2.275521780370    -0.615669327315    -0.864347693460     1.007825032230
         H            3.038241780370     0.706226672685     0.018522306540     1.007825032230
         H            2.275817780370    -0.613381327315     0.905056306540     1.007825032230

  Basis Set: AUG-CC-PVTZ
    Blend: AUG-CC-PVTZ
  Basis Set: (AUG-CC-PVTZ AUX)
    Blend: AUG-CC-PVTZ-JKFIT
	 Reference Energy          =    -235.4157485073104965 [Eh]
	 Singles Energy            =      -0.0000000000000000 [Eh]
	 Same-Spin Energy          =      -0.2555002587450078 [Eh]
	 Opposite-Spin Energy      =      -0.9553406524885109 [Eh]
	 Correlation Energy        =      -1.2108409112335186 [Eh]
	 Total Energy              =    -236.6265894185440288 [Eh]

	 ================> DF-SCS-MP2 Energies <==================
	-----------------------------------------------------------
	 SCS Same-Spin Scale       =       0.3333333333333333 [-]
	 SCS Opposite-Spin Scale   =       1.2000000000000000 [-]
	 SCS Same-Spin Energy      =      -0.0851667529150026 [Eh]
	 SCS Opposite-Spin Energy  =      -1.1464087829862131 [Eh]
	 SCS Correlation Energy    =      -1.2315755359012157 [Eh]
	 SCS Total Energy          =    -236.6473240432117109 [Eh]
	-----------------------------------------------------------

  Dipole Moment: [D]
     X:     0.0166      Y:     0.0052      Z:    -0.0353     Total:     0.0393

*** Psi4 exiting successfully. Buy a developer a beer!
