                               Psi4 1.3.2 release

  ==> Input File <==

--------------------------------------------------------------------------
#psi4
#
memory 32 gb

molecule  {
0 1
  C       -0.4539364     0.0136612     0.0084016
  C        0.8671890     0.8245510    -0.0008470
  C       -0.5186390    -0.8803510    -1.2490450
  C       -1.6124710     0.9760830    -0.0007580
  C       -0.5183990    -0.8781140     1.2506300
  C        2.1754120     0.0349960    -0.0000500
  H        0.8502280     1.4838230    -0.8795210
  H        0.8502290     1.4855890     0.8765000
  H        0.2706380    -1.6377050    -1.2666100
  H       -0.4322060    -0.2762080    -2.1593560
  H       -1.4806460    -1.4035230    -1.2819340
  H       -1.5874350     1.6202330     0.8851840
  H       -1.5876340     1.6186070    -0.8878840
  H       -2.5658430     0.4362680    -0.0001590
  H        0.2708010    -1.6355150     1.2692820
  H       -1.4804630    -1.4011040     1.2847180
  H       -0.4316200    -0.2723440     2.1598230
  H        2.2659520    -0.6017660    -0.8839470
  H        3.0286720     0.7201300    -0.0010770
  H        2.2662480    -0.5994780     0.8854570
units angstrom
no_reorient  #important for SAPT in psi4, default
symmetry c1  #important for SAPT in psi4, default
}

set PROPERTIES_ORIGIN ["COM"]
properties('MP2/aug-cc-pvtz', properties = ['dipole'])
--------------------------------------------------------------------------

    Molecular point group: c1
  Charge       = 0
  Multiplicity = 1
  Basis Set: AUG-CC-PVTZ
    Blend: AUG-CC-PVTZ
  Basis Set: (AUG-CC-PVTZ AUX)
    Blend: AUG-CC-PVTZ-JKFIT

    Orbital Energies [Eh]
    ---------------------

    Doubly Occupied:

       1A    -11.227305     2A    -11.213951     3A    -11.209146
       4A    -11.207043     5A    -11.206971     6A    -11.206560
       7A     -1.109507     8A     -0.996327     9A     -0.928849
      10A     -0.925693    11A     -0.847891    12A     -0.721300
      13A     -0.624042    14A     -0.622294    15A     -0.596446
      16A     -0.582141    17A     -0.550104    18A     -0.529327
      19A     -0.522941    20A     -0.508347    21A     -0.500297
      22A     -0.483085    23A     -0.452893    24A     -0.444688
      25A     -0.433316

  @DF-RHF Final Energy:  -235.44696605738437

   => Energetics <=

    Nuclear Repulsion Energy =            266.4437192554918852
    One-Electron Energy =                -844.4804440922611093
    Two-Electron Energy =                 342.5897587793849084
    Total Energy =                       -235.4469660573843726
  Basis Set: (AUG-CC-PVTZ AUX)
    Blend: AUG-CC-PVTZ-RI
    Molecular point group: c1

    Geometry (in Angstrom), charge = 0, multiplicity = 1:

       Center              X                  Y                   Z               Mass
    ------------   -----------------  -----------------  -----------------  -----------------
         C           -0.448230205008     0.006422764059     0.007234959085    12.000000000000
         C            0.872895194992     0.817312564059    -0.002013640915    12.000000000000
         C           -0.512932805008    -0.887589435941    -1.250211640915    12.000000000000
         C           -1.606764805008     0.968844564059    -0.001924640915    12.000000000000
         C           -0.512692805008    -0.885352435941     1.249463359085    12.000000000000
         C            2.181118194992     0.027757564059    -0.001216640915    12.000000000000
         H            0.855934194992     1.476584564059    -0.880687640915     1.007825032230
         H            0.855935194992     1.478350564059     0.875333359085     1.007825032230
         H            0.276344194992    -1.644943435941    -1.267776640915     1.007825032230
         H           -0.426499805008    -0.283446435941    -2.160522640915     1.007825032230
         H           -1.474939805008    -1.410761435941    -1.283100640915     1.007825032230
         H           -1.581728805008     1.612994564059     0.884017359085     1.007825032230
         H           -1.581927805008     1.611368564059    -0.889050640915     1.007825032230
         H           -2.560136805008     0.429029564059    -0.001325640915     1.007825032230
         H            0.276507194992    -1.642753435941     1.268115359085     1.007825032230
         H           -1.474756805008    -1.408342435941     1.283551359085     1.007825032230
         H           -0.425913805008    -0.279582435941     2.158656359085     1.007825032230
         H            2.271658194992    -0.609004435941    -0.885113640915     1.007825032230
         H            3.034378194992     0.712891564059    -0.002243640915     1.007825032230
         H            2.271954194992    -0.606716435941     0.884290359085     1.007825032230

  Basis Set: AUG-CC-PVTZ
    Blend: AUG-CC-PVTZ
  Basis Set: (AUG-CC-PVTZ AUX)
    Blend: AUG-CC-PVTZ-JKFIT
	 Reference Energy          =    -235.4469660573843726 [Eh]
	 Singles Energy            =      -0.0000000000000000 [Eh]
	 Same-Spin Energy          =      -0.2554279250764946 [Eh]
	 Opposite-Spin Energy      =      -0.9541087381556141 [Eh]
	 Correlation Energy        =      -1.2095366632321087 [Eh]
	 Total Energy              =    -236.6565027206164871 [Eh]

	 ================> DF-SCS-MP2 Energies <==================
	-----------------------------------------------------------
	 SCS Same-Spin Scale       =       0.3333333333333333 [-]
	 SCS Opposite-Spin Scale   =       1.2000000000000000 [-]
	 SCS Same-Spin Energy      =      -0.0851426416921649 [Eh]
	 SCS Opposite-Spin Energy  =      -1.1449304857867368 [Eh]
	 SCS Correlation Energy    =      -1.2300731274789016 [Eh]
	 SCS Total Energy          =    -236.6770391848632755 [Eh]
	-----------------------------------------------------------

  Dipole Moment: [D]
     X:     0.0459      Y:     0.0380      Z:     0.0041     Total:     0.0597

*** Psi4 exiting successfully. Buy a developer a beer!
