                               Psi4 1.3.2 release

  ==> Input File <==

--------------------------------------------------------------------------
#psi4
#
memory 32 gb

molecule  {
0 1
  C       -0.4325780     0.0000000    -0.0000100
  C        0.8671890     0.8245510    -0.0008470
  C       -0.5186390    -0.8803510    -1.2490450
  C       -1.6124710     0.9760830    -0.0007580
  C       -0.5183990    -0.8781140     1.2506300
  C        2.0041809     0.1383395    -0.0001543
  H        0.8502280     1.4838230    -0.8795210
  H        0.8502290     1.4855890     0.8765000
  H        0.2706380    -1.6377050    -1.2666100
  H       -0.4322060    -0.2762080    -2.1593560
  H       -1.4806460    -1.4035230    -1.2819340
  H       -1.5874350     1.6202330     0.8851840
  H       -1.5876340     1.6186070    -0.8878840
  H       -2.5658430     0.4362680    -0.0001590
  H        0.2708010    -1.6355150     1.2692820
  H       -1.4804630    -1.4011040     1.2847180
  H       -0.4316200    -0.2723440     2.1598230
  H        2.2659520    -0.6017660    -0.8839470
  H        3.0286720     0.7201300    -0.0010770
  H        2.2662480    -0.5994780     0.8854570
units angstrom
no_reorient  #important for SAPT in psi4, default
symmetry c1  #important for SAPT in psi4, default
}

set PROPERTIES_ORIGIN ["COM"]
properties('MP2/aug-cc-pvtz', properties = ['dipole'])
--------------------------------------------------------------------------

    Molecular point group: c1
  Charge       = 0
  Multiplicity = 1
  Basis Set: AUG-CC-PVTZ
    Blend: AUG-CC-PVTZ
  Basis Set: (AUG-CC-PVTZ AUX)
    Blend: AUG-CC-PVTZ-JKFIT

    Orbital Energies [Eh]
    ---------------------

    Doubly Occupied:

       1A    -11.228948     2A    -11.223696     3A    -11.207714
       4A    -11.207194     5A    -11.207175     6A    -11.204278
       7A     -1.126113     8A     -1.028053     9A     -0.927656
      10A     -0.927437    11A     -0.829573    12A     -0.726242
      13A     -0.632005    14A     -0.628740    15A     -0.614702
      16A     -0.578748    17A     -0.567780    18A     -0.522070
      19A     -0.521705    20A     -0.508660    21A     -0.508366
      22A     -0.463024    23A     -0.453968    24A     -0.430733
      25A     -0.419349

  @DF-RHF Final Energy:  -235.39791843657758

   => Energetics <=

    Nuclear Repulsion Energy =            269.4543414748761165
    One-Electron Energy =                -850.3166680412380174
    Two-Electron Energy =                 345.4644081297842604
    Total Energy =                       -235.3979184365775836
  Basis Set: (AUG-CC-PVTZ AUX)
    Blend: AUG-CC-PVTZ-RI
    Molecular point group: c1

    Geometry (in Angstrom), charge = 0, multiplicity = 1:

       Center              X                  Y                   Z               Mass
    ------------   -----------------  -----------------  -----------------  -----------------
         C           -0.405985940542    -0.019736324902     0.000010112465    12.000000000000
         C            0.893781059458     0.804814675098    -0.000826887535    12.000000000000
         C           -0.492046940542    -0.900087324902    -1.249024887535    12.000000000000
         C           -1.585878940542     0.956346675098    -0.000737887535    12.000000000000
         C           -0.491806940542    -0.897850324902     1.250650112465    12.000000000000
         C            2.030772959458     0.118603175098    -0.000134187535    12.000000000000
         H            0.876820059458     1.464086675098    -0.879500887535     1.007825032230
         H            0.876821059458     1.465852675098     0.876520112465     1.007825032230
         H            0.297230059458    -1.657441324902    -1.266589887535     1.007825032230
         H           -0.405613940542    -0.295944324902    -2.159335887535     1.007825032230
         H           -1.454053940542    -1.423259324902    -1.281913887535     1.007825032230
         H           -1.560842940542     1.600496675098     0.885204112465     1.007825032230
         H           -1.561041940542     1.598870675098    -0.887863887535     1.007825032230
         H           -2.539250940542     0.416531675098    -0.000138887535     1.007825032230
         H            0.297393059458    -1.655251324902     1.269302112465     1.007825032230
         H           -1.453870940542    -1.420840324902     1.284738112465     1.007825032230
         H           -0.405027940542    -0.292080324902     2.159843112465     1.007825032230
         H            2.292544059458    -0.621502324902    -0.883926887535     1.007825032230
         H            3.055264059458     0.700393675098    -0.001056887535     1.007825032230
         H            2.292840059458    -0.619214324902     0.885477112465     1.007825032230

  Basis Set: AUG-CC-PVTZ
    Blend: AUG-CC-PVTZ
  Basis Set: (AUG-CC-PVTZ AUX)
    Blend: AUG-CC-PVTZ-JKFIT
	 Reference Energy          =    -235.3979184365775836 [Eh]
	 Singles Energy            =      -0.0000000000000000 [Eh]
	 Same-Spin Energy          =      -0.2583729822708962 [Eh]
	 Opposite-Spin Energy      =      -0.9580538202808340 [Eh]
	 Correlation Energy        =      -1.2164268025517302 [Eh]
	 Total Energy              =    -236.6143452391293067 [Eh]

	 ================> DF-SCS-MP2 Energies <==================
	-----------------------------------------------------------
	 SCS Same-Spin Scale       =       0.3333333333333333 [-]
	 SCS Opposite-Spin Scale   =       1.2000000000000000 [-]
	 SCS Same-Spin Energy      =      -0.0861243274236321 [Eh]
	 SCS Opposite-Spin Energy  =      -1.1496645843370008 [Eh]
	 SCS Correlation Energy    =      -1.2357889117606329 [Eh]
	 SCS Total Energy          =    -236.6337073483382198 [Eh]
	-----------------------------------------------------------

  Dipole Moment: [D]
     X:     0.0026      Y:     0.0661      Z:    -0.0001     Total:     0.0661

*** Psi4 exiting successfully. Buy a developer a beer!
