                               Psi4 1.3.2 release

  ==> Input File <==

--------------------------------------------------------------------------
#psi4
#
memory 32 gb

molecule  {
0 1
  C       -0.4325780     0.0000000    -0.0000100
  C        0.8671890     0.8245510    -0.0008470
  C       -0.5143463    -0.8364308    -1.2791544
  C       -1.6124710     0.9760830    -0.0007580
  C       -0.5183990    -0.8781140     1.2506300
  C        2.1754120     0.0349960    -0.0000500
  H        0.8502280     1.4838230    -0.8795210
  H        0.8502290     1.4855890     0.8765000
  H        0.2706380    -1.6377050    -1.2666100
  H       -0.4322060    -0.2762080    -2.1593560
  H       -1.4806460    -1.4035230    -1.2819340
  H       -1.5874350     1.6202330     0.8851840
  H       -1.5876340     1.6186070    -0.8878840
  H       -2.5658430     0.4362680    -0.0001590
  H        0.2708010    -1.6355150     1.2692820
  H       -1.4804630    -1.4011040     1.2847180
  H       -0.4316200    -0.2723440     2.1598230
  H        2.2659520    -0.6017660    -0.8839470
  H        3.0286720     0.7201300    -0.0010770
  H        2.2662480    -0.5994780     0.8854570
units angstrom
no_reorient  #important for SAPT in psi4, default
symmetry c1  #important for SAPT in psi4, default
}

set PROPERTIES_ORIGIN ["COM"]
properties('MP2/aug-cc-pvtz', properties = ['dipole'])
--------------------------------------------------------------------------

    Molecular point group: c1
  Charge       = 0
  Multiplicity = 1
  Basis Set: AUG-CC-PVTZ
    Blend: AUG-CC-PVTZ
  Basis Set: (AUG-CC-PVTZ AUX)
    Blend: AUG-CC-PVTZ-JKFIT

    Orbital Energies [Eh]
    ---------------------

    Doubly Occupied:

       1A    -11.227501     2A    -11.213446     3A    -11.208531
       4A    -11.207975     5A    -11.207381     6A    -11.206454
       7A     -1.109698     8A     -0.995554     9A     -0.929361
      10A     -0.925239    11A     -0.848399    12A     -0.722220
      13A     -0.622119    14A     -0.621945    15A     -0.601610
      16A     -0.579807    17A     -0.551289    18A     -0.528521
      19A     -0.523615    20A     -0.506160    21A     -0.496755
      22A     -0.487554    23A     -0.451851    24A     -0.441451
      25A     -0.435695

  @DF-RHF Final Energy:  -235.44438340038977

   => Energetics <=

    Nuclear Repulsion Energy =            266.5120922767152365
    One-Electron Energy =                -844.6126861748718966
    Two-Electron Energy =                 342.6562104977668355
    Total Energy =                       -235.4443834003897678
  Basis Set: (AUG-CC-PVTZ AUX)
    Blend: AUG-CC-PVTZ-RI
    Molecular point group: c1

    Geometry (in Angstrom), charge = 0, multiplicity = 1:

       Center              X                  Y                   Z               Mass
    ------------   -----------------  -----------------  -----------------  -----------------
         C           -0.430446474698    -0.011455250430     0.004191544119    12.000000000000
         C            0.869320525302     0.813095749570     0.003354544119    12.000000000000
         C           -0.512214774698    -0.847886050430    -1.274952855881    12.000000000000
         C           -1.610339474698     0.964627749570     0.003443544119    12.000000000000
         C           -0.516267474698    -0.889569250430     1.254831544119    12.000000000000
         C            2.177543525302     0.023540749570     0.004151544119    12.000000000000
         H            0.852359525302     1.472367749570    -0.875319455881     1.007825032230
         H            0.852360525302     1.474133749570     0.880701544119     1.007825032230
         H            0.272769525302    -1.649160250430    -1.262408455881     1.007825032230
         H           -0.430074474698    -0.287663250430    -2.155154455881     1.007825032230
         H           -1.478514474698    -1.414978250430    -1.277732455881     1.007825032230
         H           -1.585303474698     1.608777749570     0.889385544119     1.007825032230
         H           -1.585502474698     1.607151749570    -0.883682455881     1.007825032230
         H           -2.563711474698     0.424812749570     0.004042544119     1.007825032230
         H            0.272932525302    -1.646970250430     1.273483544119     1.007825032230
         H           -1.478331474698    -1.412559250430     1.288919544119     1.007825032230
         H           -0.429488474698    -0.283799250430     2.164024544119     1.007825032230
         H            2.268083525302    -0.613221250430    -0.879745455881     1.007825032230
         H            3.030803525302     0.708674749570     0.003124544119     1.007825032230
         H            2.268379525302    -0.610933250430     0.889658544119     1.007825032230

  Basis Set: AUG-CC-PVTZ
    Blend: AUG-CC-PVTZ
  Basis Set: (AUG-CC-PVTZ AUX)
    Blend: AUG-CC-PVTZ-JKFIT
	 Reference Energy          =    -235.4443834003897678 [Eh]
	 Singles Energy            =      -0.0000000000000000 [Eh]
	 Same-Spin Energy          =      -0.2554656557398629 [Eh]
	 Opposite-Spin Energy      =      -0.9542495188823948 [Eh]
	 Correlation Energy        =      -1.2097151746222576 [Eh]
	 Total Energy              =    -236.6540985750120285 [Eh]

	 ================> DF-SCS-MP2 Energies <==================
	-----------------------------------------------------------
	 SCS Same-Spin Scale       =       0.3333333333333333 [-]
	 SCS Opposite-Spin Scale   =       1.2000000000000000 [-]
	 SCS Same-Spin Energy      =      -0.0851552185799543 [Eh]
	 SCS Opposite-Spin Energy  =      -1.1450994226588738 [Eh]
	 SCS Correlation Energy    =      -1.2302546412388280 [Eh]
	 SCS Total Energy          =    -236.6746380416285831 [Eh]
	-----------------------------------------------------------

  Dipole Moment: [D]
     X:     0.0534      Y:     0.0419      Z:    -0.0042     Total:     0.0680

*** Psi4 exiting successfully. Buy a developer a beer!
