                               Psi4 1.3.2 release

  ==> Input File <==

--------------------------------------------------------------------------
#psi4
#
memory 32 gb

molecule  {
0 1
  C       -0.4245780    -0.0121959    -0.0225703
  C        0.8671890     0.8245510    -0.0008470
  C       -0.5186390    -0.8803510    -1.2490450
  C       -1.6124710     0.9760830    -0.0007580
  C       -0.5183990    -0.8781140     1.2506300
  C        2.1754120     0.0349960    -0.0000500
  H        0.8502280     1.4838230    -0.8795210
  H        0.8502290     1.4855890     0.8765000
  H        0.2706380    -1.6377050    -1.2666100
  H       -0.4322060    -0.2762080    -2.1593560
  H       -1.4806460    -1.4035230    -1.2819340
  H       -1.5874350     1.6202330     0.8851840
  H       -1.5876340     1.6186070    -0.8878840
  H       -2.5658430     0.4362680    -0.0001590
  H        0.2708010    -1.6355150     1.2692820
  H       -1.4804630    -1.4011040     1.2847180
  H       -0.4316200    -0.2723440     2.1598230
  H        2.2659520    -0.6017660    -0.8839470
  H        3.0286720     0.7201300    -0.0010770
  H        2.2662480    -0.5994780     0.8854570
units angstrom
no_reorient  #important for SAPT in psi4, default
symmetry c1  #important for SAPT in psi4, default
}

set PROPERTIES_ORIGIN ["COM"]
properties('MP2/aug-cc-pvtz', properties = ['dipole'])
--------------------------------------------------------------------------

    Molecular point group: c1
  Charge       = 0
  Multiplicity = 1
  Basis Set: AUG-CC-PVTZ
    Blend: AUG-CC-PVTZ
  Basis Set: (AUG-CC-PVTZ AUX)
    Blend: AUG-CC-PVTZ-JKFIT

    Orbital Energies [Eh]
    ---------------------

    Doubly Occupied:

       1A    -11.227355     2A    -11.213915     3A    -11.208623
       4A    -11.207049     5A    -11.207013     6A    -11.206694
       7A     -1.109649     8A     -0.995872     9A     -0.929151
      10A     -0.924604    11A     -0.848383    12A     -0.721768
      13A     -0.624251    14A     -0.622339    15A     -0.596546
      16A     -0.580138    17A     -0.549812    18A     -0.529937
      19A     -0.523908    20A     -0.507949    21A     -0.499452
      22A     -0.484794    23A     -0.453752    24A     -0.439307
      25A     -0.436842

  @DF-RHF Final Energy:  -235.44695188919499

   => Energetics <=

    Nuclear Repulsion Energy =            266.5163704452159550
    One-Electron Energy =                -844.6284411668049188
    Two-Electron Energy =                 342.6651188323938868
    Total Energy =                       -235.4469518891950202
  Basis Set: (AUG-CC-PVTZ AUX)
    Blend: AUG-CC-PVTZ-RI
    Molecular point group: c1

    Geometry (in Angstrom), charge = 0, multiplicity = 1:

       Center              X                  Y                   Z               Mass
    ------------   -----------------  -----------------  -----------------  -----------------
         C           -0.422963114255    -0.015830958634    -0.019420778561    12.000000000000
         C            0.868803885745     0.820915941366     0.002302521439    12.000000000000
         C           -0.517024114255    -0.883986058634    -1.245895478561    12.000000000000
         C           -1.610856114255     0.972447941366     0.002391521439    12.000000000000
         C           -0.516784114255    -0.881749058634     1.253779521439    12.000000000000
         C            2.177026885745     0.031360941366     0.003099521439    12.000000000000
         H            0.851842885745     1.480187941366    -0.876371478561     1.007825032230
         H            0.851843885745     1.481953941366     0.879649521439     1.007825032230
         H            0.272252885745    -1.641340058634    -1.263460478561     1.007825032230
         H           -0.430591114255    -0.279843058634    -2.156206478561     1.007825032230
         H           -1.479031114255    -1.407158058634    -1.278784478561     1.007825032230
         H           -1.585820114255     1.616597941366     0.888333521439     1.007825032230
         H           -1.586019114255     1.614971941366    -0.884734478561     1.007825032230
         H           -2.564228114255     0.432632941366     0.002990521439     1.007825032230
         H            0.272415885745    -1.639150058634     1.272431521439     1.007825032230
         H           -1.478848114255    -1.404739058634     1.287867521439     1.007825032230
         H           -0.430005114255    -0.275979058634     2.162972521439     1.007825032230
         H            2.267566885745    -0.605401058634    -0.880797478561     1.007825032230
         H            3.030286885745     0.716494941366     0.002072521439     1.007825032230
         H            2.267862885745    -0.603113058634     0.888606521439     1.007825032230

  Basis Set: AUG-CC-PVTZ
    Blend: AUG-CC-PVTZ
  Basis Set: (AUG-CC-PVTZ AUX)
    Blend: AUG-CC-PVTZ-JKFIT
	 Reference Energy          =    -235.4469518891949917 [Eh]
	 Singles Energy            =      -0.0000000000000000 [Eh]
	 Same-Spin Energy          =      -0.2554184938206074 [Eh]
	 Opposite-Spin Energy      =      -0.9541298603948603 [Eh]
	 Correlation Energy        =      -1.2095483542154677 [Eh]
	 Total Energy              =    -236.6565002434104485 [Eh]

	 ================> DF-SCS-MP2 Energies <==================
	-----------------------------------------------------------
	 SCS Same-Spin Scale       =       0.3333333333333333 [-]
	 SCS Opposite-Spin Scale   =       1.2000000000000000 [-]
	 SCS Same-Spin Energy      =      -0.0851394979402025 [Eh]
	 SCS Opposite-Spin Energy  =      -1.1449558324738323 [Eh]
	 SCS Correlation Energy    =      -1.2300953304140347 [Eh]
	 SCS Total Energy          =    -236.6770472196090225 [Eh]
	-----------------------------------------------------------

  Dipole Moment: [D]
     X:     0.0562      Y:     0.0274      Z:    -0.0108     Total:     0.0634

*** Psi4 exiting successfully. Buy a developer a beer!
