                               Psi4 1.3.2 release

  ==> Input File <==

--------------------------------------------------------------------------
#psi4
#
memory 32 gb

molecule  {
0 1
  C       -0.4112458    -0.0139287    -0.0080406
  C        0.8671890     0.8245510    -0.0008470
  C       -0.5186390    -0.8803510    -1.2490450
  C       -1.6124710     0.9760830    -0.0007580
  C       -0.5183990    -0.8781140     1.2506300
  C        2.1754120     0.0349960    -0.0000500
  H        0.8502280     1.4838230    -0.8795210
  H        0.8502290     1.4855890     0.8765000
  H        0.2706380    -1.6377050    -1.2666100
  H       -0.4322060    -0.2762080    -2.1593560
  H       -1.4806460    -1.4035230    -1.2819340
  H       -1.5874350     1.6202330     0.8851840
  H       -1.5876340     1.6186070    -0.8878840
  H       -2.5658430     0.4362680    -0.0001590
  H        0.2708010    -1.6355150     1.2692820
  H       -1.4804630    -1.4011040     1.2847180
  H       -0.4316200    -0.2723440     2.1598230
  H        2.2659520    -0.6017660    -0.8839470
  H        3.0286720     0.7201300    -0.0010770
  H        2.2662480    -0.5994780     0.8854570
units angstrom
no_reorient  #important for SAPT in psi4, default
symmetry c1  #important for SAPT in psi4, default
}

set PROPERTIES_ORIGIN ["COM"]
properties('MP2/aug-cc-pvtz', properties = ['dipole'])
--------------------------------------------------------------------------

    Molecular point group: c1
  Charge       = 0
  Multiplicity = 1
  Basis Set: AUG-CC-PVTZ
    Blend: AUG-CC-PVTZ
  Basis Set: (AUG-CC-PVTZ AUX)
    Blend: AUG-CC-PVTZ-JKFIT

    Orbital Energies [Eh]
    ---------------------

    Doubly Occupied:

       1A    -11.227410     2A    -11.213776     3A    -11.208626
       4A    -11.207068     5A    -11.206991     6A    -11.206864
       7A     -1.109826     8A     -0.995738     9A     -0.928264
      10A     -0.924460    11A     -0.849538    12A     -0.721774
      13A     -0.623973    14A     -0.622818    15A     -0.596362
      16A     -0.579410    17A     -0.549809    18A     -0.529932
      19A     -0.524402    20A     -0.507720    21A     -0.499314
      22A     -0.485276    23A     -0.451219    24A     -0.442940
      25A     -0.435616

  @DF-RHF Final Energy:  -235.44699761397354

   => Energetics <=

    Nuclear Repulsion Energy =            266.5510198619791140
    One-Electron Energy =                -844.6977844788634684
    Two-Electron Energy =                 342.6997670029108463
    Total Energy =                       -235.4469976139735650
  Basis Set: (AUG-CC-PVTZ AUX)
    Blend: AUG-CC-PVTZ-RI
    Molecular point group: c1

    Geometry (in Angstrom), charge = 0, multiplicity = 1:

       Center              X                  Y                   Z               Mass
    ------------   -----------------  -----------------  -----------------  -----------------
         C           -0.411488854508    -0.017322280193    -0.006915899258    12.000000000000
         C            0.866945945492     0.821157419807     0.000277700742    12.000000000000
         C           -0.518882054508    -0.883744580193    -1.247920299258    12.000000000000
         C           -1.612714054508     0.972689419807     0.000366700742    12.000000000000
         C           -0.518642054508    -0.881507580193     1.251754700742    12.000000000000
         C            2.175168945492     0.031602419807     0.001074700742    12.000000000000
         H            0.849984945492     1.480429419807    -0.878396299258     1.007825032230
         H            0.849985945492     1.482195419807     0.877624700742     1.007825032230
         H            0.270394945492    -1.641098580193    -1.265485299258     1.007825032230
         H           -0.432449054508    -0.279601580193    -2.158231299258     1.007825032230
         H           -1.480889054508    -1.406916580193    -1.280809299258     1.007825032230
         H           -1.587678054508     1.616839419807     0.886308700742     1.007825032230
         H           -1.587877054508     1.615213419807    -0.886759299258     1.007825032230
         H           -2.566086054508     0.432874419807     0.000965700742     1.007825032230
         H            0.270557945492    -1.638908580193     1.270406700742     1.007825032230
         H           -1.480706054508    -1.404497580193     1.285842700742     1.007825032230
         H           -0.431863054508    -0.275737580193     2.160947700742     1.007825032230
         H            2.265708945492    -0.605159580193    -0.882822299258     1.007825032230
         H            3.028428945492     0.716736419807     0.000047700742     1.007825032230
         H            2.266004945492    -0.602871580193     0.886581700742     1.007825032230

  Basis Set: AUG-CC-PVTZ
    Blend: AUG-CC-PVTZ
  Basis Set: (AUG-CC-PVTZ AUX)
    Blend: AUG-CC-PVTZ-JKFIT
	 Reference Energy          =    -235.4469976139735365 [Eh]
	 Singles Energy            =      -0.0000000000000000 [Eh]
	 Same-Spin Energy          =      -0.2554120715366329 [Eh]
	 Opposite-Spin Energy      =      -0.9541382667968387 [Eh]
	 Correlation Energy        =      -1.2095503383334716 [Eh]
	 Total Energy              =    -236.6565479523069939 [Eh]

	 ================> DF-SCS-MP2 Energies <==================
	-----------------------------------------------------------
	 SCS Same-Spin Scale       =       0.3333333333333333 [-]
	 SCS Opposite-Spin Scale   =       1.2000000000000000 [-]
	 SCS Same-Spin Energy      =      -0.0851373571788776 [Eh]
	 SCS Opposite-Spin Energy  =      -1.1449659201562064 [Eh]
	 SCS Correlation Energy    =      -1.2301032773350840 [Eh]
	 SCS Total Energy          =    -236.6771008913086121 [Eh]
	-----------------------------------------------------------

  Dipole Moment: [D]
     X:     0.0614      Y:     0.0251      Z:    -0.0039     Total:     0.0664

*** Psi4 exiting successfully. Buy a developer a beer!
