                               Psi4 1.4a3.dev225

  ==> Input File <==

--------------------------------------------------------------------------
#psi4
#
memory 32 gb

molecule  {
0 1
  C        0.4325650     0.0000100    -0.0000020
  C       -0.8671790     0.8245630    -0.0000540
  C        0.5185540    -0.8790830     1.2499350
  C        1.6124760     0.9760580    -0.0001380
  C        0.5184830    -0.8793570    -1.2497460
  C       -2.1754120     0.0349770     0.0000010
  H       -0.8510080     1.4547328     0.8379539
  H       -0.8502460     1.4846590    -0.8781100
  H       -0.2707110    -1.6364310     1.2681610
  H        0.4320040    -0.2740170     2.1596200
  H        1.4805750    -1.4021870     1.2834330
  H        1.5875310     1.6192780    -0.8867600
  H        1.5875470     1.6195060     0.8863170
  H        2.5658350     0.4362190    -0.0000780
  H       -0.2707460    -1.6367490    -1.2677310
  H        1.4805270    -1.4024220    -1.2832170
  H        0.4318210    -0.2745040    -2.1595630
  H       -2.2660690    -0.6006200     0.8847210
  H       -3.0286490     0.7201330     0.0000090
  H       -2.2661130    -0.6006550    -0.8846890
units angstrom
no_reorient  #important for SAPT in psi4, default
symmetry c1  #important for SAPT in psi4, default
}

set PROPERTIES_ORIGIN ["COM"]
properties('MP2/aug-cc-pvtz', properties = ['dipole'])
--------------------------------------------------------------------------

    Molecular point group: c1
  Charge       = 0
  Multiplicity = 1
  Basis Set: AUG-CC-PVTZ
    Blend: AUG-CC-PVTZ
  Basis Set: (AUG-CC-PVTZ AUX)
    Blend: AUG-CC-PVTZ-JKFIT

    Orbital Energies [Eh]
    ---------------------

    Doubly Occupied:

       1A    -11.226769     2A    -11.208453     3A    -11.207313
       4A    -11.206935     5A    -11.206887     6A    -11.206417
       7A     -1.110081     8A     -0.997247     9A     -0.926822
      10A     -0.926718    11A     -0.851314    12A     -0.723420
      13A     -0.626338    14A     -0.623243    15A     -0.596102
      16A     -0.581074    17A     -0.549825    18A     -0.529487
      19A     -0.523505    20A     -0.508220    21A     -0.500677
      22A     -0.486265    23A     -0.448870    24A     -0.444808
      25A     -0.437796

  @DF-RHF Final Energy:  -235.44683139643882

   => Energetics <=

    Nuclear Repulsion Energy =            266.7366520324664521
    One-Electron Energy =                -845.0577998168574823
    Two-Electron Energy =                 342.8743163879522626
    Total Energy =                       -235.4468313964388244
  Basis Set: (AUG-CC-PVTZ AUX)
    Blend: AUG-CC-PVTZ-RI
    Molecular point group: c1

    Geometry (in Angstrom), charge = 0, multiplicity = 1:

       Center              X                  Y                   Z               Mass
    ------------   -----------------  -----------------  -----------------  -----------------
         C            0.429844256796    -0.004973194190     0.000465933900    12.000000000000
         C           -0.869899743204     0.819579805810     0.000413933900    12.000000000000
         C            0.515833256796    -0.884066194190     1.250402933900    12.000000000000
         C            1.609755256796     0.971074805810     0.000329933900    12.000000000000
         C            0.515762256796    -0.884340194190    -1.249278066100    12.000000000000
         C           -2.178132743204     0.029993805810     0.000468933900    12.000000000000
         H           -0.853728743204     1.449749605810     0.838421833900     1.007825032230
         H           -0.852966743204     1.479675805810    -0.877642066100     1.007825032230
         H           -0.273431743204    -1.641414194190     1.268628933900     1.007825032230
         H            0.429283256796    -0.279000194190     2.160087933900     1.007825032230
         H            1.477854256796    -1.407170194190     1.283900933900     1.007825032230
         H            1.584810256796     1.614294805810    -0.886292066100     1.007825032230
         H            1.584826256796     1.614522805810     0.886784933900     1.007825032230
         H            2.563114256796     0.431235805810     0.000389933900     1.007825032230
         H           -0.273466743204    -1.641732194190    -1.267263066100     1.007825032230
         H            1.477806256796    -1.407405194190    -1.282749066100     1.007825032230
         H            0.429100256796    -0.279487194190    -2.159095066100     1.007825032230
         H           -2.268789743204    -0.605603194190     0.885188933900     1.007825032230
         H           -3.031369743204     0.715149805810     0.000476933900     1.007825032230
         H           -2.268833743204    -0.605638194190    -0.884221066100     1.007825032230

  Basis Set: AUG-CC-PVTZ
    Blend: AUG-CC-PVTZ
  Basis Set: (AUG-CC-PVTZ AUX)
    Blend: AUG-CC-PVTZ-JKFIT
	 Reference Energy          =    -235.4468313964388244 [Eh]
	 Singles Energy            =      -0.0000000000000000 [Eh]
	 Same-Spin Energy          =      -0.2553565192613355 [Eh]
	 Opposite-Spin Energy      =      -0.9537334000148443 [Eh]
	 Correlation Energy        =      -1.2090899192761797 [Eh]
	 Total Energy              =    -236.6559213157150054 [Eh]

	 ================> DF-SCS-MP2 Energies <==================
	-----------------------------------------------------------
	 SCS Same-Spin Scale       =       0.3333333333333333 [-]
	 SCS Opposite-Spin Scale   =       1.2000000000000000 [-]
	 SCS Same-Spin Energy      =      -0.0851188397537785 [Eh]
	 SCS Opposite-Spin Energy  =      -1.1444800800178132 [Eh]
	 SCS Correlation Energy    =      -1.2295989197715917 [Eh]
	 SCS Total Energy          =    -236.6764303162104284 [Eh]
	-----------------------------------------------------------

  Dipole Moment: [D]
     X:    -0.0528      Y:     0.0608      Z:     0.0274     Total:     0.0851

*** Psi4 exiting successfully. Buy a developer a beer!
