                               Psi4 1.4a3.dev225

  ==> Input File <==

--------------------------------------------------------------------------
#psi4
#
memory 32 gb

molecule  {
0 1
  C        0.4325650     0.0000100    -0.0000020
  C       -0.8671790     0.8245630    -0.0000540
  C        0.5185540    -0.8790830     1.2499350
  C        1.6124760     0.9760580    -0.0001380
  C        0.5184830    -0.8793570    -1.2497460
  C       -2.1754120     0.0349770     0.0000010
  H       -0.8499286     1.4967989     0.8938939
  H       -0.8502460     1.4846590    -0.8781100
  H       -0.2707110    -1.6364310     1.2681610
  H        0.4320040    -0.2740170     2.1596200
  H        1.4805750    -1.4021870     1.2834330
  H        1.5875310     1.6192780    -0.8867600
  H        1.5875470     1.6195060     0.8863170
  H        2.5658350     0.4362190    -0.0000780
  H       -0.2707460    -1.6367490    -1.2677310
  H        1.4805270    -1.4024220    -1.2832170
  H        0.4318210    -0.2745040    -2.1595630
  H       -2.2660690    -0.6006200     0.8847210
  H       -3.0286490     0.7201330     0.0000090
  H       -2.2661130    -0.6006550    -0.8846890
units angstrom
no_reorient  #important for SAPT in psi4, default
symmetry c1  #important for SAPT in psi4, default
}

set PROPERTIES_ORIGIN ["COM"]
properties('MP2/aug-cc-pvtz', properties = ['dipole'])
--------------------------------------------------------------------------

    Molecular point group: c1
  Charge       = 0
  Multiplicity = 1
  Basis Set: AUG-CC-PVTZ
    Blend: AUG-CC-PVTZ
  Basis Set: (AUG-CC-PVTZ AUX)
    Blend: AUG-CC-PVTZ-JKFIT

    Orbital Energies [Eh]
    ---------------------

    Doubly Occupied:

       1A    -11.227498     2A    -11.216354     3A    -11.209120
       4A    -11.207156     5A    -11.206936     6A    -11.206851
       7A     -1.109368     8A     -0.995538     9A     -0.927084
      10A     -0.926587    11A     -0.847851    12A     -0.720814
      13A     -0.623959    14A     -0.621368    15A     -0.596452
      16A     -0.580670    17A     -0.549979    18A     -0.529654
      19A     -0.523717    20A     -0.507965    21A     -0.499479
      22A     -0.483149    23A     -0.447432    24A     -0.444813
      25A     -0.438186

  @DF-RHF Final Energy:  -235.44716844768368

   => Energetics <=

    Nuclear Repulsion Energy =            266.4058819364602755
    One-Electron Energy =                -844.4101391114430726
    Two-Electron Energy =                 342.5570887272990603
    Total Energy =                       -235.4471684476836799
  Basis Set: (AUG-CC-PVTZ AUX)
    Blend: AUG-CC-PVTZ-RI
    Molecular point group: c1

    Geometry (in Angstrom), charge = 0, multiplicity = 1:

       Center              X                  Y                   Z               Mass
    ------------   -----------------  -----------------  -----------------  -----------------
         C            0.429831623513    -0.005465535265    -0.000188787115    12.000000000000
         C           -0.869912376487     0.819087464735    -0.000240787115    12.000000000000
         C            0.515820623513    -0.884558535265     1.249748212885    12.000000000000
         C            1.609742623513     0.970582464735    -0.000324787115    12.000000000000
         C            0.515749623513    -0.884832535265    -1.249932787115    12.000000000000
         C           -2.178145376487     0.029501464735    -0.000185787115    12.000000000000
         H           -0.852661976487     1.491323364735     0.893707112885     1.007825032230
         H           -0.852979376487     1.479183464735    -0.878296787115     1.007825032230
         H           -0.273444376487    -1.641906535265     1.267974212885     1.007825032230
         H            0.429270623513    -0.279492535265     2.159433212885     1.007825032230
         H            1.477841623513    -1.407662535265     1.283246212885     1.007825032230
         H            1.584797623513     1.613802464735    -0.886946787115     1.007825032230
         H            1.584813623513     1.614030464735     0.886130212885     1.007825032230
         H            2.563101623513     0.430743464735    -0.000264787115     1.007825032230
         H           -0.273479376487    -1.642224535265    -1.267917787115     1.007825032230
         H            1.477793623513    -1.407897535265    -1.283403787115     1.007825032230
         H            0.429087623513    -0.279979535265    -2.159749787115     1.007825032230
         H           -2.268802376487    -0.606095535265     0.884534212885     1.007825032230
         H           -3.031382376487     0.714657464735    -0.000177787115     1.007825032230
         H           -2.268846376487    -0.606130535265    -0.884875787115     1.007825032230

  Basis Set: AUG-CC-PVTZ
    Blend: AUG-CC-PVTZ
  Basis Set: (AUG-CC-PVTZ AUX)
    Blend: AUG-CC-PVTZ-JKFIT
	 Reference Energy          =    -235.4471684476836799 [Eh]
	 Singles Energy            =      -0.0000000000000000 [Eh]
	 Same-Spin Energy          =      -0.2554025039651635 [Eh]
	 Opposite-Spin Energy      =      -0.9542144072757055 [Eh]
	 Correlation Energy        =      -1.2096169112408690 [Eh]
	 Total Energy              =    -236.6567853589245374 [Eh]

	 ================> DF-SCS-MP2 Energies <==================
	-----------------------------------------------------------
	 SCS Same-Spin Scale       =       0.3333333333333333 [-]
	 SCS Opposite-Spin Scale   =       1.2000000000000000 [-]
	 SCS Same-Spin Energy      =      -0.0851341679883878 [Eh]
	 SCS Opposite-Spin Energy  =      -1.1450572887308466 [Eh]
	 SCS Correlation Energy    =      -1.2301914567192345 [Eh]
	 SCS Total Energy          =    -236.6773599044029197 [Eh]
	-----------------------------------------------------------

  Dipole Moment: [D]
     X:    -0.0534      Y:     0.0190      Z:    -0.0120     Total:     0.0579

*** Psi4 exiting successfully. Buy a developer a beer!
