                               Psi4 1.3.2 release

  ==> Input File <==

--------------------------------------------------------------------------
#psi4
#
memory 32 gb

molecule  {
0 1
  C       -0.4325780     0.0000000    -0.0000100
  C        0.8920262     0.7784950     0.0929871
  C       -0.5186390    -0.8803510    -1.2490450
  C       -1.6124710     0.9760830    -0.0007580
  C       -0.5183990    -0.8781140     1.2506300
  C        2.1754120     0.0349960    -0.0000500
  H        0.8502280     1.4838230    -0.8795210
  H        0.8502290     1.4855890     0.8765000
  H        0.2706380    -1.6377050    -1.2666100
  H       -0.4322060    -0.2762080    -2.1593560
  H       -1.4806460    -1.4035230    -1.2819340
  H       -1.5874350     1.6202330     0.8851840
  H       -1.5876340     1.6186070    -0.8878840
  H       -2.5658430     0.4362680    -0.0001590
  H        0.2708010    -1.6355150     1.2692820
  H       -1.4804630    -1.4011040     1.2847180
  H       -0.4316200    -0.2723440     2.1598230
  H        2.2659520    -0.6017660    -0.8839470
  H        3.0286720     0.7201300    -0.0010770
  H        2.2662480    -0.5994780     0.8854570
units angstrom
no_reorient  #important for SAPT in psi4, default
symmetry c1  #important for SAPT in psi4, default
}

set PROPERTIES_ORIGIN ["COM"]
properties('MP2/aug-cc-pvtz', properties = ['dipole'])
--------------------------------------------------------------------------

    Molecular point group: c1
  Charge       = 0
  Multiplicity = 1
  Basis Set: AUG-CC-PVTZ
    Blend: AUG-CC-PVTZ
  Basis Set: (AUG-CC-PVTZ AUX)
    Blend: AUG-CC-PVTZ-JKFIT

    Orbital Energies [Eh]
    ---------------------

    Doubly Occupied:

       1A    -11.228537     2A    -11.217826     3A    -11.208867
       4A    -11.208020     5A    -11.207951     6A    -11.205817
       7A     -1.111408     8A     -1.003986     9A     -0.927706
      10A     -0.926276    11A     -0.847396    12A     -0.721622
      13A     -0.628442    14A     -0.616929    15A     -0.599155
      16A     -0.581823    17A     -0.554866    18A     -0.530518
      19A     -0.524350    20A     -0.512087    21A     -0.507106
      22A     -0.474321    23A     -0.451863    24A     -0.448757
      25A     -0.420432

  @DF-RHF Final Energy:  -235.43559235362977

   => Energetics <=

    Nuclear Repulsion Energy =            266.8055718820513675
    One-Electron Energy =                -845.1502090250287438
    Two-Electron Energy =                 342.9090447893476039
    Total Energy =                       -235.4355923536297723
  Basis Set: (AUG-CC-PVTZ AUX)
    Blend: AUG-CC-PVTZ-RI
    Molecular point group: c1

    Geometry (in Angstrom), charge = 0, multiplicity = 1:

       Center              X                  Y                   Z               Mass
    ------------   -----------------  -----------------  -----------------  -----------------
         C           -0.433309502071     0.001083595660    -0.013080895375    12.000000000000
         C            0.891294697929     0.779578595660     0.079916204625    12.000000000000
         C           -0.519370502071    -0.879267404340    -1.262115895375    12.000000000000
         C           -1.613202502071     0.977166595660    -0.013828895375    12.000000000000
         C           -0.519130502071    -0.877030404340     1.237559104625    12.000000000000
         C            2.174680497929     0.036079595660    -0.013120895375    12.000000000000
         H            0.849496497929     1.484906595660    -0.892591895375     1.007825032230
         H            0.849497497929     1.486672595660     0.863429104625     1.007825032230
         H            0.269906497929    -1.636621404340    -1.279680895375     1.007825032230
         H           -0.432937502071    -0.275124404340    -2.172426895375     1.007825032230
         H           -1.481377502071    -1.402439404340    -1.295004895375     1.007825032230
         H           -1.588166502071     1.621316595660     0.872113104625     1.007825032230
         H           -1.588365502071     1.619690595660    -0.900954895375     1.007825032230
         H           -2.566574502071     0.437351595660    -0.013229895375     1.007825032230
         H            0.270069497929    -1.634431404340     1.256211104625     1.007825032230
         H           -1.481194502071    -1.400020404340     1.271647104625     1.007825032230
         H           -0.432351502071    -0.271260404340     2.146752104625     1.007825032230
         H            2.265220497929    -0.600682404340    -0.897017895375     1.007825032230
         H            3.027940497929     0.721213595660    -0.014147895375     1.007825032230
         H            2.265516497929    -0.598394404340     0.872386104625     1.007825032230

  Basis Set: AUG-CC-PVTZ
    Blend: AUG-CC-PVTZ
  Basis Set: (AUG-CC-PVTZ AUX)
    Blend: AUG-CC-PVTZ-JKFIT
	 Reference Energy          =    -235.4355923536297723 [Eh]
	 Singles Energy            =      -0.0000000000000000 [Eh]
	 Same-Spin Energy          =      -0.2559402032698063 [Eh]
	 Opposite-Spin Energy      =      -0.9550826519740839 [Eh]
	 Correlation Energy        =      -1.2110228552438902 [Eh]
	 Total Energy              =    -236.6466152088736692 [Eh]

	 ================> DF-SCS-MP2 Energies <==================
	-----------------------------------------------------------
	 SCS Same-Spin Scale       =       0.3333333333333333 [-]
	 SCS Opposite-Spin Scale   =       1.2000000000000000 [-]
	 SCS Same-Spin Energy      =      -0.0853134010899354 [Eh]
	 SCS Opposite-Spin Energy  =      -1.1460991823689006 [Eh]
	 SCS Correlation Energy    =      -1.2314125834588361 [Eh]
	 SCS Total Energy          =    -236.6670049370886204 [Eh]
	-----------------------------------------------------------

  Dipole Moment: [D]
     X:     0.0631      Y:    -0.0091      Z:     0.0493     Total:     0.0806

*** Psi4 exiting successfully. Buy a developer a beer!
