                               Psi4 1.3.2 release

  ==> Input File <==

--------------------------------------------------------------------------
#psi4
#
memory 32 gb

molecule  {
0 1
  C       -0.4325780     0.0000000    -0.0000100
  C        0.7827472     0.7709825    -0.0007926
  C       -0.5186390    -0.8803510    -1.2490450
  C       -1.6124710     0.9760830    -0.0007580
  C       -0.5183990    -0.8781140     1.2506300
  C        2.1754120     0.0349960    -0.0000500
  H        0.8502280     1.4838230    -0.8795210
  H        0.8502290     1.4855890     0.8765000
  H        0.2706380    -1.6377050    -1.2666100
  H       -0.4322060    -0.2762080    -2.1593560
  H       -1.4806460    -1.4035230    -1.2819340
  H       -1.5874350     1.6202330     0.8851840
  H       -1.5876340     1.6186070    -0.8878840
  H       -2.5658430     0.4362680    -0.0001590
  H        0.2708010    -1.6355150     1.2692820
  H       -1.4804630    -1.4011040     1.2847180
  H       -0.4316200    -0.2723440     2.1598230
  H        2.2659520    -0.6017660    -0.8839470
  H        3.0286720     0.7201300    -0.0010770
  H        2.2662480    -0.5994780     0.8854570
units angstrom
no_reorient  #important for SAPT in psi4, default
symmetry c1  #important for SAPT in psi4, default
}

set PROPERTIES_ORIGIN ["COM"]
properties('MP2/aug-cc-pvtz', properties = ['dipole'])
--------------------------------------------------------------------------

    Molecular point group: c1
  Charge       = 0
  Multiplicity = 1
  Basis Set: AUG-CC-PVTZ
    Blend: AUG-CC-PVTZ
  Basis Set: (AUG-CC-PVTZ AUX)
    Blend: AUG-CC-PVTZ-JKFIT

    Orbital Energies [Eh]
    ---------------------

    Doubly Occupied:

       1A    -11.223128     2A    -11.218020     3A    -11.211097
       4A    -11.207980     5A    -11.207959     6A    -11.207556
       7A     -1.122322     8A     -0.986307     9A     -0.929053
      10A     -0.928613    11A     -0.857276    12A     -0.722074
      13A     -0.627720    14A     -0.621297    15A     -0.599597
      16A     -0.577912    17A     -0.550208    18A     -0.528854
      19A     -0.523755    20A     -0.508274    21A     -0.491602
      22A     -0.481926    23A     -0.464714    24A     -0.438562
      25A     -0.433064

  @DF-RHF Final Energy:  -235.43625354498181

   => Energetics <=

    Nuclear Repulsion Energy =            267.7123820730842567
    One-Electron Energy =                -846.9595271612432725
    Two-Electron Energy =                 343.8108915431771493
    Total Energy =                       -235.4362535449818097
  Basis Set: (AUG-CC-PVTZ AUX)
    Blend: AUG-CC-PVTZ-RI
    Molecular point group: c1

    Geometry (in Angstrom), charge = 0, multiplicity = 1:

       Center              X                  Y                   Z               Mass
    ------------   -----------------  -----------------  -----------------  -----------------
         C           -0.418080668647     0.002130517860    -0.000012003549    12.000000000000
         C            0.797244531353     0.773113017860    -0.000794603549    12.000000000000
         C           -0.504141668647    -0.878220482140    -1.249047003549    12.000000000000
         C           -1.597973668647     0.978213517860    -0.000760003549    12.000000000000
         C           -0.503901668647    -0.875983482140     1.250627996451    12.000000000000
         C            2.189909331353     0.037126517860    -0.000052003549    12.000000000000
         H            0.864725331353     1.485953517860    -0.879523003549     1.007825032230
         H            0.864726331353     1.487719517860     0.876497996451     1.007825032230
         H            0.285135331353    -1.635574482140    -1.266612003549     1.007825032230
         H           -0.417708668647    -0.274077482140    -2.159358003549     1.007825032230
         H           -1.466148668647    -1.401392482140    -1.281936003549     1.007825032230
         H           -1.572937668647     1.622363517860     0.885181996451     1.007825032230
         H           -1.573136668647     1.620737517860    -0.887886003549     1.007825032230
         H           -2.551345668647     0.438398517860    -0.000161003549     1.007825032230
         H            0.285298331353    -1.633384482140     1.269279996451     1.007825032230
         H           -1.465965668647    -1.398973482140     1.284715996451     1.007825032230
         H           -0.417122668647    -0.270213482140     2.159820996451     1.007825032230
         H            2.280449331353    -0.599635482140    -0.883949003549     1.007825032230
         H            3.043169331353     0.722260517860    -0.001079003549     1.007825032230
         H            2.280745331353    -0.597347482140     0.885454996451     1.007825032230

  Basis Set: AUG-CC-PVTZ
    Blend: AUG-CC-PVTZ
  Basis Set: (AUG-CC-PVTZ AUX)
    Blend: AUG-CC-PVTZ-JKFIT
	 Reference Energy          =    -235.4362535449818097 [Eh]
	 Singles Energy            =      -0.0000000000000000 [Eh]
	 Same-Spin Energy          =      -0.2563262185173134 [Eh]
	 Opposite-Spin Energy      =      -0.9555289004698352 [Eh]
	 Correlation Energy        =      -1.2118551189871485 [Eh]
	 Total Energy              =    -236.6481086639689693 [Eh]

	 ================> DF-SCS-MP2 Energies <==================
	-----------------------------------------------------------
	 SCS Same-Spin Scale       =       0.3333333333333333 [-]
	 SCS Opposite-Spin Scale   =       1.2000000000000000 [-]
	 SCS Same-Spin Energy      =      -0.0854420728391045 [Eh]
	 SCS Opposite-Spin Energy  =      -1.1466346805638021 [Eh]
	 SCS Correlation Energy    =      -1.2320767534029067 [Eh]
	 SCS Total Energy          =    -236.6683302983847170 [Eh]
	-----------------------------------------------------------

  Dipole Moment: [D]
     X:     0.0026      Y:    -0.0034      Z:    -0.0000     Total:     0.0043

*** Psi4 exiting successfully. Buy a developer a beer!
