                               Psi4 1.3.2 release

  ==> Input File <==

--------------------------------------------------------------------------
#psi4
#
memory 32 gb

molecule  {
0 1
  C       -0.4325780     0.0000000    -0.0000100
  C        1.0360726     0.9316880    -0.0009558
  C       -0.5186390    -0.8803510    -1.2490450
  C       -1.6124710     0.9760830    -0.0007580
  C       -0.5183990    -0.8781140     1.2506300
  C        2.1754120     0.0349960    -0.0000500
  H        0.8502280     1.4838230    -0.8795210
  H        0.8502290     1.4855890     0.8765000
  H        0.2706380    -1.6377050    -1.2666100
  H       -0.4322060    -0.2762080    -2.1593560
  H       -1.4806460    -1.4035230    -1.2819340
  H       -1.5874350     1.6202330     0.8851840
  H       -1.5876340     1.6186070    -0.8878840
  H       -2.5658430     0.4362680    -0.0001590
  H        0.2708010    -1.6355150     1.2692820
  H       -1.4804630    -1.4011040     1.2847180
  H       -0.4316200    -0.2723440     2.1598230
  H        2.2659520    -0.6017660    -0.8839470
  H        3.0286720     0.7201300    -0.0010770
  H        2.2662480    -0.5994780     0.8854570
units angstrom
no_reorient  #important for SAPT in psi4, default
symmetry c1  #important for SAPT in psi4, default
}

set PROPERTIES_ORIGIN ["COM"]
properties('MP2/aug-cc-pvtz', properties = ['dipole'])
--------------------------------------------------------------------------

    Molecular point group: c1
  Charge       = 0
  Multiplicity = 1
  Basis Set: AUG-CC-PVTZ
    Blend: AUG-CC-PVTZ
  Basis Set: (AUG-CC-PVTZ AUX)
    Blend: AUG-CC-PVTZ-JKFIT

    Orbital Energies [Eh]
    ---------------------

    Doubly Occupied:

       1A    -11.231648     2A    -11.213122     3A    -11.207061
       4A    -11.206307     5A    -11.206004     6A    -11.205986
       7A     -1.094523     8A     -1.015009     9A     -0.924223
      10A     -0.923900    11A     -0.840209    12A     -0.718190
      13A     -0.630955    14A     -0.618874    15A     -0.592317
      16A     -0.584537    17A     -0.551930    18A     -0.540636
      19A     -0.524206    20A     -0.516838    21A     -0.508472
      22A     -0.491636    23A     -0.453340    24A     -0.452336
      25A     -0.377671

  @DF-RHF Final Energy:  -235.41929459017345

   => Energetics <=

    Nuclear Repulsion Energy =            264.2926780289234330
    One-Electron Energy =                -840.1640862872851585
    Two-Electron Energy =                 340.4521136681883036
    Total Energy =                       -235.4192945901734220
  Basis Set: (AUG-CC-PVTZ AUX)
    Blend: AUG-CC-PVTZ-RI
    Molecular point group: c1

    Geometry (in Angstrom), charge = 0, multiplicity = 1:

       Center              X                  Y                   Z               Mass
    ------------   -----------------  -----------------  -----------------  -----------------
         C           -0.453383428725    -0.020264977064     0.000010739573    12.000000000000
         C            1.015267171275     0.911423022936    -0.000935060427    12.000000000000
         C           -0.539444428725    -0.900615977064    -1.249024260427    12.000000000000
         C           -1.633276428725     0.955818022936    -0.000737260427    12.000000000000
         C           -0.539204428725    -0.898378977064     1.250650739573    12.000000000000
         C            2.154606571275     0.014731022936    -0.000029260427    12.000000000000
         H            0.829422571275     1.463558022936    -0.879500260427     1.007825032230
         H            0.829423571275     1.465324022936     0.876520739573     1.007825032230
         H            0.249832571275    -1.657969977064    -1.266589260427     1.007825032230
         H           -0.453011428725    -0.296472977064    -2.159335260427     1.007825032230
         H           -1.501451428725    -1.423787977064    -1.281913260427     1.007825032230
         H           -1.608240428725     1.599968022936     0.885204739573     1.007825032230
         H           -1.608439428725     1.598342022936    -0.887863260427     1.007825032230
         H           -2.586648428725     0.416003022936    -0.000138260427     1.007825032230
         H            0.249995571275    -1.655779977064     1.269302739573     1.007825032230
         H           -1.501268428725    -1.421368977064     1.284738739573     1.007825032230
         H           -0.452425428725    -0.292608977064     2.159843739573     1.007825032230
         H            2.245146571275    -0.622030977064    -0.883926260427     1.007825032230
         H            3.007866571275     0.699865022936    -0.001056260427     1.007825032230
         H            2.245442571275    -0.619742977064     0.885477739573     1.007825032230

  Basis Set: AUG-CC-PVTZ
    Blend: AUG-CC-PVTZ
  Basis Set: (AUG-CC-PVTZ AUX)
    Blend: AUG-CC-PVTZ-JKFIT
	 Reference Energy          =    -235.4192945901734504 [Eh]
	 Singles Energy            =      -0.0000000000000000 [Eh]
	 Same-Spin Energy          =      -0.2561608764998242 [Eh]
	 Opposite-Spin Energy      =      -0.9557833597512129 [Eh]
	 Correlation Energy        =      -1.2119442362510371 [Eh]
	 Total Energy              =    -236.6312388264244930 [Eh]

	 ================> DF-SCS-MP2 Energies <==================
	-----------------------------------------------------------
	 SCS Same-Spin Scale       =       0.3333333333333333 [-]
	 SCS Opposite-Spin Scale   =       1.2000000000000000 [-]
	 SCS Same-Spin Energy      =      -0.0853869588332747 [Eh]
	 SCS Opposite-Spin Energy  =      -1.1469400317014553 [Eh]
	 SCS Correlation Energy    =      -1.2323269905347300 [Eh]
	 SCS Total Energy          =    -236.6516215807081664 [Eh]
	-----------------------------------------------------------

  Dipole Moment: [D]
     X:     0.1121      Y:     0.0350      Z:    -0.0000     Total:     0.1175

*** Psi4 exiting successfully. Buy a developer a beer!
