                               Psi4 1.3.2 release

  ==> Input File <==

--------------------------------------------------------------------------
#psi4
#
memory 32 gb

molecule  {
0 1
  C       -0.4325780     0.0000000    -0.0000100
  C        0.8671890     0.8245510    -0.0008470
  C       -0.5186390    -0.8803510    -1.2490450
  C       -1.6124710     0.9760830    -0.0007580
  C       -0.5183990    -0.8781140     1.2506300
  C        2.1754120     0.0349960    -0.0000500
  H        0.8502280     1.4838230    -0.8795210
  H        0.8502290     1.4855890     0.8765000
  H        0.2706380    -1.6377050    -1.2666100
  H       -0.4322060    -0.2762080    -2.1593560
  H       -1.4806460    -1.4035230    -1.2819340
  H       -1.5874350     1.6202330     0.8851840
  H       -1.5876340     1.6186070    -0.8878840
  H       -2.5658430     0.4362680    -0.0001590
  H        0.2708010    -1.6355150     1.2692820
  H       -1.4934534    -1.3672297     1.3520327
  H       -0.4316200    -0.2723440     2.1598230
  H        2.2659520    -0.6017660    -0.8839470
  H        3.0286720     0.7201300    -0.0010770
  H        2.2662480    -0.5994780     0.8854570
units angstrom
no_reorient  #important for SAPT in psi4, default
symmetry c1  #important for SAPT in psi4, default
}

set PROPERTIES_ORIGIN ["COM"]
properties('MP2/aug-cc-pvtz', properties = ['dipole'])
--------------------------------------------------------------------------

    Molecular point group: c1
  Charge       = 0
  Multiplicity = 1
  Basis Set: AUG-CC-PVTZ
    Blend: AUG-CC-PVTZ
  Basis Set: (AUG-CC-PVTZ AUX)
    Blend: AUG-CC-PVTZ-JKFIT

    Orbital Energies [Eh]
    ---------------------

    Doubly Occupied:

       1A    -11.227715     2A    -11.214062     3A    -11.208995
       4A    -11.206910     5A    -11.206809     6A    -11.206788
       7A     -1.109411     8A     -0.995946     9A     -0.927369
      10A     -0.926398    11A     -0.848847    12A     -0.722352
      13A     -0.623577    14A     -0.622449    15A     -0.596188
      16A     -0.581009    17A     -0.549922    18A     -0.528888
      19A     -0.522438    20A     -0.508895    21A     -0.499961
      22A     -0.483298    23A     -0.448276    24A     -0.444933
      25A     -0.438324

  @DF-RHF Final Energy:  -235.44720548606159

   => Energetics <=

    Nuclear Repulsion Energy =            266.4396129451293405
    One-Electron Energy =                -844.4741119479112967
    Two-Electron Energy =                 342.5872935167204218
    Total Energy =                       -235.4472054860615913
  Basis Set: (AUG-CC-PVTZ AUX)
    Blend: AUG-CC-PVTZ-RI
    Molecular point group: c1

    Geometry (in Angstrom), charge = 0, multiplicity = 1:

       Center              X                  Y                   Z               Mass
    ------------   -----------------  -----------------  -----------------  -----------------
         C           -0.429696215871    -0.005731111471    -0.000792272861    12.000000000000
         C            0.870070784129     0.818819888529    -0.001629272861    12.000000000000
         C           -0.515757215871    -0.886082111471    -1.249827272861    12.000000000000
         C           -1.609589215871     0.970351888529    -0.001540272861    12.000000000000
         C           -0.515517215871    -0.883845111471     1.249847727139    12.000000000000
         C            2.178293784129     0.029264888529    -0.000832272861    12.000000000000
         H            0.853109784129     1.478091888529    -0.880303272861     1.007825032230
         H            0.853110784129     1.479857888529     0.875717727139     1.007825032230
         H            0.273519784129    -1.643436111471    -1.267392272861     1.007825032230
         H           -0.429324215871    -0.281939111471    -2.160138272861     1.007825032230
         H           -1.477764215871    -1.409254111471    -1.282716272861     1.007825032230
         H           -1.584553215871     1.614501888529     0.884401727139     1.007825032230
         H           -1.584752215871     1.612875888529    -0.888666272861     1.007825032230
         H           -2.562961215871     0.430536888529    -0.000941272861     1.007825032230
         H            0.273682784129    -1.641246111471     1.268499727139     1.007825032230
         H           -1.490571615871    -1.372960811471     1.351250427139     1.007825032230
         H           -0.428738215871    -0.278075111471     2.159040727139     1.007825032230
         H            2.268833784129    -0.607497111471    -0.884729272861     1.007825032230
         H            3.031553784129     0.714398888529    -0.001859272861     1.007825032230
         H            2.269129784129    -0.605209111471     0.884674727139     1.007825032230

  Basis Set: AUG-CC-PVTZ
    Blend: AUG-CC-PVTZ
  Basis Set: (AUG-CC-PVTZ AUX)
    Blend: AUG-CC-PVTZ-JKFIT
	 Reference Energy          =    -235.4472054860615913 [Eh]
	 Singles Energy            =      -0.0000000000000000 [Eh]
	 Same-Spin Energy          =      -0.2553726085403948 [Eh]
	 Opposite-Spin Energy      =      -0.9540396856392472 [Eh]
	 Correlation Energy        =      -1.2094122941796419 [Eh]
	 Total Energy              =    -236.6566177802412199 [Eh]

	 ================> DF-SCS-MP2 Energies <==================
	-----------------------------------------------------------
	 SCS Same-Spin Scale       =       0.3333333333333333 [-]
	 SCS Opposite-Spin Scale   =       1.2000000000000000 [-]
	 SCS Same-Spin Energy      =      -0.0851242028467983 [Eh]
	 SCS Opposite-Spin Energy  =      -1.1448476227670967 [Eh]
	 SCS Correlation Energy    =      -1.2299718256138950 [Eh]
	 SCS Total Energy          =    -236.6771773116754787 [Eh]
	-----------------------------------------------------------

  Dipole Moment: [D]
     X:     0.0442      Y:     0.0419      Z:     0.0168     Total:     0.0632

*** Psi4 exiting successfully. Buy a developer a beer!
