                               Psi4 1.3.2 release

  ==> Input File <==

--------------------------------------------------------------------------
#psi4
#
memory 32 gb

molecule  {
0 1
  C       -0.3718940    -0.0886586     0.0000796
  C        0.8671890     0.8245510    -0.0008470
  C       -0.5186390    -0.8803510    -1.2490450
  C       -1.6124710     0.9760830    -0.0007580
  C       -0.5183990    -0.8781140     1.2506300
  C        2.1754120     0.0349960    -0.0000500
  H        0.8502280     1.4838230    -0.8795210
  H        0.8502290     1.4855890     0.8765000
  H        0.2706380    -1.6377050    -1.2666100
  H       -0.4322060    -0.2762080    -2.1593560
  H       -1.4806460    -1.4035230    -1.2819340
  H       -1.5874350     1.6202330     0.8851840
  H       -1.5876340     1.6186070    -0.8878840
  H       -2.5658430     0.4362680    -0.0001590
  H        0.2708010    -1.6355150     1.2692820
  H       -1.4804630    -1.4011040     1.2847180
  H       -0.4316200    -0.2723440     2.1598230
  H        2.2659520    -0.6017660    -0.8839470
  H        3.0286720     0.7201300    -0.0010770
  H        2.2662480    -0.5994780     0.8854570
units angstrom
no_reorient  #important for SAPT in psi4, default
symmetry c1  #important for SAPT in psi4, default
}

set PROPERTIES_ORIGIN ["COM"]
properties('MP2/aug-cc-pvtz', properties = ['dipole'])
--------------------------------------------------------------------------

    Molecular point group: c1
  Charge       = 0
  Multiplicity = 1
  Basis Set: AUG-CC-PVTZ
    Blend: AUG-CC-PVTZ
  Basis Set: (AUG-CC-PVTZ AUX)
    Blend: AUG-CC-PVTZ-JKFIT

    Orbital Energies [Eh]
    ---------------------

    Doubly Occupied:

       1A    -11.228653     2A    -11.214863     3A    -11.207262
       4A    -11.207089     5A    -11.207066     6A    -11.206879
       7A     -1.111320     8A     -0.996166     9A     -0.935520
      10A     -0.918938    11A     -0.846342    12A     -0.723791
      13A     -0.625561    14A     -0.622171    15A     -0.598629
      16A     -0.576465    17A     -0.549279    18A     -0.529608
      19A     -0.527785    20A     -0.508081    21A     -0.497642
      22A     -0.491340    23A     -0.464793    24A     -0.446416
      25A     -0.408161

  @DF-RHF Final Energy:  -235.43682855444914

   => Energetics <=

    Nuclear Repulsion Energy =            266.6353936944606744
    One-Electron Energy =                -844.8448003164645570
    Two-Electron Energy =                 342.7725780675546616
    Total Energy =                       -235.4368285544491641
  Basis Set: (AUG-CC-PVTZ AUX)
    Blend: AUG-CC-PVTZ-RI
    Molecular point group: c1

    Geometry (in Angstrom), charge = 0, multiplicity = 1:

       Center              X                  Y                   Z               Mass
    ------------   -----------------  -----------------  -----------------  -----------------
         C           -0.377621017641    -0.081638018288     0.000072691072    12.000000000000
         C            0.861461982359     0.831571581712    -0.000853908928    12.000000000000
         C           -0.524366017641    -0.873330418288    -1.249051908928    12.000000000000
         C           -1.618198017641     0.983103581712    -0.000764908928    12.000000000000
         C           -0.524126017641    -0.871093418288     1.250623091072    12.000000000000
         C            2.169684982359     0.042016581712    -0.000056908928    12.000000000000
         H            0.844500982359     1.490843581712    -0.879527908928     1.007825032230
         H            0.844501982359     1.492609581712     0.876493091072     1.007825032230
         H            0.264910982359    -1.630684418288    -1.266616908928     1.007825032230
         H           -0.437933017641    -0.269187418288    -2.159362908928     1.007825032230
         H           -1.486373017641    -1.396502418288    -1.281940908928     1.007825032230
         H           -1.593162017641     1.627253581712     0.885177091072     1.007825032230
         H           -1.593361017641     1.625627581712    -0.887890908928     1.007825032230
         H           -2.571570017641     0.443288581712    -0.000165908928     1.007825032230
         H            0.265073982359    -1.628494418288     1.269275091072     1.007825032230
         H           -1.486190017641    -1.394083418288     1.284711091072     1.007825032230
         H           -0.437347017641    -0.265323418288     2.159816091072     1.007825032230
         H            2.260224982359    -0.594745418288    -0.883953908928     1.007825032230
         H            3.022944982359     0.727150581712    -0.001083908928     1.007825032230
         H            2.260520982359    -0.592457418288     0.885450091072     1.007825032230

  Basis Set: AUG-CC-PVTZ
    Blend: AUG-CC-PVTZ
  Basis Set: (AUG-CC-PVTZ AUX)
    Blend: AUG-CC-PVTZ-JKFIT
	 Reference Energy          =    -235.4368285544491357 [Eh]
	 Singles Energy            =      -0.0000000000000000 [Eh]
	 Same-Spin Energy          =      -0.2558607700682701 [Eh]
	 Opposite-Spin Energy      =      -0.9550264172954617 [Eh]
	 Correlation Energy        =      -1.2108871873637317 [Eh]
	 Total Energy              =    -236.6477157418128741 [Eh]

	 ================> DF-SCS-MP2 Energies <==================
	-----------------------------------------------------------
	 SCS Same-Spin Scale       =       0.3333333333333333 [-]
	 SCS Opposite-Spin Scale   =       1.2000000000000000 [-]
	 SCS Same-Spin Energy      =      -0.0852869233560900 [Eh]
	 SCS Opposite-Spin Energy  =      -1.1460317007545540 [Eh]
	 SCS Correlation Energy    =      -1.2313186241106440 [Eh]
	 SCS Total Energy          =    -236.6681471785597921 [Eh]
	-----------------------------------------------------------

  Dipole Moment: [D]
     X:     0.0842      Y:    -0.0046      Z:    -0.0000     Total:     0.0844

*** Psi4 exiting successfully. Buy a developer a beer!
