                               Psi4 1.4a3.dev225

  ==> Input File <==

--------------------------------------------------------------------------
#psi4
#
memory 32 gb

molecule  {
0 1
  C        0.4325650     0.0000100    -0.0000020
  C       -0.8671790     0.8245630    -0.0000540
  C        0.5185540    -0.8790830     1.2499350
  C        1.6124760     0.9760580    -0.0001380
  C        0.5184830    -0.8793570    -1.2497460
  C       -2.1925350     0.0246424     0.0000017
  H       -0.8502370     1.4847800     0.8779110
  H       -0.8502460     1.4846590    -0.8781100
  H       -0.2707110    -1.6364310     1.2681610
  H        0.4320040    -0.2740170     2.1596200
  H        1.4805750    -1.4021870     1.2834330
  H        1.5875310     1.6192780    -0.8867600
  H        1.5875470     1.6195060     0.8863170
  H        2.5658350     0.4362190    -0.0000780
  H       -0.2707460    -1.6367490    -1.2677310
  H        1.4805270    -1.4024220    -1.2832170
  H        0.4318210    -0.2745040    -2.1595630
  H       -2.2660690    -0.6006200     0.8847210
  H       -3.0286490     0.7201330     0.0000090
  H       -2.2661130    -0.6006550    -0.8846890
units angstrom
no_reorient  #important for SAPT in psi4, default
symmetry c1  #important for SAPT in psi4, default
}

set PROPERTIES_ORIGIN ["COM"]
properties('MP2/aug-cc-pvtz', properties = ['dipole'])
--------------------------------------------------------------------------

    Molecular point group: c1
  Charge       = 0
  Multiplicity = 1
  Basis Set: AUG-CC-PVTZ
    Blend: AUG-CC-PVTZ
  Basis Set: (AUG-CC-PVTZ AUX)
    Blend: AUG-CC-PVTZ-JKFIT

    Orbital Energies [Eh]
    ---------------------

    Doubly Occupied:

       1A    -11.227236     2A    -11.214637     3A    -11.207957
       4A    -11.206950     5A    -11.206933     6A    -11.206837
       7A     -1.108677     8A     -0.993542     9A     -0.926972
      10A     -0.926590    11A     -0.850273    12A     -0.721145
      13A     -0.623779    14A     -0.622056    15A     -0.595504
      16A     -0.581494    17A     -0.549315    18A     -0.531579
      19A     -0.524278    20A     -0.507973    21A     -0.496771
      22A     -0.486376    23A     -0.448222    24A     -0.443423
      25A     -0.438579

  @DF-RHF Final Energy:  -235.44755040525808

   => Energetics <=

    Nuclear Repulsion Energy =            266.2271449699545087
    One-Electron Energy =                -844.0552015575750602
    Two-Electron Energy =                 342.3805061823624101
    Total Energy =                       -235.4475504052580845
  Basis Set: (AUG-CC-PVTZ AUX)
    Blend: AUG-CC-PVTZ-RI
    Molecular point group: c1

    Geometry (in Angstrom), charge = 0, multiplicity = 1:

       Center              X                  Y                   Z               Mass
    ------------   -----------------  -----------------  -----------------  -----------------
         C            0.432221449173    -0.003884663601    -0.000001821016    12.000000000000
         C           -0.867522550827     0.820668336399    -0.000053821016    12.000000000000
         C            0.518210449173    -0.882977663601     1.249935178984    12.000000000000
         C            1.612132449173     0.972163336399    -0.000137821016    12.000000000000
         C            0.518139449173    -0.883251663601    -1.249745821016    12.000000000000
         C           -2.192878550827     0.020747736399     0.000001878984    12.000000000000
         H           -0.850580550827     1.480885336399     0.877911178984     1.007825032230
         H           -0.850589550827     1.480764336399    -0.878109821016     1.007825032230
         H           -0.271054550827    -1.640325663601     1.268161178984     1.007825032230
         H            0.431660449173    -0.277911663601     2.159620178984     1.007825032230
         H            1.480231449173    -1.406081663601     1.283433178984     1.007825032230
         H            1.587187449173     1.615383336399    -0.886759821016     1.007825032230
         H            1.587203449173     1.615611336399     0.886317178984     1.007825032230
         H            2.565491449173     0.432324336399    -0.000077821016     1.007825032230
         H           -0.271089550827    -1.640643663601    -1.267730821016     1.007825032230
         H            1.480183449173    -1.406316663601    -1.283216821016     1.007825032230
         H            0.431477449173    -0.278398663601    -2.159562821016     1.007825032230
         H           -2.266412550827    -0.604514663601     0.884721178984     1.007825032230
         H           -3.028992550827     0.716238336399     0.000009178984     1.007825032230
         H           -2.266456550827    -0.604549663601    -0.884688821016     1.007825032230

  Basis Set: AUG-CC-PVTZ
    Blend: AUG-CC-PVTZ
  Basis Set: (AUG-CC-PVTZ AUX)
    Blend: AUG-CC-PVTZ-JKFIT
	 Reference Energy          =    -235.4475504052580845 [Eh]
	 Singles Energy            =      -0.0000000000000000 [Eh]
	 Same-Spin Energy          =      -0.2552681539030937 [Eh]
	 Opposite-Spin Energy      =      -0.9539802168086091 [Eh]
	 Correlation Energy        =      -1.2092483707117028 [Eh]
	 Total Energy              =    -236.6567987759697758 [Eh]

	 ================> DF-SCS-MP2 Energies <==================
	-----------------------------------------------------------
	 SCS Same-Spin Scale       =       0.3333333333333333 [-]
	 SCS Opposite-Spin Scale   =       1.2000000000000000 [-]
	 SCS Same-Spin Energy      =      -0.0850893846343646 [Eh]
	 SCS Opposite-Spin Energy  =      -1.1447762601703309 [Eh]
	 SCS Correlation Energy    =      -1.2298656448046954 [Eh]
	 SCS Total Energy          =    -236.6774160500627886 [Eh]
	-----------------------------------------------------------

  Dipole Moment: [D]
     X:    -0.0494      Y:     0.0323      Z:    -0.0000     Total:     0.0590

*** Psi4 exiting successfully. Buy a developer a beer!
