                               Psi4 1.4a3.dev225

  ==> Input File <==

--------------------------------------------------------------------------
#psi4
#
memory 32 gb

molecule  {
0 1
  C        0.4325650     0.0000100    -0.0000020
  C       -0.8671790     0.8245630    -0.0000540
  C        0.5185540    -0.8790830     1.2499350
  C        1.6124760     0.9760580    -0.0001380
  C        0.5184830    -0.8793570    -1.2497460
  C       -2.1754120     0.0349770     0.0000010
  H       -0.8505454     1.4727611     0.8619281
  H       -0.8502460     1.4846590    -0.8781100
  H       -0.2707110    -1.6364310     1.2681610
  H        0.4320040    -0.2740170     2.1596200
  H        1.4805750    -1.4021870     1.2834330
  H        1.5875310     1.6192780    -0.8867600
  H        1.5875470     1.6195060     0.8863170
  H        2.5658350     0.4362190    -0.0000780
  H       -0.2707460    -1.6367490    -1.2677310
  H        1.4805270    -1.4024220    -1.2832170
  H        0.4318210    -0.2745040    -2.1595630
  H       -2.2660690    -0.6006200     0.8847210
  H       -3.0286490     0.7201330     0.0000090
  H       -2.2661130    -0.6006550    -0.8846890
units angstrom
no_reorient  #important for SAPT in psi4, default
symmetry c1  #important for SAPT in psi4, default
}

set PROPERTIES_ORIGIN ["COM"]
properties('MP2/aug-cc-pvtz', properties = ['dipole'])
--------------------------------------------------------------------------

    Molecular point group: c1
  Charge       = 0
  Multiplicity = 1
  Basis Set: AUG-CC-PVTZ
    Blend: AUG-CC-PVTZ
  Basis Set: (AUG-CC-PVTZ AUX)
    Blend: AUG-CC-PVTZ-JKFIT

    Orbital Energies [Eh]
    ---------------------

    Doubly Occupied:

       1A    -11.227065     2A    -11.211300     3A    -11.208641
       4A    -11.206932     5A    -11.206870     6A    -11.206717
       7A     -1.109724     8A     -0.996425     9A     -0.926917
      10A     -0.926658    11A     -0.849710    12A     -0.722223
      13A     -0.624512    14A     -0.623177    15A     -0.596241
      16A     -0.580897    17A     -0.549883    18A     -0.529538
      19A     -0.523589    20A     -0.508073    21A     -0.500067
      22A     -0.485043    23A     -0.448254    24A     -0.444860
      25A     -0.437989

  @DF-RHF Final Energy:  -235.44775434686059

   => Energetics <=

    Nuclear Repulsion Energy =            266.5916690631197525
    One-Electron Energy =                -844.7762344151686875
    Two-Electron Energy =                 342.7368110051883718
    Total Energy =                       -235.4477543468605631
  Basis Set: (AUG-CC-PVTZ AUX)
    Blend: AUG-CC-PVTZ-RI
    Molecular point group: c1

    Geometry (in Angstrom), charge = 0, multiplicity = 1:

       Center              X                  Y                   Z               Mass
    ------------   -----------------  -----------------  -----------------  -----------------
         C            0.429838842532    -0.005184197173     0.000185340183    12.000000000000
         C           -0.869905157468     0.819368802827     0.000133340183    12.000000000000
         C            0.515827842532    -0.884277197173     1.250122340183    12.000000000000
         C            1.609749842532     0.970863802827     0.000049340183    12.000000000000
         C            0.515756842532    -0.884551197173    -1.249558659817    12.000000000000
         C           -2.178138157468     0.029782802827     0.000188340183    12.000000000000
         H           -0.853271557468     1.467566902827     0.862115440183     1.007825032230
         H           -0.852972157468     1.479464802827    -0.877922659817     1.007825032230
         H           -0.273437157468    -1.641625197173     1.268348340183     1.007825032230
         H            0.429277842532    -0.279211197173     2.159807340183     1.007825032230
         H            1.477848842532    -1.407381197173     1.283620340183     1.007825032230
         H            1.584804842532     1.614083802827    -0.886572659817     1.007825032230
         H            1.584820842532     1.614311802827     0.886504340183     1.007825032230
         H            2.563108842532     0.431024802827     0.000109340183     1.007825032230
         H           -0.273472157468    -1.641943197173    -1.267543659817     1.007825032230
         H            1.477800842532    -1.407616197173    -1.283029659817     1.007825032230
         H            0.429094842532    -0.279698197173    -2.159375659817     1.007825032230
         H           -2.268795157468    -0.605814197173     0.884908340183     1.007825032230
         H           -3.031375157468     0.714938802827     0.000196340183     1.007825032230
         H           -2.268839157468    -0.605849197173    -0.884501659817     1.007825032230

  Basis Set: AUG-CC-PVTZ
    Blend: AUG-CC-PVTZ
  Basis Set: (AUG-CC-PVTZ AUX)
    Blend: AUG-CC-PVTZ-JKFIT
	 Reference Energy          =    -235.4477543468605916 [Eh]
	 Singles Energy            =      -0.0000000000000000 [Eh]
	 Same-Spin Energy          =      -0.2553748771482619 [Eh]
	 Opposite-Spin Energy      =      -0.9539245678809301 [Eh]
	 Correlation Energy        =      -1.2092994450291918 [Eh]
	 Total Energy              =    -236.6570537918897799 [Eh]

	 ================> DF-SCS-MP2 Energies <==================
	-----------------------------------------------------------
	 SCS Same-Spin Scale       =       0.3333333333333333 [-]
	 SCS Opposite-Spin Scale   =       1.2000000000000000 [-]
	 SCS Same-Spin Energy      =      -0.0851249590494206 [Eh]
	 SCS Opposite-Spin Energy  =      -1.1447094814571159 [Eh]
	 SCS Correlation Energy    =      -1.2298344405065365 [Eh]
	 SCS Total Energy          =    -236.6775887873671422 [Eh]
	-----------------------------------------------------------

  Dipole Moment: [D]
     X:    -0.0531      Y:     0.0438      Z:     0.0114     Total:     0.0698

*** Psi4 exiting successfully. Buy a developer a beer!
