                               Psi4 1.3.2 release

  ==> Input File <==

--------------------------------------------------------------------------
#psi4
#
memory 32 gb

molecule  {
0 1
  C       -0.5305892    -0.0337373    -0.0258610
  C        0.8671890     0.8245510    -0.0008470
  C       -0.5186390    -0.8803510    -1.2490450
  C       -1.6124710     0.9760830    -0.0007580
  C       -0.5183990    -0.8781140     1.2506300
  C        2.1754120     0.0349960    -0.0000500
  H        0.8502280     1.4838230    -0.8795210
  H        0.8502290     1.4855890     0.8765000
  H        0.2706380    -1.6377050    -1.2666100
  H       -0.4322060    -0.2762080    -2.1593560
  H       -1.4806460    -1.4035230    -1.2819340
  H       -1.5874350     1.6202330     0.8851840
  H       -1.5876340     1.6186070    -0.8878840
  H       -2.5658430     0.4362680    -0.0001590
  H        0.2708010    -1.6355150     1.2692820
  H       -1.4804630    -1.4011040     1.2847180
  H       -0.4316200    -0.2723440     2.1598230
  H        2.2659520    -0.6017660    -0.8839470
  H        3.0286720     0.7201300    -0.0010770
  H        2.2662480    -0.5994780     0.8854570
units angstrom
no_reorient  #important for SAPT in psi4, default
symmetry c1  #important for SAPT in psi4, default
}

set PROPERTIES_ORIGIN ["COM"]
properties('MP2/aug-cc-pvtz', properties = ['dipole'])
--------------------------------------------------------------------------

    Molecular point group: c1
  Charge       = 0
  Multiplicity = 1
  Basis Set: AUG-CC-PVTZ
    Blend: AUG-CC-PVTZ
  Basis Set: (AUG-CC-PVTZ AUX)
    Blend: AUG-CC-PVTZ-JKFIT

    Orbital Energies [Eh]
    ---------------------

    Doubly Occupied:

       1A    -11.228081     2A    -11.214130     3A    -11.207720
       4A    -11.207630     5A    -11.207025     6A    -11.206648
       7A     -1.110095     8A     -0.995839     9A     -0.935386
      10A     -0.929752    11A     -0.836777    12A     -0.723055
      13A     -0.626337    14A     -0.618749    15A     -0.599026
      16A     -0.585867    17A     -0.550063    18A     -0.527662
      19A     -0.522996    20A     -0.510173    21A     -0.501711
      22A     -0.482065    23A     -0.466084    24A     -0.454801
      25A     -0.402944

  @DF-RHF Final Energy:  -235.43698020732771

   => Energetics <=

    Nuclear Repulsion Energy =            266.2392429487113077
    One-Electron Energy =                -844.0512188646424647
    Two-Electron Energy =                 342.3749957086034215
    Total Energy =                       -235.4369802073277356
  Basis Set: (AUG-CC-PVTZ AUX)
    Blend: AUG-CC-PVTZ-RI
    Molecular point group: c1

    Geometry (in Angstrom), charge = 0, multiplicity = 1:

       Center              X                  Y                   Z               Mass
    ------------   -----------------  -----------------  -----------------  -----------------
         C           -0.514200872827    -0.034370405905    -0.022252895282    12.000000000000
         C            0.883577327173     0.823917894095     0.002761104718    12.000000000000
         C           -0.502250672827    -0.880984105905    -1.245436895282    12.000000000000
         C           -1.596082672827     0.975449894095     0.002850104718    12.000000000000
         C           -0.502010672827    -0.878747105905     1.254238104718    12.000000000000
         C            2.191800327173     0.034362894095     0.003558104718    12.000000000000
         H            0.866616327173     1.483189894095    -0.875912895282     1.007825032230
         H            0.866617327173     1.484955894095     0.880108104718     1.007825032230
         H            0.287026327173    -1.638338105905    -1.263001895282     1.007825032230
         H           -0.415817672827    -0.276841105905    -2.155747895282     1.007825032230
         H           -1.464257672827    -1.404156105905    -1.278325895282     1.007825032230
         H           -1.571046672827     1.619599894095     0.888792104718     1.007825032230
         H           -1.571245672827     1.617973894095    -0.884275895282     1.007825032230
         H           -2.549454672827     0.435634894095     0.003449104718     1.007825032230
         H            0.287189327173    -1.636148105905     1.272890104718     1.007825032230
         H           -1.464074672827    -1.401737105905     1.288326104718     1.007825032230
         H           -0.415231672827    -0.272977105905     2.163431104718     1.007825032230
         H            2.282340327173    -0.602399105905    -0.880338895282     1.007825032230
         H            3.045060327173     0.719496894095     0.002531104718     1.007825032230
         H            2.282636327173    -0.600111105905     0.889065104718     1.007825032230

  Basis Set: AUG-CC-PVTZ
    Blend: AUG-CC-PVTZ
  Basis Set: (AUG-CC-PVTZ AUX)
    Blend: AUG-CC-PVTZ-JKFIT
	 Reference Energy          =    -235.4369802073277071 [Eh]
	 Singles Energy            =      -0.0000000000000000 [Eh]
	 Same-Spin Energy          =      -0.2559442709113330 [Eh]
	 Opposite-Spin Energy      =      -0.9549198701782032 [Eh]
	 Correlation Energy        =      -1.2108641410895362 [Eh]
	 Total Energy              =    -236.6478443484172374 [Eh]

	 ================> DF-SCS-MP2 Energies <==================
	-----------------------------------------------------------
	 SCS Same-Spin Scale       =       0.3333333333333333 [-]
	 SCS Opposite-Spin Scale   =       1.2000000000000000 [-]
	 SCS Same-Spin Energy      =      -0.0853147569704443 [Eh]
	 SCS Opposite-Spin Energy  =      -1.1459038442138438 [Eh]
	 SCS Correlation Energy    =      -1.2312186011842883 [Eh]
	 SCS Total Energy          =    -236.6681988085119883 [Eh]
	-----------------------------------------------------------

  Dipole Moment: [D]
     X:     0.0150      Y:     0.0291      Z:    -0.0119     Total:     0.0348

*** Psi4 exiting successfully. Buy a developer a beer!
