                               Psi4 1.4a3.dev225

  ==> Input File <==

--------------------------------------------------------------------------
#psi4
#
memory 32 gb

molecule  {
0 1
  C        0.4325650     0.0000100    -0.0000020
  C       -0.8249583     0.7977784    -0.0000523
  C        0.5185540    -0.8790830     1.2499350
  C        1.6124760     0.9760580    -0.0001380
  C        0.5184830    -0.8793570    -1.2497460
  C       -2.1754120     0.0349770     0.0000010
  H       -0.8502370     1.4847800     0.8779110
  H       -0.8502460     1.4846590    -0.8781100
  H       -0.2707110    -1.6364310     1.2681610
  H        0.4320040    -0.2740170     2.1596200
  H        1.4805750    -1.4021870     1.2834330
  H        1.5875310     1.6192780    -0.8867600
  H        1.5875470     1.6195060     0.8863170
  H        2.5658350     0.4362190    -0.0000780
  H       -0.2707460    -1.6367490    -1.2677310
  H        1.4805270    -1.4024220    -1.2832170
  H        0.4318210    -0.2745040    -2.1595630
  H       -2.2660690    -0.6006200     0.8847210
  H       -3.0286490     0.7201330     0.0000090
  H       -2.2661130    -0.6006550    -0.8846890
units angstrom
no_reorient  #important for SAPT in psi4, default
symmetry c1  #important for SAPT in psi4, default
}

set PROPERTIES_ORIGIN ["COM"]
properties('MP2/aug-cc-pvtz', properties = ['dipole'])
--------------------------------------------------------------------------

    Molecular point group: c1
  Charge       = 0
  Multiplicity = 1
  Basis Set: AUG-CC-PVTZ
    Blend: AUG-CC-PVTZ
  Basis Set: (AUG-CC-PVTZ AUX)
    Blend: AUG-CC-PVTZ-JKFIT

    Orbital Energies [Eh]
    ---------------------

    Doubly Occupied:

       1A    -11.225357     2A    -11.215680     3A    -11.209912
       4A    -11.207395     5A    -11.207376     6A    -11.207151
       7A     -1.115367     8A     -0.991117     9A     -0.927952
      10A     -0.927542    11A     -0.852573    12A     -0.721967
      13A     -0.625805    14A     -0.621556    15A     -0.597843
      16A     -0.579387    17A     -0.550014    18A     -0.529031
      19A     -0.523660    20A     -0.508086    21A     -0.495007
      22A     -0.482683    23A     -0.451910    24A     -0.443966
      25A     -0.439883

  @DF-RHF Final Energy:  -235.44472099065820

   => Energetics <=

    Nuclear Repulsion Energy =            267.0917227571462718
    One-Electron Energy =                -845.7564471635159862
    Two-Electron Energy =                 343.2200034157115169
    Total Energy =                       -235.4447209906581975
  Basis Set: (AUG-CC-PVTZ AUX)
    Blend: AUG-CC-PVTZ-RI
    Molecular point group: c1

    Geometry (in Angstrom), charge = 0, multiplicity = 1:

       Center              X                  Y                   Z               Mass
    ------------   -----------------  -----------------  -----------------  -----------------
         C            0.423951467547    -0.001592234957    -0.000001960374    12.000000000000
         C           -0.833571832453     0.796176165043    -0.000052260374    12.000000000000
         C            0.509940467547    -0.880685234957     1.249935039626    12.000000000000
         C            1.603862467547     0.974455765043    -0.000137960374    12.000000000000
         C            0.509869467547    -0.880959234957    -1.249745960374    12.000000000000
         C           -2.184025532453     0.033374765043     0.000001039626    12.000000000000
         H           -0.858850532453     1.483177765043     0.877911039626     1.007825032230
         H           -0.858859532453     1.483056765043    -0.878109960374     1.007825032230
         H           -0.279324532453    -1.638033234957     1.268161039626     1.007825032230
         H            0.423390467547    -0.275619234957     2.159620039626     1.007825032230
         H            1.471961467547    -1.403789234957     1.283433039626     1.007825032230
         H            1.578917467547     1.617675765043    -0.886759960374     1.007825032230
         H            1.578933467547     1.617903765043     0.886317039626     1.007825032230
         H            2.557221467547     0.434616765043    -0.000077960374     1.007825032230
         H           -0.279359532453    -1.638351234957    -1.267730960374     1.007825032230
         H            1.471913467547    -1.404024234957    -1.283216960374     1.007825032230
         H            0.423207467547    -0.276106234957    -2.159562960374     1.007825032230
         H           -2.274682532453    -0.602222234957     0.884721039626     1.007825032230
         H           -3.037262532453     0.718530765043     0.000009039626     1.007825032230
         H           -2.274726532453    -0.602257234957    -0.884688960374     1.007825032230

  Basis Set: AUG-CC-PVTZ
    Blend: AUG-CC-PVTZ
  Basis Set: (AUG-CC-PVTZ AUX)
    Blend: AUG-CC-PVTZ-JKFIT
	 Reference Energy          =    -235.4447209906581975 [Eh]
	 Singles Energy            =      -0.0000000000000000 [Eh]
	 Same-Spin Energy          =      -0.2557343325260508 [Eh]
	 Opposite-Spin Energy      =      -0.9545893981654860 [Eh]
	 Correlation Energy        =      -1.2103237306915369 [Eh]
	 Total Energy              =    -236.6550447213497250 [Eh]

	 ================> DF-SCS-MP2 Energies <==================
	-----------------------------------------------------------
	 SCS Same-Spin Scale       =       0.3333333333333333 [-]
	 SCS Opposite-Spin Scale   =       1.2000000000000000 [-]
	 SCS Same-Spin Energy      =      -0.0852447775086836 [Eh]
	 SCS Opposite-Spin Energy  =      -1.1455072777985833 [Eh]
	 SCS Correlation Energy    =      -1.2307520553072668 [Eh]
	 SCS Total Energy          =    -236.6754730459654752 [Eh]
	-----------------------------------------------------------

  Dipole Moment: [D]
     X:    -0.0304      Y:     0.0175      Z:    -0.0000     Total:     0.0351

*** Psi4 exiting successfully. Buy a developer a beer!
