                               Psi4 1.3.2 release

  ==> Input File <==

--------------------------------------------------------------------------
#psi4
#
memory 32 gb

molecule  {
0 1
  C       -0.4179896    -0.0225585     0.0000128
  C        0.8671890     0.8245510    -0.0008470
  C       -0.5186390    -0.8803510    -1.2490450
  C       -1.6124710     0.9760830    -0.0007580
  C       -0.5183990    -0.8781140     1.2506300
  C        2.1754120     0.0349960    -0.0000500
  H        0.8502280     1.4838230    -0.8795210
  H        0.8502290     1.4855890     0.8765000
  H        0.2706380    -1.6377050    -1.2666100
  H       -0.4322060    -0.2762080    -2.1593560
  H       -1.4806460    -1.4035230    -1.2819340
  H       -1.5874350     1.6202330     0.8851840
  H       -1.5876340     1.6186070    -0.8878840
  H       -2.5658430     0.4362680    -0.0001590
  H        0.2708010    -1.6355150     1.2692820
  H       -1.4804630    -1.4011040     1.2847180
  H       -0.4316200    -0.2723440     2.1598230
  H        2.2659520    -0.6017660    -0.8839470
  H        3.0286720     0.7201300    -0.0010770
  H        2.2662480    -0.5994780     0.8854570
units angstrom
no_reorient  #important for SAPT in psi4, default
symmetry c1  #important for SAPT in psi4, default
}

set PROPERTIES_ORIGIN ["COM"]
properties('MP2/aug-cc-pvtz', properties = ['dipole'])
--------------------------------------------------------------------------

    Molecular point group: c1
  Charge       = 0
  Multiplicity = 1
  Basis Set: AUG-CC-PVTZ
    Blend: AUG-CC-PVTZ
  Basis Set: (AUG-CC-PVTZ AUX)
    Blend: AUG-CC-PVTZ-JKFIT

    Orbital Energies [Eh]
    ---------------------

    Doubly Occupied:

       1A    -11.227350     2A    -11.213939     3A    -11.208404
       4A    -11.207050     5A    -11.206876     6A    -11.206855
       7A     -1.109620     8A     -0.995728     9A     -0.929074
      10A     -0.924811    11A     -0.848060    12A     -0.721987
      13A     -0.624294    14A     -0.622245    15A     -0.596682
      16A     -0.579706    17A     -0.549701    18A     -0.529630
      19A     -0.524506    20A     -0.507874    21A     -0.499138
      22A     -0.485374    23A     -0.453146    24A     -0.442220
      25A     -0.434228

  @DF-RHF Final Energy:  -235.44697709940073

   => Energetics <=

    Nuclear Repulsion Energy =            266.5321861764770688
    One-Electron Energy =                -844.6613248495999642
    Two-Electron Energy =                 342.6821615737222260
    Total Energy =                       -235.4469770994007263
  Basis Set: (AUG-CC-PVTZ AUX)
    Blend: AUG-CC-PVTZ-RI
    Molecular point group: c1

    Geometry (in Angstrom), charge = 0, multiplicity = 1:

       Center              X                  Y                   Z               Mass
    ------------   -----------------  -----------------  -----------------  -----------------
         C           -0.417292856314    -0.024749454010     0.000015200144    12.000000000000
         C            0.867885743686     0.822360045990    -0.000844599856    12.000000000000
         C           -0.517942256314    -0.882541954010    -1.249042599856    12.000000000000
         C           -1.611774256314     0.973892045990    -0.000755599856    12.000000000000
         C           -0.517702256314    -0.880304954010     1.250632400144    12.000000000000
         C            2.176108743686     0.032805045990    -0.000047599856    12.000000000000
         H            0.850924743686     1.481632045990    -0.879518599856     1.007825032230
         H            0.850925743686     1.483398045990     0.876502400144     1.007825032230
         H            0.271334743686    -1.639895954010    -1.266607599856     1.007825032230
         H           -0.431509256314    -0.278398954010    -2.159353599856     1.007825032230
         H           -1.479949256314    -1.405713954010    -1.281931599856     1.007825032230
         H           -1.586738256314     1.618042045990     0.885186400144     1.007825032230
         H           -1.586937256314     1.616416045990    -0.887881599856     1.007825032230
         H           -2.565146256314     0.434077045990    -0.000156599856     1.007825032230
         H            0.271497743686    -1.637705954010     1.269284400144     1.007825032230
         H           -1.479766256314    -1.403294954010     1.284720400144     1.007825032230
         H           -0.430923256314    -0.274534954010     2.159825400144     1.007825032230
         H            2.266648743686    -0.603956954010    -0.883944599856     1.007825032230
         H            3.029368743686     0.717939045990    -0.001074599856     1.007825032230
         H            2.266944743686    -0.601668954010     0.885459400144     1.007825032230

  Basis Set: AUG-CC-PVTZ
    Blend: AUG-CC-PVTZ
  Basis Set: (AUG-CC-PVTZ AUX)
    Blend: AUG-CC-PVTZ-JKFIT
	 Reference Energy          =    -235.4469770994007263 [Eh]
	 Singles Energy            =      -0.0000000000000000 [Eh]
	 Same-Spin Energy          =      -0.2554167914319188 [Eh]
	 Opposite-Spin Energy      =      -0.9541351897927475 [Eh]
	 Correlation Energy        =      -1.2095519812246662 [Eh]
	 Total Energy              =    -236.6565290806254040 [Eh]

	 ================> DF-SCS-MP2 Energies <==================
	-----------------------------------------------------------
	 SCS Same-Spin Scale       =       0.3333333333333333 [-]
	 SCS Opposite-Spin Scale   =       1.2000000000000000 [-]
	 SCS Same-Spin Energy      =      -0.0851389304773063 [Eh]
	 SCS Opposite-Spin Energy  =      -1.1449622277512970 [Eh]
	 SCS Correlation Energy    =      -1.2301011582286032 [Eh]
	 SCS Total Energy          =    -236.6770782576293186 [Eh]
	-----------------------------------------------------------

  Dipole Moment: [D]
     X:     0.0587      Y:     0.0233      Z:    -0.0000     Total:     0.0631

*** Psi4 exiting successfully. Buy a developer a beer!
