                               Psi4 1.3.2 release

  ==> Input File <==

--------------------------------------------------------------------------
#psi4
#
memory 32 gb

molecule  {
0 1
  C       -0.4325780     0.0000000    -0.0000100
  C        0.8671890     0.8245510    -0.0008470
  C       -0.5186390    -0.8803510    -1.2490450
  C       -1.6124710     0.9760830    -0.0007580
  C       -0.5183990    -0.8781140     1.2506300
  C        2.1754120     0.0349960    -0.0000500
  H        0.8502280     1.4838230    -0.8795210
  H        0.8502290     1.4855890     0.8765000
  H        0.2706380    -1.6377050    -1.2666100
  H       -0.4322060    -0.2762080    -2.1593560
  H       -1.4806460    -1.4035230    -1.2819340
  H       -1.5874350     1.6202330     0.8851840
  H       -1.5876340     1.6186070    -0.8878840
  H       -2.5658430     0.4362680    -0.0001590
  H        0.2708010    -1.6355150     1.2692820
  H       -1.3926480    -1.3533667     1.2816065
  H       -0.4316200    -0.2723440     2.1598230
  H        2.2659520    -0.6017660    -0.8839470
  H        3.0286720     0.7201300    -0.0010770
  H        2.2662480    -0.5994780     0.8854570
units angstrom
no_reorient  #important for SAPT in psi4, default
symmetry c1  #important for SAPT in psi4, default
}

set PROPERTIES_ORIGIN ["COM"]
properties('MP2/aug-cc-pvtz', properties = ['dipole'])
--------------------------------------------------------------------------

    Molecular point group: c1
  Charge       = 0
  Multiplicity = 1
  Basis Set: AUG-CC-PVTZ
    Blend: AUG-CC-PVTZ
  Basis Set: (AUG-CC-PVTZ AUX)
    Blend: AUG-CC-PVTZ-JKFIT

    Orbital Energies [Eh]
    ---------------------

    Doubly Occupied:

       1A    -11.226350     2A    -11.212863     3A    -11.208223
       4A    -11.206897     5A    -11.206856     6A    -11.194231
       7A     -1.110117     8A     -0.996446     9A     -0.935589
      10A     -0.926668    11A     -0.848884    12A     -0.723631
      13A     -0.628917    14A     -0.622526    15A     -0.595724
      16A     -0.580406    17A     -0.549752    18A     -0.538854
      19A     -0.526936    20A     -0.507962    21A     -0.499909
      22A     -0.483655    23A     -0.447017    24A     -0.444288
      25A     -0.438733

  @DF-RHF Final Energy:  -235.44174028134361

   => Energetics <=

    Nuclear Repulsion Energy =            266.9661812697722212
    One-Electron Energy =                -845.4929731798461034
    Two-Electron Energy =                 343.0850516287301843
    Total Energy =                       -235.4417402813436411
  Basis Set: (AUG-CC-PVTZ AUX)
    Blend: AUG-CC-PVTZ-RI
    Molecular point group: c1

    Geometry (in Angstrom), charge = 0, multiplicity = 1:

       Center              X                  Y                   Z               Mass
    ------------   -----------------  -----------------  -----------------  -----------------
         C           -0.430876040931    -0.005893363838     0.000031994446    12.000000000000
         C            0.868890959069     0.818657636162    -0.000805005554    12.000000000000
         C           -0.516937040931    -0.886244363838    -1.249003005554    12.000000000000
         C           -1.610769040931     0.970189636162    -0.000716005554    12.000000000000
         C           -0.516697040931    -0.884007363838     1.250671994446    12.000000000000
         C            2.177113959069     0.029102636162    -0.000008005554    12.000000000000
         H            0.851929959069     1.477929636162    -0.879479005554     1.007825032230
         H            0.851930959069     1.479695636162     0.876541994446     1.007825032230
         H            0.272339959069    -1.643598363838    -1.266568005554     1.007825032230
         H           -0.430504040931    -0.282101363838    -2.159314005554     1.007825032230
         H           -1.478944040931    -1.409416363838    -1.281892005554     1.007825032230
         H           -1.585733040931     1.614339636162     0.885225994446     1.007825032230
         H           -1.585932040931     1.612713636162    -0.887842005554     1.007825032230
         H           -2.564141040931     0.430374636162    -0.000117005554     1.007825032230
         H            0.272502959069    -1.641408363838     1.269323994446     1.007825032230
         H           -1.390946040931    -1.359260063838     1.281648494446     1.007825032230
         H           -0.429918040931    -0.278237363838     2.159864994446     1.007825032230
         H            2.267653959069    -0.607659363838    -0.883905005554     1.007825032230
         H            3.030373959069     0.714236636162    -0.001035005554     1.007825032230
         H            2.267949959069    -0.605371363838     0.885498994446     1.007825032230

  Basis Set: AUG-CC-PVTZ
    Blend: AUG-CC-PVTZ
  Basis Set: (AUG-CC-PVTZ AUX)
    Blend: AUG-CC-PVTZ-JKFIT
	 Reference Energy          =    -235.4417402813436127 [Eh]
	 Singles Energy            =      -0.0000000000000000 [Eh]
	 Same-Spin Energy          =      -0.2553840619305887 [Eh]
	 Opposite-Spin Energy      =      -0.9535320013425597 [Eh]
	 Correlation Energy        =      -1.2089160632731484 [Eh]
	 Total Energy              =    -236.6506563446167490 [Eh]

	 ================> DF-SCS-MP2 Energies <==================
	-----------------------------------------------------------
	 SCS Same-Spin Scale       =       0.3333333333333333 [-]
	 SCS Opposite-Spin Scale   =       1.2000000000000000 [-]
	 SCS Same-Spin Energy      =      -0.0851280206435295 [Eh]
	 SCS Opposite-Spin Energy  =      -1.1442384016110716 [Eh]
	 SCS Correlation Energy    =      -1.2293664222546012 [Eh]
	 SCS Total Energy          =    -236.6711067035982126 [Eh]
	-----------------------------------------------------------

  Dipole Moment: [D]
     X:    -0.0029      Y:    -0.0065      Z:     0.0169     Total:     0.0183

*** Psi4 exiting successfully. Buy a developer a beer!
