                               Psi4 1.4a3.dev225

  ==> Input File <==

--------------------------------------------------------------------------
#psi4
#
memory 32 gb

molecule  {
0 1
  C        0.4325650     0.0000100    -0.0000020
  C       -0.8671790     0.8245630    -0.0000540
  C        0.5185540    -0.8790830     1.2499350
  C        1.6124760     0.9760580    -0.0001380
  C        0.5184830    -0.8793570    -1.2497460
  C       -2.1754120     0.0349770     0.0000010
  H       -0.8502370     1.4847800     0.8779110
  H       -0.8502460     1.4846590    -0.8781100
  H       -0.2707110    -1.6364310     1.2681610
  H        0.4320040    -0.2740170     2.1596200
  H        1.4805750    -1.4021870     1.2834330
  H        1.5875310     1.6192780    -0.8867600
  H        1.5875470     1.6195060     0.8863170
  H        2.5658350     0.4362190    -0.0000780
  H       -0.2707460    -1.6367490    -1.2677310
  H        1.4366204    -1.3785499    -1.2816894
  H        0.4318210    -0.2745040    -2.1595630
  H       -2.2660690    -0.6006200     0.8847210
  H       -3.0286490     0.7201330     0.0000090
  H       -2.2661130    -0.6006550    -0.8846890
units angstrom
no_reorient  #important for SAPT in psi4, default
symmetry c1  #important for SAPT in psi4, default
}

set PROPERTIES_ORIGIN ["COM"]
properties('MP2/aug-cc-pvtz', properties = ['dipole'])
--------------------------------------------------------------------------

    Molecular point group: c1
  Charge       = 0
  Multiplicity = 1
  Basis Set: AUG-CC-PVTZ
    Blend: AUG-CC-PVTZ
  Basis Set: (AUG-CC-PVTZ AUX)
    Blend: AUG-CC-PVTZ-JKFIT

    Orbital Energies [Eh]
    ---------------------

    Doubly Occupied:

       1A    -11.226780     2A    -11.213319     3A    -11.208532
       4A    -11.206907     5A    -11.206851     6A    -11.200626
       7A     -1.109740     8A     -0.996107     9A     -0.930874
      10A     -0.926684    11A     -0.848789    12A     -0.722438
      13A     -0.626035    14A     -0.622698    15A     -0.596005
      16A     -0.580566    17A     -0.549775    18A     -0.533254
      19A     -0.526368    20A     -0.508023    21A     -0.499879
      22A     -0.483890    23A     -0.447388    24A     -0.444553
      25A     -0.438466

  @DF-RHF Final Energy:  -235.44673271216163

   => Energetics <=

    Nuclear Repulsion Energy =            266.7247798310789904
    One-Electron Energy =                -845.0339382658341947
    Two-Electron Energy =                 342.8624257225935708
    Total Energy =                       -235.4467327121616336
  Basis Set: (AUG-CC-PVTZ AUX)
    Blend: AUG-CC-PVTZ-RI
    Molecular point group: c1

    Geometry (in Angstrom), charge = 0, multiplicity = 1:

       Center              X                  Y                   Z               Mass
    ------------   -----------------  -----------------  -----------------  -----------------
         C            0.430349115284    -0.005604264960    -0.000019602476    12.000000000000
         C           -0.869394884716     0.818948735040    -0.000071602476    12.000000000000
         C            0.516338115284    -0.884697264960     1.249917397524    12.000000000000
         C            1.610260115284     0.970443735040    -0.000155602476    12.000000000000
         C            0.516267115284    -0.884971264960    -1.249763602476    12.000000000000
         C           -2.177627884716     0.029362735040    -0.000016602476    12.000000000000
         H           -0.852452884716     1.479165735040     0.877893397524     1.007825032230
         H           -0.852461884716     1.479044735040    -0.878127602476     1.007825032230
         H           -0.272926884716    -1.642045264960     1.268143397524     1.007825032230
         H            0.429788115284    -0.279631264960     2.159602397524     1.007825032230
         H            1.478359115284    -1.407801264960     1.283415397524     1.007825032230
         H            1.585315115284     1.613663735040    -0.886777602476     1.007825032230
         H            1.585331115284     1.613891735040     0.886299397524     1.007825032230
         H            2.563619115284     0.430604735040    -0.000095602476     1.007825032230
         H           -0.272961884716    -1.642363264960    -1.267748602476     1.007825032230
         H            1.434404515284    -1.384164164960    -1.281707002476     1.007825032230
         H            0.429605115284    -0.280118264960    -2.159580602476     1.007825032230
         H           -2.268284884716    -0.606234264960     0.884703397524     1.007825032230
         H           -3.030864884716     0.714518735040    -0.000008602476     1.007825032230
         H           -2.268328884716    -0.606269264960    -0.884706602476     1.007825032230

  Basis Set: AUG-CC-PVTZ
    Blend: AUG-CC-PVTZ
  Basis Set: (AUG-CC-PVTZ AUX)
    Blend: AUG-CC-PVTZ-JKFIT
	 Reference Energy          =    -235.4467327121616336 [Eh]
	 Singles Energy            =      -0.0000000000000000 [Eh]
	 Same-Spin Energy          =      -0.2553817707269914 [Eh]
	 Opposite-Spin Energy      =      -0.9537616393995435 [Eh]
	 Correlation Energy        =      -1.2091434101265350 [Eh]
	 Total Energy              =    -236.6558761222881628 [Eh]

	 ================> DF-SCS-MP2 Energies <==================
	-----------------------------------------------------------
	 SCS Same-Spin Scale       =       0.3333333333333333 [-]
	 SCS Opposite-Spin Scale   =       1.2000000000000000 [-]
	 SCS Same-Spin Energy      =      -0.0851272569089971 [Eh]
	 SCS Opposite-Spin Energy  =      -1.1445139672794522 [Eh]
	 SCS Correlation Energy    =      -1.2296412241884493 [Eh]
	 SCS Total Energy          =    -236.6763739363500747 [Eh]
	-----------------------------------------------------------

  Dipole Moment: [D]
     X:    -0.0234      Y:     0.0113      Z:    -0.0089     Total:     0.0275

*** Psi4 exiting successfully. Buy a developer a beer!
