                               Psi4 1.3.2 release

  ==> Input File <==

--------------------------------------------------------------------------
#psi4
#
memory 32 gb

molecule  {
0 1
  C       -0.4030098    -0.0448589     0.0000354
  C        0.8671890     0.8245510    -0.0008470
  C       -0.5186390    -0.8803510    -1.2490450
  C       -1.6124710     0.9760830    -0.0007580
  C       -0.5183990    -0.8781140     1.2506300
  C        2.1754120     0.0349960    -0.0000500
  H        0.8502280     1.4838230    -0.8795210
  H        0.8502290     1.4855890     0.8765000
  H        0.2706380    -1.6377050    -1.2666100
  H       -0.4322060    -0.2762080    -2.1593560
  H       -1.4806460    -1.4035230    -1.2819340
  H       -1.5874350     1.6202330     0.8851840
  H       -1.5876340     1.6186070    -0.8878840
  H       -2.5658430     0.4362680    -0.0001590
  H        0.2708010    -1.6355150     1.2692820
  H       -1.4804630    -1.4011040     1.2847180
  H       -0.4316200    -0.2723440     2.1598230
  H        2.2659520    -0.6017660    -0.8839470
  H        3.0286720     0.7201300    -0.0010770
  H        2.2662480    -0.5994780     0.8854570
units angstrom
no_reorient  #important for SAPT in psi4, default
symmetry c1  #important for SAPT in psi4, default
}

set PROPERTIES_ORIGIN ["COM"]
properties('MP2/aug-cc-pvtz', properties = ['dipole'])
--------------------------------------------------------------------------

    Molecular point group: c1
  Charge       = 0
  Multiplicity = 1
  Basis Set: AUG-CC-PVTZ
    Blend: AUG-CC-PVTZ
  Basis Set: (AUG-CC-PVTZ AUX)
    Blend: AUG-CC-PVTZ-JKFIT

    Orbital Energies [Eh]
    ---------------------

    Doubly Occupied:

       1A    -11.227596     2A    -11.214146     3A    -11.207975
       4A    -11.207122     5A    -11.206873     6A    -11.206851
       7A     -1.109966     8A     -0.995702     9A     -0.931189
      10A     -0.922910    11A     -0.847434    12A     -0.722533
      13A     -0.624665    14A     -0.622104    15A     -0.597191
      16A     -0.578631    17A     -0.549508    18A     -0.529649
      19A     -0.525459    20A     -0.507804    21A     -0.498582
      22A     -0.487008    23A     -0.457796    24A     -0.443550
      25A     -0.425969

  @DF-RHF Final Energy:  -235.44487319989159

   => Energetics <=

    Nuclear Repulsion Energy =            266.5673375931791611
    One-Electron Energy =                -844.7279970011583146
    Two-Electron Energy =                 342.7157862080876498
    Total Energy =                       -235.4448731998915605
  Basis Set: (AUG-CC-PVTZ AUX)
    Blend: AUG-CC-PVTZ-RI
    Molecular point group: c1

    Geometry (in Angstrom), charge = 0, multiplicity = 1:

       Center              X                  Y                   Z               Mass
    ------------   -----------------  -----------------  -----------------  -----------------
         C           -0.404400601762    -0.043942129041     0.000034650667    12.000000000000
         C            0.865798198238     0.825467770959    -0.000847749333    12.000000000000
         C           -0.520029801762    -0.879434229041    -1.249045749333    12.000000000000
         C           -1.613861801762     0.976999770959    -0.000758749333    12.000000000000
         C           -0.519789801762    -0.877197229041     1.250629250667    12.000000000000
         C            2.174021198238     0.035912770959    -0.000050749333    12.000000000000
         H            0.848837198238     1.484739770959    -0.879521749333     1.007825032230
         H            0.848838198238     1.486505770959     0.876499250667     1.007825032230
         H            0.269247198238    -1.636788229041    -1.266610749333     1.007825032230
         H           -0.433596801762    -0.275291229041    -2.159356749333     1.007825032230
         H           -1.482036801762    -1.402606229041    -1.281934749333     1.007825032230
         H           -1.588825801762     1.621149770959     0.885183250667     1.007825032230
         H           -1.589024801762     1.619523770959    -0.887884749333     1.007825032230
         H           -2.567233801762     0.437184770959    -0.000159749333     1.007825032230
         H            0.269410198238    -1.634598229041     1.269281250667     1.007825032230
         H           -1.481853801762    -1.400187229041     1.284717250667     1.007825032230
         H           -0.433010801762    -0.271427229041     2.159822250667     1.007825032230
         H            2.264561198238    -0.600849229041    -0.883947749333     1.007825032230
         H            3.027281198238     0.721046770959    -0.001077749333     1.007825032230
         H            2.264857198238    -0.598561229041     0.885456250667     1.007825032230

  Basis Set: AUG-CC-PVTZ
    Blend: AUG-CC-PVTZ
  Basis Set: (AUG-CC-PVTZ AUX)
    Blend: AUG-CC-PVTZ-JKFIT
	 Reference Energy          =    -235.4448731998915889 [Eh]
	 Singles Energy            =      -0.0000000000000000 [Eh]
	 Same-Spin Energy          =      -0.2555064521805360 [Eh]
	 Opposite-Spin Energy      =      -0.9543211315787423 [Eh]
	 Correlation Energy        =      -1.2098275837592785 [Eh]
	 Total Energy              =    -236.6547007836508669 [Eh]

	 ================> DF-SCS-MP2 Energies <==================
	-----------------------------------------------------------
	 SCS Same-Spin Scale       =       0.3333333333333333 [-]
	 SCS Opposite-Spin Scale   =       1.2000000000000000 [-]
	 SCS Same-Spin Energy      =      -0.0851688173935120 [Eh]
	 SCS Opposite-Spin Energy  =      -1.1451853578944908 [Eh]
	 SCS Correlation Energy    =      -1.2303541752880029 [Eh]
	 SCS Total Energy          =    -236.6752273751795883 [Eh]
	-----------------------------------------------------------

  Dipole Moment: [D]
     X:     0.0655      Y:     0.0145      Z:    -0.0000     Total:     0.0671

*** Psi4 exiting successfully. Buy a developer a beer!
