                               Psi4 1.3.2 release

  ==> Input File <==

--------------------------------------------------------------------------
#psi4
#
memory 32 gb

molecule  {
0 1
  C       -0.4325780     0.0000000    -0.0000100
  C        0.8671890     0.8245510    -0.0008470
  C       -0.5186390    -0.8803510    -1.2490450
  C       -1.6124710     0.9760830    -0.0007580
  C       -0.5183990    -0.8781140     1.2506300
  C        2.1678366     0.0228719    -0.0225630
  H        0.8502280     1.4838230    -0.8795210
  H        0.8502290     1.4855890     0.8765000
  H        0.2706380    -1.6377050    -1.2666100
  H       -0.4322060    -0.2762080    -2.1593560
  H       -1.4806460    -1.4035230    -1.2819340
  H       -1.5874350     1.6202330     0.8851840
  H       -1.5876340     1.6186070    -0.8878840
  H       -2.5658430     0.4362680    -0.0001590
  H        0.2708010    -1.6355150     1.2692820
  H       -1.4804630    -1.4011040     1.2847180
  H       -0.4316200    -0.2723440     2.1598230
  H        2.2659520    -0.6017660    -0.8839470
  H        3.0286720     0.7201300    -0.0010770
  H        2.2662480    -0.5994780     0.8854570
units angstrom
no_reorient  #important for SAPT in psi4, default
symmetry c1  #important for SAPT in psi4, default
}

set PROPERTIES_ORIGIN ["COM"]
properties('MP2/aug-cc-pvtz', properties = ['dipole'])
--------------------------------------------------------------------------

    Molecular point group: c1
  Charge       = 0
  Multiplicity = 1
  Basis Set: AUG-CC-PVTZ
    Blend: AUG-CC-PVTZ
  Basis Set: (AUG-CC-PVTZ AUX)
    Blend: AUG-CC-PVTZ-JKFIT

    Orbital Energies [Eh]
    ---------------------

    Doubly Occupied:

       1A    -11.227013     2A    -11.213974     3A    -11.209028
       4A    -11.207050     5A    -11.206778     6A    -11.206753
       7A     -1.109619     8A     -0.995835     9A     -0.927024
      10A     -0.926571    11A     -0.848899    12A     -0.721597
      13A     -0.624197    14A     -0.622488    15A     -0.596199
      16A     -0.582054    17A     -0.548643    18A     -0.528718
      19A     -0.523275    20A     -0.508006    21A     -0.500920
      22A     -0.484949    23A     -0.448398    24A     -0.444665
      25A     -0.436702

  @DF-RHF Final Energy:  -235.44686576509883

   => Energetics <=

    Nuclear Repulsion Energy =            266.5773699644032035
    One-Electron Energy =                -844.7497537884510166
    Two-Electron Energy =                 342.7255180589489214
    Total Energy =                       -235.4468657650988348
  Basis Set: (AUG-CC-PVTZ AUX)
    Blend: AUG-CC-PVTZ-RI
    Molecular point group: c1

    Geometry (in Angstrom), charge = 0, multiplicity = 1:

       Center              X                  Y                   Z               Mass
    ------------   -----------------  -----------------  -----------------  -----------------
         C           -0.428792567562    -0.003645064493     0.003132929836    12.000000000000
         C            0.870974432438     0.820905935507     0.002295929836    12.000000000000
         C           -0.514853567562    -0.883996064493    -1.245902070164    12.000000000000
         C           -1.608685567562     0.972437935507     0.002384929836    12.000000000000
         C           -0.514613567562    -0.881759064493     1.253772929836    12.000000000000
         C            2.171622032438     0.019226835507    -0.019420070164    12.000000000000
         H            0.854013432438     1.480177935507    -0.876378070164     1.007825032230
         H            0.854014432438     1.481943935507     0.879642929836     1.007825032230
         H            0.274423432438    -1.641350064493    -1.263467070164     1.007825032230
         H           -0.428420567562    -0.279853064493    -2.156213070164     1.007825032230
         H           -1.476860567562    -1.407168064493    -1.278791070164     1.007825032230
         H           -1.583649567562     1.616587935507     0.888326929836     1.007825032230
         H           -1.583848567562     1.614961935507    -0.884741070164     1.007825032230
         H           -2.562057567562     0.432622935507     0.002983929836     1.007825032230
         H            0.274586432438    -1.639160064493     1.272424929836     1.007825032230
         H           -1.476677567562    -1.404749064493     1.287860929836     1.007825032230
         H           -0.427834567562    -0.275989064493     2.162965929836     1.007825032230
         H            2.269737432438    -0.605411064493    -0.880804070164     1.007825032230
         H            3.032457432438     0.716484935507     0.002065929836     1.007825032230
         H            2.270033432438    -0.603123064493     0.888599929836     1.007825032230

  Basis Set: AUG-CC-PVTZ
    Blend: AUG-CC-PVTZ
  Basis Set: (AUG-CC-PVTZ AUX)
    Blend: AUG-CC-PVTZ-JKFIT
	 Reference Energy          =    -235.4468657650988348 [Eh]
	 Singles Energy            =      -0.0000000000000000 [Eh]
	 Same-Spin Energy          =      -0.2554223299545653 [Eh]
	 Opposite-Spin Energy      =      -0.9541322150186773 [Eh]
	 Correlation Energy        =      -1.2095545449732426 [Eh]
	 Total Energy              =    -236.6564203100720647 [Eh]

	 ================> DF-SCS-MP2 Energies <==================
	-----------------------------------------------------------
	 SCS Same-Spin Scale       =       0.3333333333333333 [-]
	 SCS Opposite-Spin Scale   =       1.2000000000000000 [-]
	 SCS Same-Spin Energy      =      -0.0851407766515218 [Eh]
	 SCS Opposite-Spin Energy  =      -1.1449586580224127 [Eh]
	 SCS Correlation Energy    =      -1.2300994346739345 [Eh]
	 SCS Total Energy          =    -236.6769651997727806 [Eh]
	-----------------------------------------------------------

  Dipole Moment: [D]
     X:     0.0536      Y:     0.0284      Z:    -0.0091     Total:     0.0613

*** Psi4 exiting successfully. Buy a developer a beer!
