                               Psi4 1.3.2 release

  ==> Input File <==

--------------------------------------------------------------------------
#psi4
#
memory 32 gb

molecule  {
0 1
  C       -0.4467704     0.0228096    -0.0000331
  C        0.8671890     0.8245510    -0.0008470
  C       -0.5186390    -0.8803510    -1.2490450
  C       -1.6124710     0.9760830    -0.0007580
  C       -0.5183990    -0.8781140     1.2506300
  C        2.1754120     0.0349960    -0.0000500
  H        0.8502280     1.4838230    -0.8795210
  H        0.8502290     1.4855890     0.8765000
  H        0.2706380    -1.6377050    -1.2666100
  H       -0.4322060    -0.2762080    -2.1593560
  H       -1.4806460    -1.4035230    -1.2819340
  H       -1.5874350     1.6202330     0.8851840
  H       -1.5876340     1.6186070    -0.8878840
  H       -2.5658430     0.4362680    -0.0001590
  H        0.2708010    -1.6355150     1.2692820
  H       -1.4804630    -1.4011040     1.2847180
  H       -0.4316200    -0.2723440     2.1598230
  H        2.2659520    -0.6017660    -0.8839470
  H        3.0286720     0.7201300    -0.0010770
  H        2.2662480    -0.5994780     0.8854570
units angstrom
no_reorient  #important for SAPT in psi4, default
symmetry c1  #important for SAPT in psi4, default
}

set PROPERTIES_ORIGIN ["COM"]
properties('MP2/aug-cc-pvtz', properties = ['dipole'])
--------------------------------------------------------------------------

    Molecular point group: c1
  Charge       = 0
  Multiplicity = 1
  Basis Set: AUG-CC-PVTZ
    Blend: AUG-CC-PVTZ
  Basis Set: (AUG-CC-PVTZ AUX)
    Blend: AUG-CC-PVTZ-JKFIT

    Orbital Energies [Eh]
    ---------------------

    Doubly Occupied:

       1A    -11.227373     2A    -11.213826     3A    -11.209396
       4A    -11.207061     5A    -11.207043     6A    -11.206571
       7A     -1.109716     8A     -0.996402     9A     -0.928308
      10A     -0.924958    11A     -0.849472    12A     -0.721046
      13A     -0.623715    14A     -0.622889    15A     -0.596197
      16A     -0.581859    17A     -0.550179    18A     -0.529519
      19A     -0.522869    20A     -0.508184    21A     -0.500391
      22A     -0.483206    23A     -0.452497    24A     -0.441982
      25A     -0.436516

  @DF-RHF Final Energy:  -235.44695525451195

   => Energetics <=

    Nuclear Repulsion Energy =            266.4631612901863491
    One-Electron Energy =                -844.5178820788440817
    Two-Electron Energy =                 342.6077655341458126
    Total Energy =                       -235.4469552545119200
  Basis Set: (AUG-CC-PVTZ AUX)
    Blend: AUG-CC-PVTZ-RI
    Molecular point group: c1

    Geometry (in Angstrom), charge = 0, multiplicity = 1:

       Center              X                  Y                   Z               Mass
    ------------   -----------------  -----------------  -----------------  -----------------
         C           -0.442062839881     0.014296267147    -0.000024303353    12.000000000000
         C            0.871896560119     0.816037667147    -0.000838203353    12.000000000000
         C           -0.513931439881    -0.888864332853    -1.249036203353    12.000000000000
         C           -1.607763439881     0.967569667147    -0.000749203353    12.000000000000
         C           -0.513691439881    -0.886627332853     1.250638796647    12.000000000000
         C            2.180119560119     0.026482667147    -0.000041203353    12.000000000000
         H            0.854935560119     1.475309667147    -0.879512203353     1.007825032230
         H            0.854936560119     1.477075667147     0.876508796647     1.007825032230
         H            0.275345560119    -1.646218332853    -1.266601203353     1.007825032230
         H           -0.427498439881    -0.284721332853    -2.159347203353     1.007825032230
         H           -1.475938439881    -1.412036332853    -1.281925203353     1.007825032230
         H           -1.582727439881     1.611719667147     0.885192796647     1.007825032230
         H           -1.582926439881     1.610093667147    -0.887875203353     1.007825032230
         H           -2.561135439881     0.427754667147    -0.000150203353     1.007825032230
         H            0.275508560119    -1.644028332853     1.269290796647     1.007825032230
         H           -1.475755439881    -1.409617332853     1.284726796647     1.007825032230
         H           -0.426912439881    -0.280857332853     2.159831796647     1.007825032230
         H            2.270659560119    -0.610279332853    -0.883938203353     1.007825032230
         H            3.033379560119     0.711616667147    -0.001068203353     1.007825032230
         H            2.270955560119    -0.607991332853     0.885465796647     1.007825032230

  Basis Set: AUG-CC-PVTZ
    Blend: AUG-CC-PVTZ
  Basis Set: (AUG-CC-PVTZ AUX)
    Blend: AUG-CC-PVTZ-JKFIT
	 Reference Energy          =    -235.4469552545119484 [Eh]
	 Singles Energy            =      -0.0000000000000000 [Eh]
	 Same-Spin Energy          =      -0.2554226133391061 [Eh]
	 Opposite-Spin Energy      =      -0.9541124047102097 [Eh]
	 Correlation Energy        =      -1.2095350180493158 [Eh]
	 Total Energy              =    -236.6564902725612569 [Eh]

	 ================> DF-SCS-MP2 Energies <==================
	-----------------------------------------------------------
	 SCS Same-Spin Scale       =       0.3333333333333333 [-]
	 SCS Opposite-Spin Scale   =       1.2000000000000000 [-]
	 SCS Same-Spin Energy      =      -0.0851408711130354 [Eh]
	 SCS Opposite-Spin Energy  =      -1.1449348856522517 [Eh]
	 SCS Correlation Energy    =      -1.2300757567652871 [Eh]
	 SCS Total Energy          =    -236.6770310112772222 [Eh]
	-----------------------------------------------------------

  Dipole Moment: [D]
     X:     0.0490      Y:     0.0400      Z:    -0.0001     Total:     0.0633

*** Psi4 exiting successfully. Buy a developer a beer!
