                               Psi4 1.3.2 release

  ==> Input File <==

--------------------------------------------------------------------------
#psi4
#
memory 32 gb

molecule  {
0 1
  C       -0.4325780     0.0000000    -0.0000100
  C        0.8671890     0.8245510    -0.0008470
  C       -0.5186390    -0.8803510    -1.2490450
  C       -1.6124710     0.9760830    -0.0007580
  C       -0.5183990    -0.8781140     1.2506300
  C        2.1754120     0.0349960    -0.0000500
  H        0.8510253     1.4527662    -0.9020016
  H        0.8502290     1.4855890     0.8765000
  H        0.2706380    -1.6377050    -1.2666100
  H       -0.4322060    -0.2762080    -2.1593560
  H       -1.4806460    -1.4035230    -1.2819340
  H       -1.5874350     1.6202330     0.8851840
  H       -1.5876340     1.6186070    -0.8878840
  H       -2.5658430     0.4362680    -0.0001590
  H        0.2708010    -1.6355150     1.2692820
  H       -1.4804630    -1.4011040     1.2847180
  H       -0.4316200    -0.2723440     2.1598230
  H        2.2659520    -0.6017660    -0.8839470
  H        3.0286720     0.7201300    -0.0010770
  H        2.2662480    -0.5994780     0.8854570
units angstrom
no_reorient  #important for SAPT in psi4, default
symmetry c1  #important for SAPT in psi4, default
}

set PROPERTIES_ORIGIN ["COM"]
properties('MP2/aug-cc-pvtz', properties = ['dipole'])
--------------------------------------------------------------------------

    Molecular point group: c1
  Charge       = 0
  Multiplicity = 1
  Basis Set: AUG-CC-PVTZ
    Blend: AUG-CC-PVTZ
  Basis Set: (AUG-CC-PVTZ AUX)
    Blend: AUG-CC-PVTZ-JKFIT

    Orbital Energies [Eh]
    ---------------------

    Doubly Occupied:

       1A    -11.227104     2A    -11.213940     3A    -11.208680
       4A    -11.207022     5A    -11.206863     6A    -11.206839
       7A     -1.109671     8A     -0.996057     9A     -0.927067
      10A     -0.926571    11A     -0.848475    12A     -0.720850
      13A     -0.624290    14A     -0.623506    15A     -0.596390
      16A     -0.581059    17A     -0.549637    18A     -0.529485
      19A     -0.523702    20A     -0.508180    21A     -0.498788
      22A     -0.485236    23A     -0.448501    24A     -0.444442
      25A     -0.437350

  @DF-RHF Final Energy:  -235.44752745248800

   => Energetics <=

    Nuclear Repulsion Energy =            266.5302701427360148
    One-Electron Energy =                -844.6561826645519204
    Two-Electron Energy =                 342.6783850693279874
    Total Energy =                       -235.4475274524879751
  Basis Set: (AUG-CC-PVTZ AUX)
    Blend: AUG-CC-PVTZ-RI
    Molecular point group: c1

    Geometry (in Angstrom), charge = 0, multiplicity = 1:

       Center              X                  Y                   Z               Mass
    ------------   -----------------  -----------------  -----------------  -----------------
         C           -0.429857586928    -0.004971158741     0.000258690135    12.000000000000
         C            0.869909413072     0.819579841259    -0.000578309865    12.000000000000
         C           -0.515918586928    -0.885322158741    -1.248776309865    12.000000000000
         C           -1.609750586928     0.971111841259    -0.000489309865    12.000000000000
         C           -0.515678586928    -0.883085158741     1.250898690135    12.000000000000
         C            2.178132413072     0.030024841259     0.000218690135    12.000000000000
         H            0.853745713072     1.447795041259    -0.901732909865     1.007825032230
         H            0.852949413072     1.480617841259     0.876768690135     1.007825032230
         H            0.273358413072    -1.642676158741    -1.266341309865     1.007825032230
         H           -0.429485586928    -0.281179158741    -2.159087309865     1.007825032230
         H           -1.477925586928    -1.408494158741    -1.281665309865     1.007825032230
         H           -1.584714586928     1.615261841259     0.885452690135     1.007825032230
         H           -1.584913586928     1.613635841259    -0.887615309865     1.007825032230
         H           -2.563122586928     0.431296841259     0.000109690135     1.007825032230
         H            0.273521413072    -1.640486158741     1.269550690135     1.007825032230
         H           -1.477742586928    -1.406075158741     1.284986690135     1.007825032230
         H           -0.428899586928    -0.277315158741     2.160091690135     1.007825032230
         H            2.268672413072    -0.606737158741    -0.883678309865     1.007825032230
         H            3.031392413072     0.715158841259    -0.000808309865     1.007825032230
         H            2.268968413072    -0.604449158741     0.885725690135     1.007825032230

  Basis Set: AUG-CC-PVTZ
    Blend: AUG-CC-PVTZ
  Basis Set: (AUG-CC-PVTZ AUX)
    Blend: AUG-CC-PVTZ-JKFIT
	 Reference Energy          =    -235.4475274524880035 [Eh]
	 Singles Energy            =      -0.0000000000000000 [Eh]
	 Same-Spin Energy          =      -0.2554123143994580 [Eh]
	 Opposite-Spin Energy      =      -0.9541173618689284 [Eh]
	 Correlation Energy        =      -1.2095296762683865 [Eh]
	 Total Energy              =    -236.6570571287563780 [Eh]

	 ================> DF-SCS-MP2 Energies <==================
	-----------------------------------------------------------
	 SCS Same-Spin Scale       =       0.3333333333333333 [-]
	 SCS Opposite-Spin Scale   =       1.2000000000000000 [-]
	 SCS Same-Spin Energy      =      -0.0851374381331527 [Eh]
	 SCS Opposite-Spin Energy  =      -1.1449408342427141 [Eh]
	 SCS Correlation Energy    =      -1.2300782723758668 [Eh]
	 SCS Total Energy          =    -236.6776057248638665 [Eh]
	-----------------------------------------------------------

  Dipole Moment: [D]
     X:     0.0516      Y:     0.0235      Z:    -0.0038     Total:     0.0568

*** Psi4 exiting successfully. Buy a developer a beer!
