                               Psi4 1.3.2 release

  ==> Input File <==

--------------------------------------------------------------------------
#psi4
#
memory 32 gb

molecule  {
0 1
  C       -0.4325780     0.0000000    -0.0000100
  C        0.8671890     0.8245510    -0.0008470
  C       -0.5186390    -0.8803510    -1.2490450
  C       -1.6124710     0.9760830    -0.0007580
  C       -0.5296135    -0.9928597     1.4140548
  C        2.1754120     0.0349960    -0.0000500
  H        0.8502280     1.4838230    -0.8795210
  H        0.8502290     1.4855890     0.8765000
  H        0.2706380    -1.6377050    -1.2666100
  H       -0.4322060    -0.2762080    -2.1593560
  H       -1.4806460    -1.4035230    -1.2819340
  H       -1.5874350     1.6202330     0.8851840
  H       -1.5876340     1.6186070    -0.8878840
  H       -2.5658430     0.4362680    -0.0001590
  H        0.2708010    -1.6355150     1.2692820
  H       -1.4804630    -1.4011040     1.2847180
  H       -0.4316200    -0.2723440     2.1598230
  H        2.2659520    -0.6017660    -0.8839470
  H        3.0286720     0.7201300    -0.0010770
  H        2.2662480    -0.5994780     0.8854570
units angstrom
no_reorient  #important for SAPT in psi4, default
symmetry c1  #important for SAPT in psi4, default
}

set PROPERTIES_ORIGIN ["COM"]
properties('MP2/aug-cc-pvtz', properties = ['dipole'])
--------------------------------------------------------------------------

    Molecular point group: c1
  Charge       = 0
  Multiplicity = 1
  Basis Set: AUG-CC-PVTZ
    Blend: AUG-CC-PVTZ
  Basis Set: (AUG-CC-PVTZ AUX)
    Blend: AUG-CC-PVTZ-JKFIT

    Orbital Energies [Eh]
    ---------------------

    Doubly Occupied:

       1A    -11.236025     2A    -11.214361     3A    -11.209350
       4A    -11.207488     5A    -11.207471     6A    -11.202467
       7A     -1.095230     8A     -0.993207     9A     -0.931763
      10A     -0.925430    11A     -0.848745    12A     -0.714735
      13A     -0.623512    14A     -0.619450    15A     -0.599159
      16A     -0.582514    17A     -0.556804    18A     -0.547110
      19A     -0.527400    20A     -0.522414    21A     -0.500701
      22A     -0.485847    23A     -0.449002    24A     -0.442708
      25A     -0.395802

  @DF-RHF Final Energy:  -235.42200175198334

   => Energetics <=

    Nuclear Repulsion Energy =            263.4205711096113305
    One-Electron Energy =                -838.4077563285503629
    Two-Electron Energy =                 339.5651834669556024
    Total Energy =                       -235.4220017519833732
  Basis Set: (AUG-CC-PVTZ AUX)
    Blend: AUG-CC-PVTZ-RI
    Molecular point group: c1

    Geometry (in Angstrom), charge = 0, multiplicity = 1:

       Center              X                  Y                   Z               Mass
    ------------   -----------------  -----------------  -----------------  -----------------
         C           -0.428285432177     0.010656011213    -0.022778871913    12.000000000000
         C            0.871481567823     0.835207011213    -0.023615871913    12.000000000000
         C           -0.514346432177    -0.869694988787    -1.271813871913    12.000000000000
         C           -1.608178432177     0.986739011213    -0.023526871913    12.000000000000
         C           -0.525320932177    -0.982203688787     1.391285928087    12.000000000000
         C            2.179704567823     0.045652011213    -0.022818871913    12.000000000000
         H            0.854520567823     1.494479011213    -0.902289871913     1.007825032230
         H            0.854521567823     1.496245011213     0.853731128087     1.007825032230
         H            0.274930567823    -1.627048988787    -1.289378871913     1.007825032230
         H           -0.427913432177    -0.265551988787    -2.182124871913     1.007825032230
         H           -1.476353432177    -1.392866988787    -1.304702871913     1.007825032230
         H           -1.583142432177     1.630889011213     0.862415128087     1.007825032230
         H           -1.583341432177     1.629263011213    -0.910652871913     1.007825032230
         H           -2.561550432177     0.446924011213    -0.022927871913     1.007825032230
         H            0.275093567823    -1.624858988787     1.246513128087     1.007825032230
         H           -1.476170432177    -1.390447988787     1.261949128087     1.007825032230
         H           -0.427327432177    -0.261687988787     2.137054128087     1.007825032230
         H            2.270244567823    -0.591109988787    -0.906715871913     1.007825032230
         H            3.032964567823     0.730786011213    -0.023845871913     1.007825032230
         H            2.270540567823    -0.588821988787     0.862688128087     1.007825032230

  Basis Set: AUG-CC-PVTZ
    Blend: AUG-CC-PVTZ
  Basis Set: (AUG-CC-PVTZ AUX)
    Blend: AUG-CC-PVTZ-JKFIT
	 Reference Energy          =    -235.4220017519833448 [Eh]
	 Singles Energy            =      -0.0000000000000000 [Eh]
	 Same-Spin Energy          =      -0.2552116485037964 [Eh]
	 Opposite-Spin Energy      =      -0.9550785737432351 [Eh]
	 Correlation Energy        =      -1.2102902222470315 [Eh]
	 Total Energy              =    -236.6322919742303839 [Eh]

	 ================> DF-SCS-MP2 Energies <==================
	-----------------------------------------------------------
	 SCS Same-Spin Scale       =       0.3333333333333333 [-]
	 SCS Opposite-Spin Scale   =       1.2000000000000000 [-]
	 SCS Same-Spin Energy      =      -0.0850705495012655 [Eh]
	 SCS Opposite-Spin Energy  =      -1.1460942884918821 [Eh]
	 SCS Correlation Energy    =      -1.2311648379931475 [Eh]
	 SCS Total Energy          =    -236.6531665899764789 [Eh]
	-----------------------------------------------------------

  Dipole Moment: [D]
     X:     0.0640      Y:     0.1094      Z:    -0.1031     Total:     0.1634

*** Psi4 exiting successfully. Buy a developer a beer!
