                               Psi4 1.3.2 release

  ==> Input File <==

--------------------------------------------------------------------------
#psi4
#
memory 32 gb

molecule  {
0 1
  C       -0.4325780     0.0000000    -0.0000100
  C        0.8671890     0.8245510    -0.0008470
  C       -0.5186390    -0.8803510    -1.2490450
  C       -1.6124710     0.9760830    -0.0007580
  C       -0.5183990    -0.8781140     1.2506300
  C        2.1754120     0.0349960    -0.0000500
  H        0.8498370     1.4990525    -0.8678775
  H        0.8502290     1.4855890     0.8765000
  H        0.2706380    -1.6377050    -1.2666100
  H       -0.4322060    -0.2762080    -2.1593560
  H       -1.4806460    -1.4035230    -1.2819340
  H       -1.5874350     1.6202330     0.8851840
  H       -1.5876340     1.6186070    -0.8878840
  H       -2.5658430     0.4362680    -0.0001590
  H        0.2708010    -1.6355150     1.2692820
  H       -1.4804630    -1.4011040     1.2847180
  H       -0.4316200    -0.2723440     2.1598230
  H        2.2659520    -0.6017660    -0.8839470
  H        3.0286720     0.7201300    -0.0010770
  H        2.2662480    -0.5994780     0.8854570
units angstrom
no_reorient  #important for SAPT in psi4, default
symmetry c1  #important for SAPT in psi4, default
}

set PROPERTIES_ORIGIN ["COM"]
properties('MP2/aug-cc-pvtz', properties = ['dipole'])
--------------------------------------------------------------------------

    Molecular point group: c1
  Charge       = 0
  Multiplicity = 1
  Basis Set: AUG-CC-PVTZ
    Blend: AUG-CC-PVTZ
  Basis Set: (AUG-CC-PVTZ AUX)
    Blend: AUG-CC-PVTZ-JKFIT

    Orbital Energies [Eh]
    ---------------------

    Doubly Occupied:

       1A    -11.227370     2A    -11.213779     3A    -11.208982
       4A    -11.206974     5A    -11.206893     6A    -11.206861
       7A     -1.109461     8A     -0.995912     9A     -0.926964
      10A     -0.926647    11A     -0.848880    12A     -0.721822
      13A     -0.624193    14A     -0.621655    15A     -0.596322
      16A     -0.580640    17A     -0.550086    18A     -0.529641
      19A     -0.523624    20A     -0.507930    21A     -0.500239
      22A     -0.483530    23A     -0.447478    24A     -0.445092
      25A     -0.438409

  @DF-RHF Final Energy:  -235.44767057156520

   => Energetics <=

    Nuclear Repulsion Energy =            266.4813714013357639
    One-Electron Energy =                -844.5593189902956510
    Two-Electron Energy =                 342.6302770173946897
    Total Energy =                       -235.4476705715651974
  Basis Set: (AUG-CC-PVTZ AUX)
    Blend: AUG-CC-PVTZ-RI
    Molecular point group: c1

    Geometry (in Angstrom), charge = 0, multiplicity = 1:

       Center              X                  Y                   Z               Mass
    ------------   -----------------  -----------------  -----------------  -----------------
         C           -0.429843679081    -0.005512892980    -0.000140697878    12.000000000000
         C            0.869923320919     0.819038107020    -0.000977697878    12.000000000000
         C           -0.515904679081    -0.885863892980    -1.249175697878    12.000000000000
         C           -1.609736679081     0.970570107020    -0.000888697878    12.000000000000
         C           -0.515664679081    -0.883626892980     1.250499302122    12.000000000000
         C            2.178146320919     0.029483107020    -0.000180697878    12.000000000000
         H            0.852571320919     1.493539607020    -0.868008197878     1.007825032230
         H            0.852963320919     1.480076107020     0.876369302122     1.007825032230
         H            0.273372320919    -1.643217892980    -1.266740697878     1.007825032230
         H           -0.429471679081    -0.281720892980    -2.159486697878     1.007825032230
         H           -1.477911679081    -1.409035892980    -1.282064697878     1.007825032230
         H           -1.584700679081     1.614720107020     0.885053302122     1.007825032230
         H           -1.584899679081     1.613094107020    -0.888014697878     1.007825032230
         H           -2.563108679081     0.430755107020    -0.000289697878     1.007825032230
         H            0.273535320919    -1.641027892980     1.269151302122     1.007825032230
         H           -1.477728679081    -1.406616892980     1.284587302122     1.007825032230
         H           -0.428885679081    -0.277856892980     2.159692302122     1.007825032230
         H            2.268686320919    -0.607278892980    -0.884077697878     1.007825032230
         H            3.031406320919     0.714617107020    -0.001207697878     1.007825032230
         H            2.268982320919    -0.604990892980     0.885326302122     1.007825032230

  Basis Set: AUG-CC-PVTZ
    Blend: AUG-CC-PVTZ
  Basis Set: (AUG-CC-PVTZ AUX)
    Blend: AUG-CC-PVTZ-JKFIT
	 Reference Energy          =    -235.4476705715651974 [Eh]
	 Singles Energy            =      -0.0000000000000000 [Eh]
	 Same-Spin Energy          =      -0.2553818735086202 [Eh]
	 Opposite-Spin Energy      =      -0.9540485032838115 [Eh]
	 Correlation Energy        =      -1.2094303767924317 [Eh]
	 Total Energy              =    -236.6571009483576233 [Eh]

	 ================> DF-SCS-MP2 Energies <==================
	-----------------------------------------------------------
	 SCS Same-Spin Scale       =       0.3333333333333333 [-]
	 SCS Opposite-Spin Scale   =       1.2000000000000000 [-]
	 SCS Same-Spin Energy      =      -0.0851272911695401 [Eh]
	 SCS Opposite-Spin Energy  =      -1.1448582039405737 [Eh]
	 SCS Correlation Energy    =      -1.2299854951101137 [Eh]
	 SCS Total Energy          =    -236.6776560666752971 [Eh]
	-----------------------------------------------------------

  Dipole Moment: [D]
     X:     0.0540      Y:     0.0359      Z:     0.0021     Total:     0.0648

*** Psi4 exiting successfully. Buy a developer a beer!
