                               Psi4 1.3.2 release

  ==> Input File <==

--------------------------------------------------------------------------
#psi4
#
memory 32 gb

molecule  {
0 1
  C       -0.4325780     0.0000000    -0.0000100
  C        0.8671890     0.8245510    -0.0008470
  C       -0.5186390    -0.8803510    -1.2490450
  C       -1.6124710     0.9760830    -0.0007580
  C       -0.5183990    -0.8781140     1.2506300
  C        2.1754120     0.0349960    -0.0000500
  H        0.8502280     1.4838230    -0.8795210
  H        0.8502290     1.4855890     0.8765000
  H        0.2706380    -1.6377050    -1.2666100
  H       -0.4322060    -0.2762080    -2.1593560
  H       -1.4806460    -1.4035230    -1.2819340
  H       -1.5874350     1.6202330     0.8851840
  H       -1.5876340     1.6186070    -0.8878840
  H       -2.5658430     0.4362680    -0.0001590
  H        0.2708010    -1.6355150     1.2692820
  H       -1.4804630    -1.4011040     1.2847180
  H       -0.4316200    -0.2723440     2.1598230
  H        2.2659520    -0.6017660    -0.8839470
  H        3.0286720     0.7201300    -0.0010770
  H        2.2662480    -0.5994780     0.8854570
units angstrom
no_reorient  #important for SAPT in psi4, default
symmetry c1  #important for SAPT in psi4, default
}

set PROPERTIES_ORIGIN ["COM"]
properties('MP2/aug-cc-pvtz', properties = ['dipole'])
--------------------------------------------------------------------------

    Molecular point group: c1
  Charge       = 0
  Multiplicity = 1
  Basis Set: AUG-CC-PVTZ
    Blend: AUG-CC-PVTZ
  Basis Set: (AUG-CC-PVTZ AUX)
    Blend: AUG-CC-PVTZ-JKFIT

    Orbital Energies [Eh]
    ---------------------

    Doubly Occupied:

       1A    -11.227279     2A    -11.213833     3A    -11.208879
       4A    -11.206941     5A    -11.206925     6A    -11.206859
       7A     -1.109527     8A     -0.995955     9A     -0.926996
      10A     -0.926621    11A     -0.848739    12A     -0.721492
      13A     -0.623976    14A     -0.622505    15A     -0.596344
      16A     -0.580781    17A     -0.549930    18A     -0.529587
      19A     -0.523650    20A     -0.508010    21A     -0.499742
      22A     -0.484126    23A     -0.447834    24A     -0.444868
      25A     -0.438094

  @DF-RHF Final Energy:  -235.44769706414627

   => Energetics <=

    Nuclear Repulsion Energy =            266.4972328119025633
    One-Electron Energy =                -844.5908697931329243
    Two-Electron Energy =                 342.6459399170840925
    Total Energy =                       -235.4476970641462685
  Basis Set: (AUG-CC-PVTZ AUX)
    Blend: AUG-CC-PVTZ-RI
    Molecular point group: c1

    Geometry (in Angstrom), charge = 0, multiplicity = 1:

       Center              X                  Y                   Z               Mass
    ------------   -----------------  -----------------  -----------------  -----------------
         C           -0.429848255340    -0.005334647115    -0.000004422509    12.000000000000
         C            0.869918744660     0.819216352885    -0.000841422509    12.000000000000
         C           -0.515909255340    -0.885685647115    -1.249039422509    12.000000000000
         C           -1.609741255340     0.970748352885    -0.000752422509    12.000000000000
         C           -0.515669255340    -0.883448647115     1.250635577491    12.000000000000
         C            2.178141744660     0.029661352885    -0.000044422509    12.000000000000
         H            0.852957744660     1.478488352885    -0.879515422509     1.007825032230
         H            0.852958744660     1.480254352885     0.876505577491     1.007825032230
         H            0.273367744660    -1.643039647115    -1.266604422509     1.007825032230
         H           -0.429476255340    -0.281542647115    -2.159350422509     1.007825032230
         H           -1.477916255340    -1.408857647115    -1.281928422509     1.007825032230
         H           -1.584705255340     1.614898352885     0.885189577491     1.007825032230
         H           -1.584904255340     1.613272352885    -0.887878422509     1.007825032230
         H           -2.563113255340     0.430933352885    -0.000153422509     1.007825032230
         H            0.273530744660    -1.640849647115     1.269287577491     1.007825032230
         H           -1.477733255340    -1.406438647115     1.284723577491     1.007825032230
         H           -0.428890255340    -0.277678647115     2.159828577491     1.007825032230
         H            2.268681744660    -0.607100647115    -0.883941422509     1.007825032230
         H            3.031401744660     0.714795352885    -0.001071422509     1.007825032230
         H            2.268977744660    -0.604812647115     0.885462577491     1.007825032230

  Basis Set: AUG-CC-PVTZ
    Blend: AUG-CC-PVTZ
  Basis Set: (AUG-CC-PVTZ AUX)
    Blend: AUG-CC-PVTZ-JKFIT
	 Reference Energy          =    -235.4476970641462685 [Eh]
	 Singles Energy            =      -0.0000000000000000 [Eh]
	 Same-Spin Energy          =      -0.2553881894438371 [Eh]
	 Opposite-Spin Energy      =      -0.9540647473891810 [Eh]
	 Correlation Energy        =      -1.2094529368330180 [Eh]
	 Total Energy              =    -236.6571500009792999 [Eh]

	 ================> DF-SCS-MP2 Energies <==================
	-----------------------------------------------------------
	 SCS Same-Spin Scale       =       0.3333333333333333 [-]
	 SCS Opposite-Spin Scale   =       1.2000000000000000 [-]
	 SCS Same-Spin Energy      =      -0.0851293964812790 [Eh]
	 SCS Opposite-Spin Energy  =      -1.1448776968670171 [Eh]
	 SCS Correlation Energy    =      -1.2300070933482963 [Eh]
	 SCS Total Energy          =    -236.6777041574945599 [Eh]
	-----------------------------------------------------------

  Dipole Moment: [D]
     X:     0.0532      Y:     0.0317      Z:    -0.0000     Total:     0.0620

*** Psi4 exiting successfully. Buy a developer a beer!
