                               Psi4 1.3.2 release

  ==> Input File <==

--------------------------------------------------------------------------
#psi4
#
memory 32 gb

molecule  {
0 1
  C       -0.3787287    -0.0692807    -0.1351350
  C        0.8671890     0.8245510    -0.0008470
  C       -0.5186390    -0.8803510    -1.2490450
  C       -1.6124710     0.9760830    -0.0007580
  C       -0.5183990    -0.8781140     1.2506300
  C        2.1754120     0.0349960    -0.0000500
  H        0.8502280     1.4838230    -0.8795210
  H        0.8502290     1.4855890     0.8765000
  H        0.2706380    -1.6377050    -1.2666100
  H       -0.4322060    -0.2762080    -2.1593560
  H       -1.4806460    -1.4035230    -1.2819340
  H       -1.5874350     1.6202330     0.8851840
  H       -1.5876340     1.6186070    -0.8878840
  H       -2.5658430     0.4362680    -0.0001590
  H        0.2708010    -1.6355150     1.2692820
  H       -1.4804630    -1.4011040     1.2847180
  H       -0.4316200    -0.2723440     2.1598230
  H        2.2659520    -0.6017660    -0.8839470
  H        3.0286720     0.7201300    -0.0010770
  H        2.2662480    -0.5994780     0.8854570
units angstrom
no_reorient  #important for SAPT in psi4, default
symmetry c1  #important for SAPT in psi4, default
}

set PROPERTIES_ORIGIN ["COM"]
properties('MP2/aug-cc-pvtz', properties = ['dipole'])
--------------------------------------------------------------------------

    Molecular point group: c1
  Charge       = 0
  Multiplicity = 1
  Basis Set: AUG-CC-PVTZ
    Blend: AUG-CC-PVTZ
  Basis Set: (AUG-CC-PVTZ AUX)
    Blend: AUG-CC-PVTZ-JKFIT

    Orbital Energies [Eh]
    ---------------------

    Doubly Occupied:

       1A    -11.229928     2A    -11.215866     3A    -11.208230
       4A    -11.208117     5A    -11.207742     6A    -11.204430
       7A     -1.115393     8A     -0.999258     9A     -0.937445
      10A     -0.914894    11A     -0.847342    12A     -0.723640
      13A     -0.628393    14A     -0.623034    15A     -0.599216
      16A     -0.575679    17A     -0.549762    18A     -0.539613
      19A     -0.522247    20A     -0.507879    21A     -0.500387
      22A     -0.492080    23A     -0.479109    24A     -0.422331
      25A     -0.404783

  @DF-RHF Final Energy:  -235.41901379470499

   => Energetics <=

    Nuclear Repulsion Energy =            266.6395109457997705
    One-Electron Energy =                -844.8034520297434256
    Two-Electron Energy =                 342.7449272892386603
    Total Energy =                       -235.4190137947049948
  Basis Set: (AUG-CC-PVTZ AUX)
    Blend: AUG-CC-PVTZ-RI
    Molecular point group: c1

    Geometry (in Angstrom), charge = 0, multiplicity = 1:

       Center              X                  Y                   Z               Mass
    ------------   -----------------  -----------------  -----------------  -----------------
         C           -0.383503251862    -0.064960571359    -0.116298758645    12.000000000000
         C            0.862414448138     0.828871128641     0.017989241355    12.000000000000
         C           -0.523413551862    -0.876030871359    -1.230208758645    12.000000000000
         C           -1.617245551862     0.980403128641     0.018078241355    12.000000000000
         C           -0.523173551862    -0.873793871359     1.269466241355    12.000000000000
         C            2.170637448138     0.039316128641     0.018786241355    12.000000000000
         H            0.845453448138     1.488143128641    -0.860684758645     1.007825032230
         H            0.845454448138     1.489909128641     0.895336241355     1.007825032230
         H            0.265863448138    -1.633384871359    -1.247773758645     1.007825032230
         H           -0.436980551862    -0.271887871359    -2.140519758645     1.007825032230
         H           -1.485420551862    -1.399202871359    -1.263097758645     1.007825032230
         H           -1.592209551862     1.624553128641     0.904020241355     1.007825032230
         H           -1.592408551862     1.622927128641    -0.869047758645     1.007825032230
         H           -2.570617551862     0.440588128641     0.018677241355     1.007825032230
         H            0.266026448138    -1.631194871359     1.288118241355     1.007825032230
         H           -1.485237551862    -1.396783871359     1.303554241355     1.007825032230
         H           -0.436394551862    -0.268023871359     2.178659241355     1.007825032230
         H            2.261177448138    -0.597445871359    -0.865110758645     1.007825032230
         H            3.023897448138     0.724450128641     0.017759241355     1.007825032230
         H            2.261473448138    -0.595157871359     0.904293241355     1.007825032230

  Basis Set: AUG-CC-PVTZ
    Blend: AUG-CC-PVTZ
  Basis Set: (AUG-CC-PVTZ AUX)
    Blend: AUG-CC-PVTZ-JKFIT
	 Reference Energy          =    -235.4190137947049948 [Eh]
	 Singles Energy            =      -0.0000000000000000 [Eh]
	 Same-Spin Energy          =      -0.2565723421823339 [Eh]
	 Opposite-Spin Energy      =      -0.9562705259857962 [Eh]
	 Correlation Energy        =      -1.2128428681681300 [Eh]
	 Total Energy              =    -236.6318566628731332 [Eh]

	 ================> DF-SCS-MP2 Energies <==================
	-----------------------------------------------------------
	 SCS Same-Spin Scale       =       0.3333333333333333 [-]
	 SCS Opposite-Spin Scale   =       1.2000000000000000 [-]
	 SCS Same-Spin Energy      =      -0.0855241140607780 [Eh]
	 SCS Opposite-Spin Energy  =      -1.1475246311829554 [Eh]
	 SCS Correlation Energy    =      -1.2330487452437335 [Eh]
	 SCS Total Energy          =    -236.6520625399487301 [Eh]
	-----------------------------------------------------------

  Dipole Moment: [D]
     X:     0.0848      Y:     0.0072      Z:    -0.0658     Total:     0.1076

*** Psi4 exiting successfully. Buy a developer a beer!
