                               Psi4 1.3.2 release

  ==> Input File <==

--------------------------------------------------------------------------
#psi4
#
memory 32 gb

molecule  {
0 1
  C       -0.4325780     0.0000000    -0.0000100
  C        0.8671890     0.8245510    -0.0008470
  C       -0.5186390    -0.8803510    -1.2490450
  C       -1.6124710     0.9760830    -0.0007580
  C       -0.5240062    -0.9354869     1.3323424
  C        2.1754120     0.0349960    -0.0000500
  H        0.8502280     1.4838230    -0.8795210
  H        0.8502290     1.4855890     0.8765000
  H        0.2706380    -1.6377050    -1.2666100
  H       -0.4322060    -0.2762080    -2.1593560
  H       -1.4806460    -1.4035230    -1.2819340
  H       -1.5874350     1.6202330     0.8851840
  H       -1.5876340     1.6186070    -0.8878840
  H       -2.5658430     0.4362680    -0.0001590
  H        0.2708010    -1.6355150     1.2692820
  H       -1.4804630    -1.4011040     1.2847180
  H       -0.4316200    -0.2723440     2.1598230
  H        2.2659520    -0.6017660    -0.8839470
  H        3.0286720     0.7201300    -0.0010770
  H        2.2662480    -0.5994780     0.8854570
units angstrom
no_reorient  #important for SAPT in psi4, default
symmetry c1  #important for SAPT in psi4, default
}

set PROPERTIES_ORIGIN ["COM"]
properties('MP2/aug-cc-pvtz', properties = ['dipole'])
--------------------------------------------------------------------------

    Molecular point group: c1
  Charge       = 0
  Multiplicity = 1
  Basis Set: AUG-CC-PVTZ
    Blend: AUG-CC-PVTZ
  Basis Set: (AUG-CC-PVTZ AUX)
    Blend: AUG-CC-PVTZ-JKFIT

    Orbital Energies [Eh]
    ---------------------

    Doubly Occupied:

       1A    -11.231811     2A    -11.213813     3A    -11.209023
       4A    -11.206919     5A    -11.206882     6A    -11.203238
       7A     -1.100876     8A     -0.994249     9A     -0.929278
      10A     -0.925737    11A     -0.848594    12A     -0.717425
      13A     -0.623151    14A     -0.620434    15A     -0.596643
      16A     -0.581149    17A     -0.552698    18A     -0.537613
      19A     -0.526962    20A     -0.516329    21A     -0.500445
      22A     -0.485241    23A     -0.447786    24A     -0.441709
      25A     -0.421833

  @DF-RHF Final Energy:  -235.44097300616090

   => Energetics <=

    Nuclear Repulsion Energy =            264.9260140142935711
    One-Electron Energy =                -841.4542953082409440
    Two-Electron Energy =                 341.0873082877865272
    Total Energy =                       -235.4409730061609025
  Basis Set: (AUG-CC-PVTZ AUX)
    Blend: AUG-CC-PVTZ-RI
    Molecular point group: c1

    Geometry (in Angstrom), charge = 0, multiplicity = 1:

       Center              X                  Y                   Z               Mass
    ------------   -----------------  -----------------  -----------------  -----------------
         C           -0.429066850726     0.002660689017    -0.011391647211    12.000000000000
         C            0.870700149274     0.827211689017    -0.012228647211    12.000000000000
         C           -0.515127850726    -0.877690310983    -1.260426647211    12.000000000000
         C           -1.608959850726     0.978743689017    -0.012139647211    12.000000000000
         C           -0.520495050726    -0.932826210983     1.320960752789    12.000000000000
         C            2.178923149274     0.037656689017    -0.011431647211    12.000000000000
         H            0.853739149274     1.486483689017    -0.890902647211     1.007825032230
         H            0.853740149274     1.488249689017     0.865118352789     1.007825032230
         H            0.274149149274    -1.635044310983    -1.277991647211     1.007825032230
         H           -0.428694850726    -0.273547310983    -2.170737647211     1.007825032230
         H           -1.477134850726    -1.400862310983    -1.293315647211     1.007825032230
         H           -1.583923850726     1.622893689017     0.873802352789     1.007825032230
         H           -1.584122850726     1.621267689017    -0.899265647211     1.007825032230
         H           -2.562331850726     0.438928689017    -0.011540647211     1.007825032230
         H            0.274312149274    -1.632854310983     1.257900352789     1.007825032230
         H           -1.476951850726    -1.398443310983     1.273336352789     1.007825032230
         H           -0.428108850726    -0.269683310983     2.148441352789     1.007825032230
         H            2.269463149274    -0.599105310983    -0.895328647211     1.007825032230
         H            3.032183149274     0.722790689017    -0.012458647211     1.007825032230
         H            2.269759149274    -0.596817310983     0.874075352789     1.007825032230

  Basis Set: AUG-CC-PVTZ
    Blend: AUG-CC-PVTZ
  Basis Set: (AUG-CC-PVTZ AUX)
    Blend: AUG-CC-PVTZ-JKFIT
	 Reference Energy          =    -235.4409730061609025 [Eh]
	 Singles Energy            =      -0.0000000000000000 [Eh]
	 Same-Spin Energy          =      -0.2549468829414124 [Eh]
	 Opposite-Spin Energy      =      -0.9539341795242102 [Eh]
	 Correlation Energy        =      -1.2088810624656225 [Eh]
	 Total Energy              =    -236.6498540686265244 [Eh]

	 ================> DF-SCS-MP2 Energies <==================
	-----------------------------------------------------------
	 SCS Same-Spin Scale       =       0.3333333333333333 [-]
	 SCS Opposite-Spin Scale   =       1.2000000000000000 [-]
	 SCS Same-Spin Energy      =      -0.0849822943138041 [Eh]
	 SCS Opposite-Spin Energy  =      -1.1447210154290521 [Eh]
	 SCS Correlation Energy    =      -1.2297033097428562 [Eh]
	 SCS Total Energy          =    -236.6706763159037621 [Eh]
	-----------------------------------------------------------

  Dipole Moment: [D]
     X:     0.0562      Y:     0.0546      Z:    -0.0283     Total:     0.0833

*** Psi4 exiting successfully. Buy a developer a beer!
