                               Psi4 1.3.2 release

  ==> Input File <==

--------------------------------------------------------------------------
#psi4
#
memory 32 gb

molecule  {
0 1
  C       -0.4325780     0.0000000    -0.0000100
  C        0.8671890     0.8245510    -0.0008470
  C       -0.5186390    -0.8803510    -1.2490450
  C       -1.6124710     0.9760830    -0.0007580
  C       -0.5183990    -0.8781140     1.2506300
  C        2.1754120     0.0349960    -0.0000500
  H        0.8517718     1.4238146    -0.7995422
  H        0.8502290     1.4855890     0.8765000
  H        0.2706380    -1.6377050    -1.2666100
  H       -0.4322060    -0.2762080    -2.1593560
  H       -1.4806460    -1.4035230    -1.2819340
  H       -1.5874350     1.6202330     0.8851840
  H       -1.5876340     1.6186070    -0.8878840
  H       -2.5658430     0.4362680    -0.0001590
  H        0.2708010    -1.6355150     1.2692820
  H       -1.4804630    -1.4011040     1.2847180
  H       -0.4316200    -0.2723440     2.1598230
  H        2.2659520    -0.6017660    -0.8839470
  H        3.0286720     0.7201300    -0.0010770
  H        2.2662480    -0.5994780     0.8854570
units angstrom
no_reorient  #important for SAPT in psi4, default
symmetry c1  #important for SAPT in psi4, default
}

set PROPERTIES_ORIGIN ["COM"]
properties('MP2/aug-cc-pvtz', properties = ['dipole'])
--------------------------------------------------------------------------

    Molecular point group: c1
  Charge       = 0
  Multiplicity = 1
  Basis Set: AUG-CC-PVTZ
    Blend: AUG-CC-PVTZ
  Basis Set: (AUG-CC-PVTZ AUX)
    Blend: AUG-CC-PVTZ-JKFIT

    Orbital Energies [Eh]
    ---------------------

    Doubly Occupied:

       1A    -11.226331     2A    -11.207915     3A    -11.206951
       4A    -11.206923     5A    -11.205966     6A    -11.200876
       7A     -1.110868     8A     -0.998953     9A     -0.926914
      10A     -0.926638    11A     -0.854399    12A     -0.725679
      13A     -0.629859    14A     -0.623045    15A     -0.595902
      16A     -0.581372    17A     -0.549756    18A     -0.529469
      19A     -0.523384    20A     -0.508649    21A     -0.501927
      22A     -0.487857    23A     -0.449780    24A     -0.444681
      25A     -0.437458

  @DF-RHF Final Energy:  -235.44203642814830

   => Energetics <=

    Nuclear Repulsion Energy =            266.9896906965293510
    One-Electron Energy =                -845.5403512354822624
    Two-Electron Energy =                 343.1086241108046124
    Total Energy =                       -235.4420364281482989
  Basis Set: (AUG-CC-PVTZ AUX)
    Blend: AUG-CC-PVTZ-RI
    Molecular point group: c1

    Geometry (in Angstrom), charge = 0, multiplicity = 1:

       Center              X                  Y                   Z               Mass
    ------------   -----------------  -----------------  -----------------  -----------------
         C           -0.429866323954    -0.004632309600    -0.000940493319    12.000000000000
         C            0.869900676046     0.819918690400    -0.001777493319    12.000000000000
         C           -0.515927323954    -0.884983309600    -1.249975493319    12.000000000000
         C           -1.609759323954     0.971450690400    -0.001688493319    12.000000000000
         C           -0.515687323954    -0.882746309600     1.249699506681    12.000000000000
         C            2.178123676046     0.030363690400    -0.000980493319    12.000000000000
         H            0.854483476046     1.419182290400    -0.800472693319     1.007825032230
         H            0.852940676046     1.480956690400     0.875569506681     1.007825032230
         H            0.273349676046    -1.642337309600    -1.267540493319     1.007825032230
         H           -0.429494323954    -0.280840309600    -2.160286493319     1.007825032230
         H           -1.477934323954    -1.408155309600    -1.282864493319     1.007825032230
         H           -1.584723323954     1.615600690400     0.884253506681     1.007825032230
         H           -1.584922323954     1.613974690400    -0.888814493319     1.007825032230
         H           -2.563131323954     0.431635690400    -0.001089493319     1.007825032230
         H            0.273512676046    -1.640147309600     1.268351506681     1.007825032230
         H           -1.477751323954    -1.405736309600     1.283787506681     1.007825032230
         H           -0.428908323954    -0.276976309600     2.158892506681     1.007825032230
         H            2.268663676046    -0.606398309600    -0.884877493319     1.007825032230
         H            3.031383676046     0.715497690400    -0.002007493319     1.007825032230
         H            2.268959676046    -0.604110309600     0.884526506681     1.007825032230

  Basis Set: AUG-CC-PVTZ
    Blend: AUG-CC-PVTZ
  Basis Set: (AUG-CC-PVTZ AUX)
    Blend: AUG-CC-PVTZ-JKFIT
	 Reference Energy          =    -235.4420364281482989 [Eh]
	 Singles Energy            =      -0.0000000000000000 [Eh]
	 Same-Spin Energy          =      -0.2553334763880634 [Eh]
	 Opposite-Spin Energy      =      -0.9534774518691866 [Eh]
	 Correlation Energy        =      -1.2088109282572499 [Eh]
	 Total Energy              =    -236.6508473564055350 [Eh]

	 ================> DF-SCS-MP2 Energies <==================
	-----------------------------------------------------------
	 SCS Same-Spin Scale       =       0.3333333333333333 [-]
	 SCS Opposite-Spin Scale   =       1.2000000000000000 [-]
	 SCS Same-Spin Energy      =      -0.0851111587960211 [Eh]
	 SCS Opposite-Spin Energy  =      -1.1441729422430240 [Eh]
	 SCS Correlation Energy    =      -1.2292841010390452 [Eh]
	 SCS Total Energy          =    -236.6713205291873408 [Eh]
	-----------------------------------------------------------

  Dipole Moment: [D]
     X:     0.0523      Y:     0.0861      Z:    -0.0511     Total:     0.1129

*** Psi4 exiting successfully. Buy a developer a beer!
