                               Psi4 1.4a3.dev225

  ==> Input File <==

--------------------------------------------------------------------------
#psi4
#
memory 32 gb

molecule  {
0 1
  C        0.4325650     0.0000100    -0.0000020
  C       -0.8671790     0.8245630    -0.0000540
  C        0.5185540    -0.8790830     1.2499350
  C        1.6124760     0.9760580    -0.0001380
  C        0.5184830    -0.8793570    -1.2497460
  C       -2.1754120     0.0349770     0.0000010
  H       -0.8502370     1.4847800     0.8779110
  H       -0.8502460     1.4846590    -0.8781100
  H       -0.2707110    -1.6364310     1.2681610
  H        0.4320040    -0.2740170     2.1596200
  H        1.4805750    -1.4021870     1.2834330
  H        1.5875310     1.6192780    -0.8867600
  H        1.5875470     1.6195060     0.8863170
  H        2.5658350     0.4362190    -0.0000780
  H       -0.2707460    -1.6367490    -1.2677310
  H        1.5244336    -1.4262941    -1.2847446
  H        0.4318210    -0.2745040    -2.1595630
  H       -2.2660690    -0.6006200     0.8847210
  H       -3.0286490     0.7201330     0.0000090
  H       -2.2661130    -0.6006550    -0.8846890
units angstrom
no_reorient  #important for SAPT in psi4, default
symmetry c1  #important for SAPT in psi4, default
}

set PROPERTIES_ORIGIN ["COM"]
properties('MP2/aug-cc-pvtz', properties = ['dipole'])
--------------------------------------------------------------------------

    Molecular point group: c1
  Charge       = 0
  Multiplicity = 1
  Basis Set: AUG-CC-PVTZ
    Blend: AUG-CC-PVTZ
  Basis Set: (AUG-CC-PVTZ AUX)
    Blend: AUG-CC-PVTZ-JKFIT

    Orbital Energies [Eh]
    ---------------------

    Doubly Occupied:

       1A    -11.227837     2A    -11.214410     3A    -11.213094
       4A    -11.209269     5A    -11.206976     6A    -11.206885
       7A     -1.109468     8A     -0.995940     9A     -0.926794
      10A     -0.923599    11A     -0.848752    12A     -0.720776
      13A     -0.623726    14A     -0.620966    15A     -0.596741
      16A     -0.581055    17A     -0.550158    18A     -0.528733
      19A     -0.518535    20A     -0.507730    21A     -0.499316
      22A     -0.484338    23A     -0.448352    24A     -0.445208
      25A     -0.437600

  @DF-RHF Final Energy:  -235.44562013293404

   => Energetics <=

    Nuclear Repulsion Energy =            266.2837920398725373
    One-Electron Energy =                -844.1663130032193294
    Two-Electron Energy =                 342.4369008304127533
    Total Energy =                       -235.4456201329340388
  Basis Set: (AUG-CC-PVTZ AUX)
    Blend: AUG-CC-PVTZ-RI
    Molecular point group: c1

    Geometry (in Angstrom), charge = 0, multiplicity = 1:

       Center              X                  Y                   Z               Mass
    ------------   -----------------  -----------------  -----------------  -----------------
         C            0.429321350760    -0.005045467478     0.000016155544    12.000000000000
         C           -0.870422649240     0.819507532522    -0.000035844456    12.000000000000
         C            0.515310350760    -0.884138467478     1.249953155544    12.000000000000
         C            1.609232350760     0.971002532522    -0.000119844456    12.000000000000
         C            0.515239350760    -0.884412467478    -1.249727844456    12.000000000000
         C           -2.178655649240     0.029921532522     0.000019155544    12.000000000000
         H           -0.853480649240     1.479724532522     0.877929155544     1.007825032230
         H           -0.853489649240     1.479603532522    -0.878091844456     1.007825032230
         H           -0.273954649240    -1.641486467478     1.268179155544     1.007825032230
         H            0.428760350760    -0.279072467478     2.159638155544     1.007825032230
         H            1.477331350760    -1.407242467478     1.283451155544     1.007825032230
         H            1.584287350760     1.614222532522    -0.886741844456     1.007825032230
         H            1.584303350760     1.614450532522     0.886335155544     1.007825032230
         H            2.562591350760     0.431163532522    -0.000059844456     1.007825032230
         H           -0.273989649240    -1.641804467478    -1.267712844456     1.007825032230
         H            1.521189950760    -1.431349567478    -1.284726444456     1.007825032230
         H            0.428577350760    -0.279559467478    -2.159544844456     1.007825032230
         H           -2.269312649240    -0.605675467478     0.884739155544     1.007825032230
         H           -3.031892649240     0.715077532522     0.000027155544     1.007825032230
         H           -2.269356649240    -0.605710467478    -0.884670844456     1.007825032230

  Basis Set: AUG-CC-PVTZ
    Blend: AUG-CC-PVTZ
  Basis Set: (AUG-CC-PVTZ AUX)
    Blend: AUG-CC-PVTZ-JKFIT
	 Reference Energy          =    -235.4456201329340388 [Eh]
	 Singles Energy            =      -0.0000000000000000 [Eh]
	 Same-Spin Energy          =      -0.2553990377888936 [Eh]
	 Opposite-Spin Energy      =      -0.9544246929926318 [Eh]
	 Correlation Energy        =      -1.2098237307815254 [Eh]
	 Total Energy              =    -236.6554438637155613 [Eh]

	 ================> DF-SCS-MP2 Energies <==================
	-----------------------------------------------------------
	 SCS Same-Spin Scale       =       0.3333333333333333 [-]
	 SCS Opposite-Spin Scale   =       1.2000000000000000 [-]
	 SCS Same-Spin Energy      =      -0.0851330125962979 [Eh]
	 SCS Opposite-Spin Energy  =      -1.1453096315911582 [Eh]
	 SCS Correlation Energy    =      -1.2304426441874561 [Eh]
	 SCS Total Energy          =    -236.6760627771215013 [Eh]
	-----------------------------------------------------------

  Dipole Moment: [D]
     X:    -0.0867      Y:     0.0545      Z:     0.0099     Total:     0.1029

*** Psi4 exiting successfully. Buy a developer a beer!
