                               Psi4 1.3.2 release

  ==> Input File <==

--------------------------------------------------------------------------
#psi4
#
memory 32 gb

molecule  {
0 1
  C       -0.4325780     0.0000000    -0.0000100
  C        0.8671890     0.8245510    -0.0008470
  C       -0.5186390    -0.8803510    -1.2490450
  C       -1.6124710     0.9760830    -0.0007580
  C       -0.5183990    -0.8781140     1.2506300
  C        2.2017075     0.0858596     0.0899310
  H        0.8502280     1.4838230    -0.8795210
  H        0.8502290     1.4855890     0.8765000
  H        0.2706380    -1.6377050    -1.2666100
  H       -0.4322060    -0.2762080    -2.1593560
  H       -1.4806460    -1.4035230    -1.2819340
  H       -1.5874350     1.6202330     0.8851840
  H       -1.5876340     1.6186070    -0.8878840
  H       -2.5658430     0.4362680    -0.0001590
  H        0.2708010    -1.6355150     1.2692820
  H       -1.4804630    -1.4011040     1.2847180
  H       -0.4316200    -0.2723440     2.1598230
  H        2.2659520    -0.6017660    -0.8839470
  H        3.0286720     0.7201300    -0.0010770
  H        2.2662480    -0.5994780     0.8854570
units angstrom
no_reorient  #important for SAPT in psi4, default
symmetry c1  #important for SAPT in psi4, default
}

set PROPERTIES_ORIGIN ["COM"]
properties('MP2/aug-cc-pvtz', properties = ['dipole'])
--------------------------------------------------------------------------

    Molecular point group: c1
  Charge       = 0
  Multiplicity = 1
  Basis Set: AUG-CC-PVTZ
    Blend: AUG-CC-PVTZ
  Basis Set: (AUG-CC-PVTZ AUX)
    Blend: AUG-CC-PVTZ-JKFIT

    Orbital Energies [Eh]
    ---------------------

    Doubly Occupied:

       1A    -11.228627     2A    -11.214450     3A    -11.210799
       4A    -11.207711     5A    -11.207462     6A    -11.206563
       7A     -1.109608     8A     -0.997565     9A     -0.927460
      10A     -0.926604    11A     -0.850142    12A     -0.722038
      13A     -0.629193    14A     -0.619792    15A     -0.598013
      16A     -0.579330    17A     -0.556242    18A     -0.537396
      19A     -0.519444    20A     -0.508350    21A     -0.501600
      22A     -0.471986    23A     -0.449392    24A     -0.444436
      25A     -0.434790

  @DF-RHF Final Energy:  -235.43683167049116

   => Energetics <=

    Nuclear Repulsion Energy =            266.2003894435065376
    One-Electron Energy =                -843.9564584765780637
    Two-Electron Energy =                 342.3192373625803384
    Total Energy =                       -235.4368316704911877
  Basis Set: (AUG-CC-PVTZ AUX)
    Blend: AUG-CC-PVTZ-RI
    Molecular point group: c1

    Geometry (in Angstrom), charge = 0, multiplicity = 1:

       Center              X                  Y                   Z               Mass
    ------------   -----------------  -----------------  -----------------  -----------------
         C           -0.433512726915    -0.012422864354    -0.012543937514    12.000000000000
         C            0.866254273085     0.812128135646    -0.013380937514    12.000000000000
         C           -0.519573726915    -0.892773864354    -1.261578937514    12.000000000000
         C           -1.613405726915     0.963660135646    -0.013291937514    12.000000000000
         C           -0.519333726915    -0.890536864354     1.238096062486    12.000000000000
         C            2.200772773085     0.073436735646     0.077397062486    12.000000000000
         H            0.849293273085     1.471400135646    -0.892054937514     1.007825032230
         H            0.849294273085     1.473166135646     0.863966062486     1.007825032230
         H            0.269703273085    -1.650127864354    -1.279143937514     1.007825032230
         H           -0.433140726915    -0.288630864354    -2.171889937514     1.007825032230
         H           -1.481580726915    -1.415945864354    -1.294467937514     1.007825032230
         H           -1.588369726915     1.607810135646     0.872650062486     1.007825032230
         H           -1.588568726915     1.606184135646    -0.900417937514     1.007825032230
         H           -2.566777726915     0.423845135646    -0.012692937514     1.007825032230
         H            0.269866273085    -1.647937864354     1.256748062486     1.007825032230
         H           -1.481397726915    -1.413526864354     1.272184062486     1.007825032230
         H           -0.432554726915    -0.284766864354     2.147289062486     1.007825032230
         H            2.265017273085    -0.614188864354    -0.896480937514     1.007825032230
         H            3.027737273085     0.707707135646    -0.013610937514     1.007825032230
         H            2.265313273085    -0.611900864354     0.872923062486     1.007825032230

  Basis Set: AUG-CC-PVTZ
    Blend: AUG-CC-PVTZ
  Basis Set: (AUG-CC-PVTZ AUX)
    Blend: AUG-CC-PVTZ-JKFIT
	 Reference Energy          =    -235.4368316704911592 [Eh]
	 Singles Energy            =      -0.0000000000000000 [Eh]
	 Same-Spin Energy          =      -0.2554807346806299 [Eh]
	 Opposite-Spin Energy      =      -0.9544776553518661 [Eh]
	 Correlation Energy        =      -1.2099583900324959 [Eh]
	 Total Energy              =    -236.6467900605236423 [Eh]

	 ================> DF-SCS-MP2 Energies <==================
	-----------------------------------------------------------
	 SCS Same-Spin Scale       =       0.3333333333333333 [-]
	 SCS Opposite-Spin Scale   =       1.2000000000000000 [-]
	 SCS Same-Spin Energy      =      -0.0851602448935433 [Eh]
	 SCS Opposite-Spin Energy  =      -1.1453731864222394 [Eh]
	 SCS Correlation Energy    =      -1.2305334313157827 [Eh]
	 SCS Total Energy          =    -236.6673651018069506 [Eh]
	-----------------------------------------------------------

  Dipole Moment: [D]
     X:     0.0303      Y:     0.0592      Z:     0.0476     Total:     0.0818

*** Psi4 exiting successfully. Buy a developer a beer!
