                               Psi4 1.3.2 release

  ==> Input File <==

--------------------------------------------------------------------------
#psi4
#
memory 32 gb

molecule  {
0 1
  C       -0.4325780     0.0000000    -0.0000100
  C        0.8671890     0.8245510    -0.0008470
  C       -0.5186390    -0.8803510    -1.2490450
  C       -1.6124710     0.9760830    -0.0007580
  C       -0.5183990    -0.8781140     1.2506300
  C        2.1754120     0.0349960    -0.0000500
  H        0.8502280     1.4838230    -0.8795210
  H        0.8502290     1.4855890     0.8765000
  H        0.2706380    -1.6377050    -1.2666100
  H       -0.4322060    -0.2762080    -2.1593560
  H       -1.4806460    -1.4035230    -1.2819340
  H       -1.5874350     1.6202330     0.8851840
  H       -1.5876340     1.6186070    -0.8878840
  H       -2.5658430     0.4362680    -0.0001590
  H        0.2708010    -1.6355150     1.2692820
  H       -1.6560929    -1.4965786     1.2909409
  H       -0.4316200    -0.2723440     2.1598230
  H        2.2659520    -0.6017660    -0.8839470
  H        3.0286720     0.7201300    -0.0010770
  H        2.2662480    -0.5994780     0.8854570
units angstrom
no_reorient  #important for SAPT in psi4, default
symmetry c1  #important for SAPT in psi4, default
}

set PROPERTIES_ORIGIN ["COM"]
properties('MP2/aug-cc-pvtz', properties = ['dipole'])
--------------------------------------------------------------------------

    Molecular point group: c1
  Charge       = 0
  Multiplicity = 1
  Basis Set: AUG-CC-PVTZ
    Blend: AUG-CC-PVTZ
  Basis Set: (AUG-CC-PVTZ AUX)
    Blend: AUG-CC-PVTZ-JKFIT

    Orbital Energies [Eh]
    ---------------------

    Doubly Occupied:

       1A    -11.230632     2A    -11.229768     3A    -11.216497
       4A    -11.210673     5A    -11.207234     6A    -11.207081
       7A     -1.110024     8A     -0.996528     9A     -0.927101
      10A     -0.917362    11A     -0.849172    12A     -0.719834
      13A     -0.624930    14A     -0.616836    15A     -0.598306
      16A     -0.582201    17A     -0.551189    18A     -0.528855
      19A     -0.512025    20A     -0.504313    21A     -0.492343
      22A     -0.482896    23A     -0.450324    24A     -0.446467
      25A     -0.434477

  @DF-RHF Final Energy:  -235.42792753692339

   => Energetics <=

    Nuclear Repulsion Energy =            265.7061136031181263
    One-Electron Energy =                -842.9739474380178308
    Two-Electron Energy =                 341.8399062979762562
    Total Energy =                       -235.4279275369233915
  Basis Set: (AUG-CC-PVTZ AUX)
    Blend: AUG-CC-PVTZ-RI
    Molecular point group: c1

    Geometry (in Angstrom), charge = 0, multiplicity = 1:

       Center              X                  Y                   Z               Mass
    ------------   -----------------  -----------------  -----------------  -----------------
         C           -0.427792685328    -0.004217213667    -0.000077255247    12.000000000000
         C            0.871974314672     0.820333786333    -0.000914255247    12.000000000000
         C           -0.513853685328    -0.884568213667    -1.249112255247    12.000000000000
         C           -1.607685685328     0.971865786333    -0.000825255247    12.000000000000
         C           -0.513613685328    -0.882331213667     1.250562744753    12.000000000000
         C            2.180197314672     0.030778786333    -0.000117255247    12.000000000000
         H            0.855013314672     1.479605786333    -0.879588255247     1.007825032230
         H            0.855014314672     1.481371786333     0.876432744753     1.007825032230
         H            0.275423314672    -1.641922213667    -1.266677255247     1.007825032230
         H           -0.427420685328    -0.280425213667    -2.159423255247     1.007825032230
         H           -1.475860685328    -1.407740213667    -1.282001255247     1.007825032230
         H           -1.582649685328     1.616015786333     0.885116744753     1.007825032230
         H           -1.582848685328     1.614389786333    -0.887951255247     1.007825032230
         H           -2.561057685328     0.432050786333    -0.000226255247     1.007825032230
         H            0.275586314672    -1.639732213667     1.269214744753     1.007825032230
         H           -1.651307585328    -1.500795813667     1.290873644753     1.007825032230
         H           -0.426834685328    -0.276561213667     2.159755744753     1.007825032230
         H            2.270737314672    -0.605983213667    -0.884014255247     1.007825032230
         H            3.033457314672     0.715912786333    -0.001144255247     1.007825032230
         H            2.271033314672    -0.603695213667     0.885389744753     1.007825032230

  Basis Set: AUG-CC-PVTZ
    Blend: AUG-CC-PVTZ
  Basis Set: (AUG-CC-PVTZ AUX)
    Blend: AUG-CC-PVTZ-JKFIT
	 Reference Energy          =    -235.4279275369233915 [Eh]
	 Singles Energy            =      -0.0000000000000000 [Eh]
	 Same-Spin Energy          =      -0.2554206736476479 [Eh]
	 Opposite-Spin Energy      =      -0.9557190554151322 [Eh]
	 Correlation Energy        =      -1.2111397290627801 [Eh]
	 Total Energy              =    -236.6390672659861707 [Eh]

	 ================> DF-SCS-MP2 Energies <==================
	-----------------------------------------------------------
	 SCS Same-Spin Scale       =       0.3333333333333333 [-]
	 SCS Opposite-Spin Scale   =       1.2000000000000000 [-]
	 SCS Same-Spin Energy      =      -0.0851402245492160 [Eh]
	 SCS Opposite-Spin Energy  =      -1.1468628664981586 [Eh]
	 SCS Correlation Energy    =      -1.2320030910473745 [Eh]
	 SCS Total Energy          =    -236.6599306279707662 [Eh]
	-----------------------------------------------------------

  Dipole Moment: [D]
     X:     0.2065      Y:     0.1368      Z:    -0.0457     Total:     0.2519

*** Psi4 exiting successfully. Buy a developer a beer!
