                               Psi4 1.3.2 release

  ==> Input File <==

--------------------------------------------------------------------------
#psi4
#
memory 32 gb

molecule  {
0 1
  C       -0.4325780     0.0000000    -0.0000100
  C        0.8671890     0.8245510    -0.0008470
  C       -0.5165054    -0.8585216    -1.2642922
  C       -1.6124710     0.9760830    -0.0007580
  C       -0.5183990    -0.8781140     1.2506300
  C        2.1754120     0.0349960    -0.0000500
  H        0.8502280     1.4838230    -0.8795210
  H        0.8502290     1.4855890     0.8765000
  H        0.2706380    -1.6377050    -1.2666100
  H       -0.4322060    -0.2762080    -2.1593560
  H       -1.4806460    -1.4035230    -1.2819340
  H       -1.5874350     1.6202330     0.8851840
  H       -1.5876340     1.6186070    -0.8878840
  H       -2.5658430     0.4362680    -0.0001590
  H        0.2708010    -1.6355150     1.2692820
  H       -1.4804630    -1.4011040     1.2847180
  H       -0.4316200    -0.2723440     2.1598230
  H        2.2659520    -0.6017660    -0.8839470
  H        3.0286720     0.7201300    -0.0010770
  H        2.2662480    -0.5994780     0.8854570
units angstrom
no_reorient  #important for SAPT in psi4, default
symmetry c1  #important for SAPT in psi4, default
}

set PROPERTIES_ORIGIN ["COM"]
properties('MP2/aug-cc-pvtz', properties = ['dipole'])
--------------------------------------------------------------------------

    Molecular point group: c1
  Charge       = 0
  Multiplicity = 1
  Basis Set: AUG-CC-PVTZ
    Blend: AUG-CC-PVTZ
  Basis Set: (AUG-CC-PVTZ AUX)
    Blend: AUG-CC-PVTZ-JKFIT

    Orbital Energies [Eh]
    ---------------------

    Doubly Occupied:

       1A    -11.227332     2A    -11.213624     3A    -11.208699
       4A    -11.207423     5A    -11.207036     6A    -11.206642
       7A     -1.109573     8A     -0.995736     9A     -0.928097
      10A     -0.925882    11A     -0.848553    12A     -0.721702
      13A     -0.622874    14A     -0.622229    15A     -0.598847
      16A     -0.580279    17A     -0.550560    18A     -0.528924
      19A     -0.523309    20A     -0.507267    21A     -0.498577
      22A     -0.485936    23A     -0.449954    24A     -0.443226
      25A     -0.436980

  @DF-RHF Final Energy:  -235.44687968683317

   => Energetics <=

    Nuclear Repulsion Energy =            266.5027892888276710
    One-Electron Energy =                -844.6008172615793228
    Two-Electron Energy =                 342.6511482859185094
    Total Energy =                       -235.4468796868331424
  Basis Set: (AUG-CC-PVTZ AUX)
    Blend: AUG-CC-PVTZ-RI
    Molecular point group: c1

    Geometry (in Angstrom), charge = 0, multiplicity = 1:

       Center              X                  Y                   Z               Mass
    ------------   -----------------  -----------------  -----------------  -----------------
         C           -0.430145588212    -0.008376734765     0.002120387098    12.000000000000
         C            0.869621411788     0.816174265235     0.001283387098    12.000000000000
         C           -0.514072988212    -0.866898334765    -1.262161812902    12.000000000000
         C           -1.610038588212     0.967706265235     0.001372387098    12.000000000000
         C           -0.515966588212    -0.886490734765     1.252760387098    12.000000000000
         C            2.177844411788     0.026619265235     0.002080387098    12.000000000000
         H            0.852660411788     1.475446265235    -0.877390612902     1.007825032230
         H            0.852661411788     1.477212265235     0.878630387098     1.007825032230
         H            0.273070411788    -1.646081734765    -1.264479612902     1.007825032230
         H           -0.429773588212    -0.284584734765    -2.157225612902     1.007825032230
         H           -1.478213588212    -1.411899734765    -1.279803612902     1.007825032230
         H           -1.585002588212     1.611856265235     0.887314387098     1.007825032230
         H           -1.585201588212     1.610230265235    -0.885753612902     1.007825032230
         H           -2.563410588212     0.427891265235     0.001971387098     1.007825032230
         H            0.273233411788    -1.643891734765     1.271412387098     1.007825032230
         H           -1.478030588212    -1.409480734765     1.286848387098     1.007825032230
         H           -0.429187588212    -0.280720734765     2.161953387098     1.007825032230
         H            2.268384411788    -0.610142734765    -0.881816612902     1.007825032230
         H            3.031104411788     0.711753265235     0.001053387098     1.007825032230
         H            2.268680411788    -0.607854734765     0.887587387098     1.007825032230

  Basis Set: AUG-CC-PVTZ
    Blend: AUG-CC-PVTZ
  Basis Set: (AUG-CC-PVTZ AUX)
    Blend: AUG-CC-PVTZ-JKFIT
	 Reference Energy          =    -235.4468796868331708 [Eh]
	 Singles Energy            =      -0.0000000000000000 [Eh]
	 Same-Spin Energy          =      -0.2554131287562218 [Eh]
	 Opposite-Spin Energy      =      -0.9541174180818623 [Eh]
	 Correlation Energy        =      -1.2095305468380841 [Eh]
	 Total Energy              =    -236.6564102336712665 [Eh]

	 ================> DF-SCS-MP2 Energies <==================
	-----------------------------------------------------------
	 SCS Same-Spin Scale       =       0.3333333333333333 [-]
	 SCS Opposite-Spin Scale   =       1.2000000000000000 [-]
	 SCS Same-Spin Energy      =      -0.0851377095854073 [Eh]
	 SCS Opposite-Spin Energy  =      -1.1449409016982348 [Eh]
	 SCS Correlation Energy    =      -1.2300786112836422 [Eh]
	 SCS Total Energy          =    -236.6769582981168014 [Eh]
	-----------------------------------------------------------

  Dipole Moment: [D]
     X:     0.0533      Y:     0.0366      Z:    -0.0038     Total:     0.0648

*** Psi4 exiting successfully. Buy a developer a beer!
