                               Psi4 1.3.2 release

  ==> Input File <==

--------------------------------------------------------------------------
#psi4
#
memory 32 gb

molecule  {
0 1
  C       -0.4869296     0.0926757    -0.0001037
  C        0.8671890     0.8245510    -0.0008470
  C       -0.5186390    -0.8803510    -1.2490450
  C       -1.6124710     0.9760830    -0.0007580
  C       -0.5183990    -0.8781140     1.2506300
  C        2.1754120     0.0349960    -0.0000500
  H        0.8502280     1.4838230    -0.8795210
  H        0.8502290     1.4855890     0.8765000
  H        0.2706380    -1.6377050    -1.2666100
  H       -0.4322060    -0.2762080    -2.1593560
  H       -1.4806460    -1.4035230    -1.2819340
  H       -1.5874350     1.6202330     0.8851840
  H       -1.5876340     1.6186070    -0.8878840
  H       -2.5658430     0.4362680    -0.0001590
  H        0.2708010    -1.6355150     1.2692820
  H       -1.4804630    -1.4011040     1.2847180
  H       -0.4316200    -0.2723440     2.1598230
  H        2.2659520    -0.6017660    -0.8839470
  H        3.0286720     0.7201300    -0.0010770
  H        2.2662480    -0.5994780     0.8854570
units angstrom
no_reorient  #important for SAPT in psi4, default
symmetry c1  #important for SAPT in psi4, default
}

set PROPERTIES_ORIGIN ["COM"]
properties('MP2/aug-cc-pvtz', properties = ['dipole'])
--------------------------------------------------------------------------

    Molecular point group: c1
  Charge       = 0
  Multiplicity = 1
  Basis Set: AUG-CC-PVTZ
    Blend: AUG-CC-PVTZ
  Basis Set: (AUG-CC-PVTZ AUX)
    Blend: AUG-CC-PVTZ-JKFIT

    Orbital Energies [Eh]
    ---------------------

    Doubly Occupied:

       1A    -11.228545     2A    -11.214404     3A    -11.211173
       4A    -11.207651     5A    -11.207636     6A    -11.205201
       7A     -1.112281     8A     -0.999202     9A     -0.932328
      10A     -0.919098    11A     -0.851999    12A     -0.719978
      13A     -0.624838    14A     -0.623325    15A     -0.597099
      16A     -0.585135    17A     -0.550888    18A     -0.529189
      19A     -0.520832    20A     -0.508811    21A     -0.502620
      22A     -0.481772    23A     -0.475389    24A     -0.428522
      25A     -0.422228

  @DF-RHF Final Energy:  -235.43519448687698

   => Energetics <=

    Nuclear Repulsion Energy =            266.3725776812934782
    One-Electron Energy =                -844.2952525429350317
    Two-Electron Energy =                 342.4874803747645728
    Total Energy =                       -235.4351944868769806
  Basis Set: (AUG-CC-PVTZ AUX)
    Blend: AUG-CC-PVTZ-RI
    Molecular point group: c1

    Geometry (in Angstrom), charge = 0, multiplicity = 1:

       Center              X                  Y                   Z               Mass
    ------------   -----------------  -----------------  -----------------  -----------------
         C           -0.476625559613     0.074426011590    -0.000085064723    12.000000000000
         C            0.877493040387     0.806301311590    -0.000828364723    12.000000000000
         C           -0.508334959613    -0.898600688410    -1.249026364723    12.000000000000
         C           -1.602166959613     0.957833311590    -0.000739364723    12.000000000000
         C           -0.508094959613    -0.896363688410     1.250648635277    12.000000000000
         C            2.185716040387     0.016746311590    -0.000031364723    12.000000000000
         H            0.860532040387     1.465573311590    -0.879502364723     1.007825032230
         H            0.860533040387     1.467339311590     0.876518635277     1.007825032230
         H            0.280942040387    -1.655954688410    -1.266591364723     1.007825032230
         H           -0.421901959613    -0.294457688410    -2.159337364723     1.007825032230
         H           -1.470341959613    -1.421772688410    -1.281915364723     1.007825032230
         H           -1.577130959613     1.601983311590     0.885202635277     1.007825032230
         H           -1.577329959613     1.600357311590    -0.887865364723     1.007825032230
         H           -2.555538959613     0.418018311590    -0.000140364723     1.007825032230
         H            0.281105040387    -1.653764688410     1.269300635277     1.007825032230
         H           -1.470158959613    -1.419353688410     1.284736635277     1.007825032230
         H           -0.421315959613    -0.290593688410     2.159841635277     1.007825032230
         H            2.276256040387    -0.620015688410    -0.883928364723     1.007825032230
         H            3.038976040387     0.701880311590    -0.001058364723     1.007825032230
         H            2.276552040387    -0.617727688410     0.885475635277     1.007825032230

  Basis Set: AUG-CC-PVTZ
    Blend: AUG-CC-PVTZ
  Basis Set: (AUG-CC-PVTZ AUX)
    Blend: AUG-CC-PVTZ-JKFIT
	 Reference Energy          =    -235.4351944868769806 [Eh]
	 Singles Energy            =      -0.0000000000000000 [Eh]
	 Same-Spin Energy          =      -0.2559233361818875 [Eh]
	 Opposite-Spin Energy      =      -0.9549826918018305 [Eh]
	 Correlation Energy        =      -1.2109060279837180 [Eh]
	 Total Energy              =    -236.6461005148607057 [Eh]

	 ================> DF-SCS-MP2 Energies <==================
	-----------------------------------------------------------
	 SCS Same-Spin Scale       =       0.3333333333333333 [-]
	 SCS Opposite-Spin Scale   =       1.2000000000000000 [-]
	 SCS Same-Spin Energy      =      -0.0853077787272958 [Eh]
	 SCS Opposite-Spin Energy  =      -1.1459792301621965 [Eh]
	 SCS Correlation Energy    =      -1.2312870088894923 [Eh]
	 SCS Total Energy          =    -236.6664814957664760 [Eh]
	-----------------------------------------------------------

  Dipole Moment: [D]
     X:     0.0419      Y:     0.0667      Z:    -0.0001     Total:     0.0788

*** Psi4 exiting successfully. Buy a developer a beer!
