                               Psi4 1.3.2 release

  ==> Input File <==

--------------------------------------------------------------------------
#psi4
#
memory 32 gb

molecule  {
0 1
  C       -0.4325780     0.0000000    -0.0000100
  C        0.6983054     0.7174140    -0.0007382
  C       -0.5186390    -0.8803510    -1.2490450
  C       -1.6124710     0.9760830    -0.0007580
  C       -0.5183990    -0.8781140     1.2506300
  C        2.1754120     0.0349960    -0.0000500
  H        0.8502280     1.4838230    -0.8795210
  H        0.8502290     1.4855890     0.8765000
  H        0.2706380    -1.6377050    -1.2666100
  H       -0.4322060    -0.2762080    -2.1593560
  H       -1.4806460    -1.4035230    -1.2819340
  H       -1.5874350     1.6202330     0.8851840
  H       -1.5876340     1.6186070    -0.8878840
  H       -2.5658430     0.4362680    -0.0001590
  H        0.2708010    -1.6355150     1.2692820
  H       -1.4804630    -1.4011040     1.2847180
  H       -0.4316200    -0.2723440     2.1598230
  H        2.2659520    -0.6017660    -0.8839470
  H        3.0286720     0.7201300    -0.0010770
  H        2.2662480    -0.5994780     0.8854570
units angstrom
no_reorient  #important for SAPT in psi4, default
symmetry c1  #important for SAPT in psi4, default
}

set PROPERTIES_ORIGIN ["COM"]
properties('MP2/aug-cc-pvtz', properties = ['dipole'])
--------------------------------------------------------------------------

    Molecular point group: c1
  Charge       = 0
  Multiplicity = 1
  Basis Set: AUG-CC-PVTZ
    Blend: AUG-CC-PVTZ
  Basis Set: (AUG-CC-PVTZ AUX)
    Blend: AUG-CC-PVTZ-JKFIT

    Orbital Energies [Eh]
    ---------------------

    Doubly Occupied:

       1A    -11.223996     2A    -11.217632     3A    -11.213675
       4A    -11.209705     5A    -11.209673     6A    -11.208880
       7A     -1.140270     8A     -0.976925     9A     -0.931837
      10A     -0.931368    11A     -0.869185    12A     -0.720663
      13A     -0.631648    14A     -0.623018    15A     -0.603993
      16A     -0.575073    17A     -0.550991    18A     -0.529162
      19A     -0.524261    20A     -0.509048    21A     -0.489217
      22A     -0.486809    23A     -0.482803    24A     -0.423044
      25A     -0.414241

  @DF-RHF Final Energy:  -235.39915972960284

   => Energetics <=

    Nuclear Repulsion Energy =            269.0590262998176172
    One-Electron Energy =                -849.5221354758837151
    Two-Electron Energy =                 345.0639494464633117
    Total Energy =                       -235.3991597296028431
  Basis Set: (AUG-CC-PVTZ AUX)
    Blend: AUG-CC-PVTZ-RI
    Molecular point group: c1

    Geometry (in Angstrom), charge = 0, multiplicity = 1:

       Center              X                  Y                   Z               Mass
    ------------   -----------------  -----------------  -----------------  -----------------
         C           -0.406313081954     0.009595682834    -0.000019584590    12.000000000000
         C            0.724570318046     0.727009682834    -0.000747784590    12.000000000000
         C           -0.492374081954    -0.870755317166    -1.249054584590    12.000000000000
         C           -1.586206081954     0.985678682834    -0.000767584590    12.000000000000
         C           -0.492134081954    -0.868518317166     1.250620415410    12.000000000000
         C            2.201676918046     0.044591682834    -0.000059584590    12.000000000000
         H            0.876492918046     1.493418682834    -0.879530584590     1.007825032230
         H            0.876493918046     1.495184682834     0.876490415410     1.007825032230
         H            0.296902918046    -1.628109317166    -1.266619584590     1.007825032230
         H           -0.405941081954    -0.266612317166    -2.159365584590     1.007825032230
         H           -1.454381081954    -1.393927317166    -1.281943584590     1.007825032230
         H           -1.561170081954     1.629828682834     0.885174415410     1.007825032230
         H           -1.561369081954     1.628202682834    -0.887893584590     1.007825032230
         H           -2.539578081954     0.445863682834    -0.000168584590     1.007825032230
         H            0.297065918046    -1.625919317166     1.269272415410     1.007825032230
         H           -1.454198081954    -1.391508317166     1.284708415410     1.007825032230
         H           -0.405355081954    -0.262748317166     2.159813415410     1.007825032230
         H            2.292216918046    -0.592170317166    -0.883956584590     1.007825032230
         H            3.054936918046     0.729725682834    -0.001086584590     1.007825032230
         H            2.292512918046    -0.589882317166     0.885447415410     1.007825032230

  Basis Set: AUG-CC-PVTZ
    Blend: AUG-CC-PVTZ
  Basis Set: (AUG-CC-PVTZ AUX)
    Blend: AUG-CC-PVTZ-JKFIT
	 Reference Energy          =    -235.3991597296028431 [Eh]
	 Singles Energy            =      -0.0000000000000000 [Eh]
	 Same-Spin Energy          =      -0.2583251511969777 [Eh]
	 Opposite-Spin Energy      =      -0.9587328183348859 [Eh]
	 Correlation Energy        =      -1.2170579695318637 [Eh]
	 Total Energy              =    -236.6162176991346939 [Eh]

	 ================> DF-SCS-MP2 Energies <==================
	-----------------------------------------------------------
	 SCS Same-Spin Scale       =       0.3333333333333333 [-]
	 SCS Opposite-Spin Scale   =       1.2000000000000000 [-]
	 SCS Same-Spin Energy      =      -0.0861083837323259 [Eh]
	 SCS Opposite-Spin Energy  =      -1.1504793820018631 [Eh]
	 SCS Correlation Energy    =      -1.2365877657341890 [Eh]
	 SCS Total Energy          =    -236.6357474953370286 [Eh]
	-----------------------------------------------------------

  Dipole Moment: [D]
     X:    -0.0768      Y:    -0.0704      Z:     0.0001     Total:     0.1042

*** Psi4 exiting successfully. Buy a developer a beer!
