                               Psi4 1.3.2 release

  ==> Input File <==

--------------------------------------------------------------------------
#psi4
#
memory 32 gb

molecule  {
0 1
  C       -0.4325780     0.0000000    -0.0000100
  C        0.8671890     0.8245510    -0.0008470
  C       -0.5186390    -0.8803510    -1.2490450
  C       -1.6124710     0.9760830    -0.0007580
  C       -0.5183990    -0.8781140     1.2506300
  C        2.1754120     0.0349960    -0.0000500
  H        0.8479638     1.5720276    -0.8057720
  H        0.8502290     1.4855890     0.8765000
  H        0.2706380    -1.6377050    -1.2666100
  H       -0.4322060    -0.2762080    -2.1593560
  H       -1.4806460    -1.4035230    -1.2819340
  H       -1.5874350     1.6202330     0.8851840
  H       -1.5876340     1.6186070    -0.8878840
  H       -2.5658430     0.4362680    -0.0001590
  H        0.2708010    -1.6355150     1.2692820
  H       -1.4804630    -1.4011040     1.2847180
  H       -0.4316200    -0.2723440     2.1598230
  H        2.2659520    -0.6017660    -0.8839470
  H        3.0286720     0.7201300    -0.0010770
  H        2.2662480    -0.5994780     0.8854570
units angstrom
no_reorient  #important for SAPT in psi4, default
symmetry c1  #important for SAPT in psi4, default
}

set PROPERTIES_ORIGIN ["COM"]
properties('MP2/aug-cc-pvtz', properties = ['dipole'])
--------------------------------------------------------------------------

    Molecular point group: c1
  Charge       = 0
  Multiplicity = 1
  Basis Set: AUG-CC-PVTZ
    Blend: AUG-CC-PVTZ
  Basis Set: (AUG-CC-PVTZ AUX)
    Blend: AUG-CC-PVTZ-JKFIT

    Orbital Energies [Eh]
    ---------------------

    Doubly Occupied:

       1A    -11.227859     2A    -11.213509     3A    -11.209525
       4A    -11.207147     5A    -11.206897     6A    -11.206696
       7A     -1.109191     8A     -0.995769     9A     -0.926856
      10A     -0.926749    11A     -0.849683    12A     -0.723558
      13A     -0.625315    14A     -0.617618    15A     -0.596227
      16A     -0.579909    17A     -0.550956    18A     -0.529941
      19A     -0.523501    20A     -0.507577    21A     -0.502806
      22A     -0.480296    23A     -0.446916    24A     -0.444775
      25A     -0.439458

  @DF-RHF Final Energy:  -235.44642960915053

   => Energetics <=

    Nuclear Repulsion Energy =            266.4085975120300418
    One-Electron Energy =                -844.4125911171290682
    Two-Electron Energy =                 342.5575639959484988
    Total Energy =                       -235.4464296091505275
  Basis Set: (AUG-CC-PVTZ AUX)
    Blend: AUG-CC-PVTZ-RI
    Molecular point group: c1

    Geometry (in Angstrom), charge = 0, multiplicity = 1:

       Center              X                  Y                   Z               Mass
    ------------   -----------------  -----------------  -----------------  -----------------
         C           -0.429821755173    -0.006366992579    -0.000867579823    12.000000000000
         C            0.869945244827     0.818184007421    -0.001704579823    12.000000000000
         C           -0.515882755173    -0.886717992579    -1.249902579823    12.000000000000
         C           -1.609714755173     0.969716007421    -0.001615579823    12.000000000000
         C           -0.515642755173    -0.884480992579     1.249772420177    12.000000000000
         C            2.178168244827     0.028629007421    -0.000907579823    12.000000000000
         H            0.850720044827     1.565660607421    -0.806629579823     1.007825032230
         H            0.852985244827     1.479222007421     0.875642420177     1.007825032230
         H            0.273394244827    -1.644071992579    -1.267467579823     1.007825032230
         H           -0.429449755173    -0.282574992579    -2.160213579823     1.007825032230
         H           -1.477889755173    -1.409889992579    -1.282791579823     1.007825032230
         H           -1.584678755173     1.613866007421     0.884326420177     1.007825032230
         H           -1.584877755173     1.612240007421    -0.888741579823     1.007825032230
         H           -2.563086755173     0.429901007421    -0.001016579823     1.007825032230
         H            0.273557244827    -1.641881992579     1.268424420177     1.007825032230
         H           -1.477706755173    -1.407470992579     1.283860420177     1.007825032230
         H           -0.428863755173    -0.278710992579     2.158965420177     1.007825032230
         H            2.268708244827    -0.608132992579    -0.884804579823     1.007825032230
         H            3.031428244827     0.713763007421    -0.001934579823     1.007825032230
         H            2.269004244827    -0.605844992579     0.884599420177     1.007825032230

  Basis Set: AUG-CC-PVTZ
    Blend: AUG-CC-PVTZ
  Basis Set: (AUG-CC-PVTZ AUX)
    Blend: AUG-CC-PVTZ-JKFIT
	 Reference Energy          =    -235.4464296091505275 [Eh]
	 Singles Energy            =      -0.0000000000000000 [Eh]
	 Same-Spin Energy          =      -0.2554078949273585 [Eh]
	 Opposite-Spin Energy      =      -0.9540703592592379 [Eh]
	 Correlation Energy        =      -1.2094782541865965 [Eh]
	 Total Energy              =    -236.6559078633371200 [Eh]

	 ================> DF-SCS-MP2 Energies <==================
	-----------------------------------------------------------
	 SCS Same-Spin Scale       =       0.3333333333333333 [-]
	 SCS Opposite-Spin Scale   =       1.2000000000000000 [-]
	 SCS Same-Spin Energy      =      -0.0851359649757862 [Eh]
	 SCS Opposite-Spin Energy  =      -1.1448844311110855 [Eh]
	 SCS Correlation Energy    =      -1.2300203960868716 [Eh]
	 SCS Total Energy          =    -236.6764500052373990 [Eh]
	-----------------------------------------------------------

  Dipole Moment: [D]
     X:     0.0572      Y:     0.0573      Z:     0.0153     Total:     0.0824

*** Psi4 exiting successfully. Buy a developer a beer!
