                               Psi4 1.4a3.dev225

  ==> Input File <==

--------------------------------------------------------------------------
#psi4
#
memory 32 gb

molecule  {
0 1
  C        0.4325650     0.0000100    -0.0000020
  C       -0.8502907     0.8138491    -0.0000533
  C        0.5185540    -0.8790830     1.2499350
  C        1.6124760     0.9760580    -0.0001380
  C        0.5184830    -0.8793570    -1.2497460
  C       -2.1754120     0.0349770     0.0000010
  H       -0.8502370     1.4847800     0.8779110
  H       -0.8502460     1.4846590    -0.8781100
  H       -0.2707110    -1.6364310     1.2681610
  H        0.4320040    -0.2740170     2.1596200
  H        1.4805750    -1.4021870     1.2834330
  H        1.5875310     1.6192780    -0.8867600
  H        1.5875470     1.6195060     0.8863170
  H        2.5658350     0.4362190    -0.0000780
  H       -0.2707460    -1.6367490    -1.2677310
  H        1.4805270    -1.4024220    -1.2832170
  H        0.4318210    -0.2745040    -2.1595630
  H       -2.2660690    -0.6006200     0.8847210
  H       -3.0286490     0.7201330     0.0000090
  H       -2.2661130    -0.6006550    -0.8846890
units angstrom
no_reorient  #important for SAPT in psi4, default
symmetry c1  #important for SAPT in psi4, default
}

set PROPERTIES_ORIGIN ["COM"]
properties('MP2/aug-cc-pvtz', properties = ['dipole'])
--------------------------------------------------------------------------

    Molecular point group: c1
  Charge       = 0
  Multiplicity = 1
  Basis Set: AUG-CC-PVTZ
    Blend: AUG-CC-PVTZ
  Basis Set: (AUG-CC-PVTZ AUX)
    Blend: AUG-CC-PVTZ-JKFIT

    Orbital Energies [Eh]
    ---------------------

    Doubly Occupied:

       1A    -11.226549     2A    -11.214505     3A    -11.209271
       4A    -11.207109     5A    -11.207091     6A    -11.206964
       7A     -1.111741     8A     -0.994018     9A     -0.927363
      10A     -0.926973    11A     -0.850172    12A     -0.721717
      13A     -0.624694    14A     -0.622047    15A     -0.596914
      16A     -0.580239    17A     -0.549950    18A     -0.529307
      19A     -0.523645    20A     -0.508027    21A     -0.497716
      22A     -0.483480    23A     -0.446460    24A     -0.443828
      25A     -0.442987

  @DF-RHF Final Energy:  -235.44711387722640

   => Energetics <=

    Nuclear Repulsion Energy =            266.7324115786602192
    One-Electron Energy =                -845.0535139284035040
    Two-Electron Energy =                 342.8739884725169418
    Total Energy =                       -235.4471138772263998
  Basis Set: (AUG-CC-PVTZ AUX)
    Blend: AUG-CC-PVTZ-RI
    Molecular point group: c1

    Geometry (in Angstrom), charge = 0, multiplicity = 1:

       Center              X                  Y                   Z               Mass
    ------------   -----------------  -----------------  -----------------  -----------------
         C            0.427481724045    -0.003831805353    -0.000001821016    12.000000000000
         C           -0.855373975955     0.810007294647    -0.000053121016    12.000000000000
         C            0.513470724045    -0.882924805353     1.249935178984    12.000000000000
         C            1.607392724045     0.972216194647    -0.000137821016    12.000000000000
         C            0.513399724045    -0.883198805353    -1.249745821016    12.000000000000
         C           -2.180495275955     0.031135194647     0.000001178984    12.000000000000
         H           -0.855320275955     1.480938194647     0.877911178984     1.007825032230
         H           -0.855329275955     1.480817194647    -0.878109821016     1.007825032230
         H           -0.275794275955    -1.640272805353     1.268161178984     1.007825032230
         H            0.426920724045    -0.277858805353     2.159620178984     1.007825032230
         H            1.475491724045    -1.406028805353     1.283433178984     1.007825032230
         H            1.582447724045     1.615436194647    -0.886759821016     1.007825032230
         H            1.582463724045     1.615664194647     0.886317178984     1.007825032230
         H            2.560751724045     0.432377194647    -0.000077821016     1.007825032230
         H           -0.275829275955    -1.640590805353    -1.267730821016     1.007825032230
         H            1.475443724045    -1.406263805353    -1.283216821016     1.007825032230
         H            0.426737724045    -0.278345805353    -2.159562821016     1.007825032230
         H           -2.271152275955    -0.604461805353     0.884721178984     1.007825032230
         H           -3.033732275955     0.716291194647     0.000009178984     1.007825032230
         H           -2.271196275955    -0.604496805353    -0.884688821016     1.007825032230

  Basis Set: AUG-CC-PVTZ
    Blend: AUG-CC-PVTZ
  Basis Set: (AUG-CC-PVTZ AUX)
    Blend: AUG-CC-PVTZ-JKFIT
	 Reference Energy          =    -235.4471138772263998 [Eh]
	 Singles Energy            =      -0.0000000000000000 [Eh]
	 Same-Spin Energy          =      -0.2554982896321484 [Eh]
	 Opposite-Spin Energy      =      -0.9542260605046684 [Eh]
	 Correlation Energy        =      -1.2097243501368169 [Eh]
	 Total Energy              =    -236.6568382273632096 [Eh]

	 ================> DF-SCS-MP2 Energies <==================
	-----------------------------------------------------------
	 SCS Same-Spin Scale       =       0.3333333333333333 [-]
	 SCS Opposite-Spin Scale   =       1.2000000000000000 [-]
	 SCS Same-Spin Energy      =      -0.0851660965440495 [Eh]
	 SCS Opposite-Spin Energy  =      -1.1450712726056020 [Eh]
	 SCS Correlation Energy    =      -1.2302373691496515 [Eh]
	 SCS Total Energy          =    -236.6773512463760483 [Eh]
	-----------------------------------------------------------

  Dipole Moment: [D]
     X:    -0.0446      Y:     0.0267      Z:    -0.0000     Total:     0.0520

*** Psi4 exiting successfully. Buy a developer a beer!
