                               Psi4 1.3.2 release

  ==> Input File <==

--------------------------------------------------------------------------
#psi4
#
memory 32 gb

molecule  {
0 1
  C       -0.4325780     0.0000000    -0.0000100
  C        0.9020312     0.7540299     0.1397628
  C       -0.5186390    -0.8803510    -1.2490450
  C       -1.6124710     0.9760830    -0.0007580
  C       -0.5183990    -0.8781140     1.2506300
  C        2.1754120     0.0349960    -0.0000500
  H        0.8502280     1.4838230    -0.8795210
  H        0.8502290     1.4855890     0.8765000
  H        0.2706380    -1.6377050    -1.2666100
  H       -0.4322060    -0.2762080    -2.1593560
  H       -1.4806460    -1.4035230    -1.2819340
  H       -1.5874350     1.6202330     0.8851840
  H       -1.5876340     1.6186070    -0.8878840
  H       -2.5658430     0.4362680    -0.0001590
  H        0.2708010    -1.6355150     1.2692820
  H       -1.4804630    -1.4011040     1.2847180
  H       -0.4316200    -0.2723440     2.1598230
  H        2.2659520    -0.6017660    -0.8839470
  H        3.0286720     0.7201300    -0.0010770
  H        2.2662480    -0.5994780     0.8854570
units angstrom
no_reorient  #important for SAPT in psi4, default
symmetry c1  #important for SAPT in psi4, default
}

set PROPERTIES_ORIGIN ["COM"]
properties('MP2/aug-cc-pvtz', properties = ['dipole'])
--------------------------------------------------------------------------

    Molecular point group: c1
  Charge       = 0
  Multiplicity = 1
  Basis Set: AUG-CC-PVTZ
    Blend: AUG-CC-PVTZ
  Basis Set: (AUG-CC-PVTZ AUX)
    Blend: AUG-CC-PVTZ-JKFIT

    Orbital Energies [Eh]
    ---------------------

    Doubly Occupied:

       1A    -11.229763     2A    -11.221148     3A    -11.209496
       4A    -11.208710     5A    -11.208574     6A    -11.205641
       7A     -1.112865     8A     -1.008065     9A     -0.928331
      10A     -0.926414    11A     -0.847503    12A     -0.722991
      13A     -0.630856    14A     -0.614507    15A     -0.601384
      16A     -0.582229    17A     -0.558021    18A     -0.531292
      19A     -0.525119    20A     -0.517423    21A     -0.507752
      22A     -0.470902    23A     -0.453969    24A     -0.450962
      25A     -0.406300

  @DF-RHF Final Energy:  -235.42238510471836

   => Energetics <=

    Nuclear Repulsion Energy =            266.9515748825289165
    One-Electron Energy =                -845.3874843748470767
    Two-Electron Energy =                 343.0135243875998299
    Total Energy =                       -235.4223851047183302
  Basis Set: (AUG-CC-PVTZ AUX)
    Blend: AUG-CC-PVTZ-RI
    Molecular point group: c1

    Geometry (in Angstrom), charge = 0, multiplicity = 1:

       Center              X                  Y                   Z               Mass
    ------------   -----------------  -----------------  -----------------  -----------------
         C           -0.434703772501     0.004492987516    -0.019599433644    12.000000000000
         C            0.899905427499     0.758522887516     0.120173366356    12.000000000000
         C           -0.520764772501    -0.875858012484    -1.268634433644    12.000000000000
         C           -1.614596772501     0.980575987516    -0.020347433644    12.000000000000
         C           -0.520524772501    -0.873621012484     1.231040566356    12.000000000000
         C            2.173286227499     0.039488987516    -0.019639433644    12.000000000000
         H            0.848102227499     1.488315987516    -0.899110433644     1.007825032230
         H            0.848103227499     1.490081987516     0.856910566356     1.007825032230
         H            0.268512227499    -1.633212012484    -1.286199433644     1.007825032230
         H           -0.434331772501    -0.271715012484    -2.178945433644     1.007825032230
         H           -1.482771772501    -1.399030012484    -1.301523433644     1.007825032230
         H           -1.589560772501     1.624725987516     0.865594566356     1.007825032230
         H           -1.589759772501     1.623099987516    -0.907473433644     1.007825032230
         H           -2.567968772501     0.440760987516    -0.019748433644     1.007825032230
         H            0.268675227499    -1.631022012484     1.249692566356     1.007825032230
         H           -1.482588772501    -1.396611012484     1.265128566356     1.007825032230
         H           -0.433745772501    -0.267851012484     2.140233566356     1.007825032230
         H            2.263826227499    -0.597273012484    -0.903536433644     1.007825032230
         H            3.026546227499     0.724622987516    -0.020666433644     1.007825032230
         H            2.264122227499    -0.594985012484     0.865867566356     1.007825032230

  Basis Set: AUG-CC-PVTZ
    Blend: AUG-CC-PVTZ
  Basis Set: (AUG-CC-PVTZ AUX)
    Blend: AUG-CC-PVTZ-JKFIT
	 Reference Energy          =    -235.4223851047183587 [Eh]
	 Singles Energy            =      -0.0000000000000000 [Eh]
	 Same-Spin Energy          =      -0.2563827788058410 [Eh]
	 Opposite-Spin Energy      =      -0.9560563882748161 [Eh]
	 Correlation Energy        =      -1.2124391670806571 [Eh]
	 Total Energy              =    -236.6348242717990047 [Eh]

	 ================> DF-SCS-MP2 Energies <==================
	-----------------------------------------------------------
	 SCS Same-Spin Scale       =       0.3333333333333333 [-]
	 SCS Opposite-Spin Scale   =       1.2000000000000000 [-]
	 SCS Same-Spin Energy      =      -0.0854609262686137 [Eh]
	 SCS Opposite-Spin Energy  =      -1.1472676659297794 [Eh]
	 SCS Correlation Energy    =      -1.2327285921983930 [Eh]
	 SCS Total Energy          =    -236.6551136969167430 [Eh]
	-----------------------------------------------------------

  Dipole Moment: [D]
     X:     0.0645      Y:    -0.0463      Z:     0.0821     Total:     0.1142

*** Psi4 exiting successfully. Buy a developer a beer!
