                               Psi4 1.3.2 release

  ==> Input File <==

--------------------------------------------------------------------------
#psi4
#
memory 32 gb

molecule  {
0 1
  C       -0.4325780     0.0000000    -0.0000100
  C        0.8671890     0.8245510    -0.0008470
  C       -0.5228269    -0.9231987    -1.2174139
  C       -1.6124710     0.9760830    -0.0007580
  C       -0.5183990    -0.8781140     1.2506300
  C        2.1754120     0.0349960    -0.0000500
  H        0.8502280     1.4838230    -0.8795210
  H        0.8502290     1.4855890     0.8765000
  H        0.2706380    -1.6377050    -1.2666100
  H       -0.4322060    -0.2762080    -2.1593560
  H       -1.4806460    -1.4035230    -1.2819340
  H       -1.5874350     1.6202330     0.8851840
  H       -1.5876340     1.6186070    -0.8878840
  H       -2.5658430     0.4362680    -0.0001590
  H        0.2708010    -1.6355150     1.2692820
  H       -1.4804630    -1.4011040     1.2847180
  H       -0.4316200    -0.2723440     2.1598230
  H        2.2659520    -0.6017660    -0.8839470
  H        3.0286720     0.7201300    -0.0010770
  H        2.2662480    -0.5994780     0.8854570
units angstrom
no_reorient  #important for SAPT in psi4, default
symmetry c1  #important for SAPT in psi4, default
}

set PROPERTIES_ORIGIN ["COM"]
properties('MP2/aug-cc-pvtz', properties = ['dipole'])
--------------------------------------------------------------------------

    Molecular point group: c1
  Charge       = 0
  Multiplicity = 1
  Basis Set: AUG-CC-PVTZ
    Blend: AUG-CC-PVTZ
  Basis Set: (AUG-CC-PVTZ AUX)
    Blend: AUG-CC-PVTZ-JKFIT

    Orbital Energies [Eh]
    ---------------------

    Doubly Occupied:

       1A    -11.227513     2A    -11.214336     3A    -11.209272
       4A    -11.207470     5A    -11.207393     6A    -11.206138
       7A     -1.109675     8A     -0.996505     9A     -0.928423
      10A     -0.925163    11A     -0.849195    12A     -0.721815
      13A     -0.627102    14A     -0.623011    15A     -0.592522
      16A     -0.581847    17A     -0.549379    18A     -0.532078
      19A     -0.525442    20A     -0.507482    21A     -0.500964
      22A     -0.480119    23A     -0.448551    24A     -0.442653
      25A     -0.439150

  @DF-RHF Final Energy:  -235.44477132149632

   => Energetics <=

    Nuclear Repulsion Energy =            266.4959501167306257
    One-Electron Energy =                -844.5750529731362803
    Two-Electron Energy =                 342.6343315349092791
    Total Energy =                       -235.4447713214963187
  Basis Set: (AUG-CC-PVTZ AUX)
    Blend: AUG-CC-PVTZ-RI
    Molecular point group: c1

    Geometry (in Angstrom), charge = 0, multiplicity = 1:

       Center              X                  Y                   Z               Mass
    ------------   -----------------  -----------------  -----------------  -----------------
         C           -0.429264640633     0.000636495428    -0.004412449237    12.000000000000
         C            0.870502359367     0.825187495428    -0.005249449237    12.000000000000
         C           -0.519513540633    -0.922562204572    -1.221816349237    12.000000000000
         C           -1.609157640633     0.976719495428    -0.005160449237    12.000000000000
         C           -0.515085640633    -0.877477504572     1.246227550763    12.000000000000
         C            2.178725359367     0.035632495428    -0.004452449237    12.000000000000
         H            0.853541359367     1.484459495428    -0.883923449237     1.007825032230
         H            0.853542359367     1.486225495428     0.872097550763     1.007825032230
         H            0.273951359367    -1.637068504572    -1.271012449237     1.007825032230
         H           -0.428892640633    -0.275571504572    -2.163758449237     1.007825032230
         H           -1.477332640633    -1.402886504572    -1.286336449237     1.007825032230
         H           -1.584121640633     1.620869495428     0.880781550763     1.007825032230
         H           -1.584320640633     1.619243495428    -0.892286449237     1.007825032230
         H           -2.562529640633     0.436904495428    -0.004561449237     1.007825032230
         H            0.274114359367    -1.634878504572     1.264879550763     1.007825032230
         H           -1.477149640633    -1.400467504572     1.280315550763     1.007825032230
         H           -0.428306640633    -0.271707504572     2.155420550763     1.007825032230
         H            2.269265359367    -0.601129504572    -0.888349449237     1.007825032230
         H            3.031985359367     0.720766495428    -0.005479449237     1.007825032230
         H            2.269561359367    -0.598841504572     0.881054550763     1.007825032230

  Basis Set: AUG-CC-PVTZ
    Blend: AUG-CC-PVTZ
  Basis Set: (AUG-CC-PVTZ AUX)
    Blend: AUG-CC-PVTZ-JKFIT
	 Reference Energy          =    -235.4447713214963187 [Eh]
	 Singles Energy            =      -0.0000000000000000 [Eh]
	 Same-Spin Energy          =      -0.2554192150570605 [Eh]
	 Opposite-Spin Energy      =      -0.9541874869704967 [Eh]
	 Correlation Energy        =      -1.2096067020275572 [Eh]
	 Total Energy              =    -236.6543780235238899 [Eh]

	 ================> DF-SCS-MP2 Energies <==================
	-----------------------------------------------------------
	 SCS Same-Spin Scale       =       0.3333333333333333 [-]
	 SCS Opposite-Spin Scale   =       1.2000000000000000 [-]
	 SCS Same-Spin Energy      =      -0.0851397383523535 [Eh]
	 SCS Opposite-Spin Energy  =      -1.1450249843645961 [Eh]
	 SCS Correlation Energy    =      -1.2301647227169497 [Eh]
	 SCS Total Energy          =    -236.6749360442132684 [Eh]
	-----------------------------------------------------------

  Dipole Moment: [D]
     X:     0.0532      Y:     0.0231      Z:     0.0176     Total:     0.0606

*** Psi4 exiting successfully. Buy a developer a beer!
