                               Psi4 1.3.2 release

  ==> Input File <==

--------------------------------------------------------------------------
#psi4
#
memory 32 gb

molecule  {
0 1
  C       -0.4753144     0.0270508     0.0171916
  C        0.8671890     0.8245510    -0.0008470
  C       -0.5186390    -0.8803510    -1.2490450
  C       -1.6124710     0.9760830    -0.0007580
  C       -0.5183990    -0.8781140     1.2506300
  C        2.1754120     0.0349960    -0.0000500
  H        0.8502280     1.4838230    -0.8795210
  H        0.8502290     1.4855890     0.8765000
  H        0.2706380    -1.6377050    -1.2666100
  H       -0.4322060    -0.2762080    -2.1593560
  H       -1.4806460    -1.4035230    -1.2819340
  H       -1.5874350     1.6202330     0.8851840
  H       -1.5876340     1.6186070    -0.8878840
  H       -2.5658430     0.4362680    -0.0001590
  H        0.2708010    -1.6355150     1.2692820
  H       -1.4804630    -1.4011040     1.2847180
  H       -0.4316200    -0.2723440     2.1598230
  H        2.2659520    -0.6017660    -0.8839470
  H        3.0286720     0.7201300    -0.0010770
  H        2.2662480    -0.5994780     0.8854570
units angstrom
no_reorient  #important for SAPT in psi4, default
symmetry c1  #important for SAPT in psi4, default
}

set PROPERTIES_ORIGIN ["COM"]
properties('MP2/aug-cc-pvtz', properties = ['dipole'])
--------------------------------------------------------------------------

    Molecular point group: c1
  Charge       = 0
  Multiplicity = 1
  Basis Set: AUG-CC-PVTZ
    Blend: AUG-CC-PVTZ
  Basis Set: (AUG-CC-PVTZ AUX)
    Blend: AUG-CC-PVTZ-JKFIT

    Orbital Energies [Eh]
    ---------------------

    Doubly Occupied:

       1A    -11.227481     2A    -11.214125     3A    -11.209423
       4A    -11.207184     5A    -11.207111     6A    -11.206173
       7A     -1.109800     8A     -0.996843     9A     -0.931079
      10A     -0.924407    11A     -0.846997    12A     -0.721193
      13A     -0.624174    14A     -0.622200    15A     -0.596666
      16A     -0.583476    17A     -0.550321    18A     -0.529145
      19A     -0.522278    20A     -0.508737    21A     -0.501030
      22A     -0.482166    23A     -0.460607    24A     -0.441744
      25A     -0.427650

  @DF-RHF Final Energy:  -235.44473303147956

   => Energetics <=

    Nuclear Repulsion Energy =            266.3911178106374109
    One-Electron Energy =                -844.3676817618774066
    Two-Electron Energy =                 342.5318309197604663
    Total Energy =                       -235.4447330314795295
  Basis Set: (AUG-CC-PVTZ AUX)
    Blend: AUG-CC-PVTZ-RI
    Molecular point group: c1

    Geometry (in Angstrom), charge = 0, multiplicity = 1:

       Center              X                  Y                   Z               Mass
    ------------   -----------------  -----------------  -----------------  -----------------
         C           -0.466629023272     0.017946424693     0.014800007852    12.000000000000
         C            0.875874376728     0.815446624693    -0.003238592148    12.000000000000
         C           -0.509953623272    -0.889455375307    -1.251436592148    12.000000000000
         C           -1.603785623272     0.966978624693    -0.003149592148    12.000000000000
         C           -0.509713623272    -0.887218375307     1.248238407852    12.000000000000
         C            2.184097376728     0.025891624693    -0.002441592148    12.000000000000
         H            0.858913376728     1.474718624693    -0.881912592148     1.007825032230
         H            0.858914376728     1.476484624693     0.874108407852     1.007825032230
         H            0.279323376728    -1.646809375307    -1.269001592148     1.007825032230
         H           -0.423520623272    -0.285312375307    -2.161747592148     1.007825032230
         H           -1.471960623272    -1.412627375307    -1.284325592148     1.007825032230
         H           -1.578749623272     1.611128624693     0.882792407852     1.007825032230
         H           -1.578948623272     1.609502624693    -0.890275592148     1.007825032230
         H           -2.557157623272     0.427163624693    -0.002550592148     1.007825032230
         H            0.279486376728    -1.644619375307     1.266890407852     1.007825032230
         H           -1.471777623272    -1.410208375307     1.282326407852     1.007825032230
         H           -0.422934623272    -0.281448375307     2.157431407852     1.007825032230
         H            2.274637376728    -0.610870375307    -0.886338592148     1.007825032230
         H            3.037357376728     0.711025624693    -0.003468592148     1.007825032230
         H            2.274933376728    -0.608582375307     0.883065407852     1.007825032230

  Basis Set: AUG-CC-PVTZ
    Blend: AUG-CC-PVTZ
  Basis Set: (AUG-CC-PVTZ AUX)
    Blend: AUG-CC-PVTZ-JKFIT
	 Reference Energy          =    -235.4447330314795579 [Eh]
	 Singles Energy            =      -0.0000000000000000 [Eh]
	 Same-Spin Energy          =      -0.2555330551937843 [Eh]
	 Opposite-Spin Energy      =      -0.9542721737093262 [Eh]
	 Correlation Energy        =      -1.2098052289031105 [Eh]
	 Total Energy              =    -236.6545382603826795 [Eh]

	 ================> DF-SCS-MP2 Energies <==================
	-----------------------------------------------------------
	 SCS Same-Spin Scale       =       0.3333333333333333 [-]
	 SCS Opposite-Spin Scale   =       1.2000000000000000 [-]
	 SCS Same-Spin Energy      =      -0.0851776850645948 [Eh]
	 SCS Opposite-Spin Energy  =      -1.1451266084511913 [Eh]
	 SCS Correlation Energy    =      -1.2303042935157862 [Eh]
	 SCS Total Energy          =    -236.6750373249953441 [Eh]
	-----------------------------------------------------------

  Dipole Moment: [D]
     X:     0.0391      Y:     0.0440      Z:     0.0087     Total:     0.0595

*** Psi4 exiting successfully. Buy a developer a beer!
