                               Psi4 1.3.2 release

  ==> Input File <==

--------------------------------------------------------------------------
#psi4
#
memory 32 gb

molecule  {
0 1
  C       -0.4325780     0.0000000    -0.0000100
  C        0.8671890     0.8245510    -0.0008470
  C       -0.5186390    -0.8803510    -1.2490450
  C       -1.6124710     0.9760830    -0.0007580
  C       -0.5183990    -0.8781140     1.2506300
  C        2.1754120     0.0349960    -0.0000500
  H        0.8518423     1.4209440    -0.9233843
  H        0.8502290     1.4855890     0.8765000
  H        0.2706380    -1.6377050    -1.2666100
  H       -0.4322060    -0.2762080    -2.1593560
  H       -1.4806460    -1.4035230    -1.2819340
  H       -1.5874350     1.6202330     0.8851840
  H       -1.5876340     1.6186070    -0.8878840
  H       -2.5658430     0.4362680    -0.0001590
  H        0.2708010    -1.6355150     1.2692820
  H       -1.4804630    -1.4011040     1.2847180
  H       -0.4316200    -0.2723440     2.1598230
  H        2.2659520    -0.6017660    -0.8839470
  H        3.0286720     0.7201300    -0.0010770
  H        2.2662480    -0.5994780     0.8854570
units angstrom
no_reorient  #important for SAPT in psi4, default
symmetry c1  #important for SAPT in psi4, default
}

set PROPERTIES_ORIGIN ["COM"]
properties('MP2/aug-cc-pvtz', properties = ['dipole'])
--------------------------------------------------------------------------

    Molecular point group: c1
  Charge       = 0
  Multiplicity = 1
  Basis Set: AUG-CC-PVTZ
    Blend: AUG-CC-PVTZ
  Basis Set: (AUG-CC-PVTZ AUX)
    Blend: AUG-CC-PVTZ-JKFIT

    Orbital Energies [Eh]
    ---------------------

    Doubly Occupied:

       1A    -11.226939     2A    -11.214046     3A    -11.208489
       4A    -11.207116     5A    -11.206859     6A    -11.206751
       7A     -1.109834     8A     -0.996179     9A     -0.927148
      10A     -0.926521    11A     -0.848234    12A     -0.720231
      13A     -0.626085    14A     -0.623085    15A     -0.596442
      16A     -0.581331    17A     -0.549369    18A     -0.529392
      19A     -0.523756    20A     -0.508365    21A     -0.497910
      22A     -0.486203    23A     -0.449096    24A     -0.444076
      25A     -0.436448

  @DF-RHF Final Energy:  -235.44706022142054

   => Energetics <=

    Nuclear Repulsion Energy =            266.5650669803330857
    One-Electron Energy =                -844.7244486676736415
    Two-Electron Energy =                 342.7123214659200130
    Total Energy =                       -235.4470602214205428
  Basis Set: (AUG-CC-PVTZ AUX)
    Blend: AUG-CC-PVTZ-RI
    Molecular point group: c1

    Geometry (in Angstrom), charge = 0, multiplicity = 1:

       Center              X                  Y                   Z               Mass
    ------------   -----------------  -----------------  -----------------  -----------------
         C           -0.429867149085    -0.004598712136     0.000508952971    12.000000000000
         C            0.869899850915     0.819952287864    -0.000328047029    12.000000000000
         C           -0.515928149085    -0.884949712136    -1.248526047029    12.000000000000
         C           -1.609760149085     0.971484287864    -0.000239047029    12.000000000000
         C           -0.515688149085    -0.882712712136     1.251148952971    12.000000000000
         C            2.178122850915     0.030397287864     0.000468952971    12.000000000000
         H            0.854553150915     1.416345287864    -0.922865347029     1.007825032230
         H            0.852939850915     1.480990287864     0.877018952971     1.007825032230
         H            0.273348850915    -1.642303712136    -1.266091047029     1.007825032230
         H           -0.429495149085    -0.280806712136    -2.158837047029     1.007825032230
         H           -1.477935149085    -1.408121712136    -1.281415047029     1.007825032230
         H           -1.584724149085     1.615634287864     0.885702952971     1.007825032230
         H           -1.584923149085     1.614008287864    -0.887365047029     1.007825032230
         H           -2.563132149085     0.431669287864     0.000359952971     1.007825032230
         H            0.273511850915    -1.640113712136     1.269800952971     1.007825032230
         H           -1.477752149085    -1.405702712136     1.285236952971     1.007825032230
         H           -0.428909149085    -0.276942712136     2.160341952971     1.007825032230
         H            2.268662850915    -0.606364712136    -0.883428047029     1.007825032230
         H            3.031382850915     0.715531287864    -0.000558047029     1.007825032230
         H            2.268958850915    -0.604076712136     0.885975952971     1.007825032230

  Basis Set: AUG-CC-PVTZ
    Blend: AUG-CC-PVTZ
  Basis Set: (AUG-CC-PVTZ AUX)
    Blend: AUG-CC-PVTZ-JKFIT
	 Reference Energy          =    -235.4470602214205428 [Eh]
	 Singles Energy            =      -0.0000000000000000 [Eh]
	 Same-Spin Energy          =      -0.2554517777698354 [Eh]
	 Opposite-Spin Energy      =      -0.9541962400391819 [Eh]
	 Correlation Energy        =      -1.2096480178090172 [Eh]
	 Total Energy              =    -236.6567082392295731 [Eh]

	 ================> DF-SCS-MP2 Energies <==================
	-----------------------------------------------------------
	 SCS Same-Spin Scale       =       0.3333333333333333 [-]
	 SCS Opposite-Spin Scale   =       1.2000000000000000 [-]
	 SCS Same-Spin Energy      =      -0.0851505925899451 [Eh]
	 SCS Opposite-Spin Energy  =      -1.1450354880470182 [Eh]
	 SCS Correlation Energy    =      -1.2301860806369633 [Eh]
	 SCS Total Energy          =    -236.6772463020575117 [Eh]
	-----------------------------------------------------------

  Dipole Moment: [D]
     X:     0.0498      Y:     0.0153      Z:    -0.0069     Total:     0.0526

*** Psi4 exiting successfully. Buy a developer a beer!
