                               Psi4 1.4a3.dev225

  ==> Input File <==

--------------------------------------------------------------------------
#psi4
#
memory 32 gb

molecule  {
0 1
  C        0.4325650     0.0000100    -0.0000020
  C       -0.8671790     0.8245630    -0.0000540
  C        0.5185540    -0.8790830     1.2499350
  C        1.6124760     0.9760580    -0.0001380
  C        0.5184830    -0.8793570    -1.2497460
  C       -2.1754120     0.0349770     0.0000010
  H       -0.8502370     1.4847800     0.8779110
  H       -0.8502460     1.4846590    -0.8781100
  H       -0.2707110    -1.6364310     1.2681610
  H        0.4320040    -0.2740170     2.1596200
  H        1.4805750    -1.4021870     1.2834330
  H        1.5875310     1.6192780    -0.8867600
  H        1.5875470     1.6195060     0.8863170
  H        2.5658350     0.4362190    -0.0000780
  H       -0.2707460    -1.6367490    -1.2677310
  H        1.4980896    -1.4119708    -1.2838280
  H        0.4318210    -0.2745040    -2.1595630
  H       -2.2660690    -0.6006200     0.8847210
  H       -3.0286490     0.7201330     0.0000090
  H       -2.2661130    -0.6006550    -0.8846890
units angstrom
no_reorient  #important for SAPT in psi4, default
symmetry c1  #important for SAPT in psi4, default
}

set PROPERTIES_ORIGIN ["COM"]
properties('MP2/aug-cc-pvtz', properties = ['dipole'])
--------------------------------------------------------------------------

    Molecular point group: c1
  Charge       = 0
  Multiplicity = 1
  Basis Set: AUG-CC-PVTZ
    Blend: AUG-CC-PVTZ
  Basis Set: (AUG-CC-PVTZ AUX)
    Blend: AUG-CC-PVTZ-JKFIT

    Orbital Energies [Eh]
    ---------------------

    Doubly Occupied:

       1A    -11.227493     2A    -11.214057     3A    -11.209416
       4A    -11.209031     5A    -11.206948     6A    -11.206867
       7A     -1.109488     8A     -0.995932     9A     -0.926772
      10A     -0.925472    11A     -0.848738    12A     -0.721179
      13A     -0.623713    14A     -0.622000    15A     -0.596495
      16A     -0.580885    17A     -0.550012    18A     -0.529063
      19A     -0.521690    20A     -0.507947    21A     -0.499620
      22A     -0.484219    23A     -0.448032    24A     -0.444996
      25A     -0.437920

  @DF-RHF Final Energy:  -235.44718403709666

   => Energetics <=

    Nuclear Repulsion Energy =            266.4106836759413000
    One-Electron Energy =                -844.4197679879216594
    Two-Electron Energy =                 342.5619002748836692
    Total Energy =                       -235.4471840370966902
  Basis Set: (AUG-CC-PVTZ AUX)
    Blend: AUG-CC-PVTZ-RI
    Molecular point group: c1

    Geometry (in Angstrom), charge = 0, multiplicity = 1:

       Center              X                  Y                   Z               Mass
    ------------   -----------------  -----------------  -----------------  -----------------
         C            0.429629680586    -0.005213107191     0.000005427670    12.000000000000
         C           -0.870114319414     0.819339892809    -0.000046572330    12.000000000000
         C            0.515618680586    -0.884306107191     1.249942427670    12.000000000000
         C            1.609540680586     0.970834892809    -0.000130572330    12.000000000000
         C            0.515547680586    -0.884580107191    -1.249738572330    12.000000000000
         C           -2.178347319414     0.029753892809     0.000008427670    12.000000000000
         H           -0.853172319414     1.479556892809     0.877918427670     1.007825032230
         H           -0.853181319414     1.479435892809    -0.878102572330     1.007825032230
         H           -0.273646319414    -1.641654107191     1.268168427670     1.007825032230
         H            0.429068680586    -0.279240107191     2.159627427670     1.007825032230
         H            1.477639680586    -1.407410107191     1.283440427670     1.007825032230
         H            1.584595680586     1.614054892809    -0.886752572330     1.007825032230
         H            1.584611680586     1.614282892809     0.886324427670     1.007825032230
         H            2.562899680586     0.430995892809    -0.000070572330     1.007825032230
         H           -0.273681319414    -1.641972107191    -1.267723572330     1.007825032230
         H            1.495154280586    -1.417193907191    -1.283820572330     1.007825032230
         H            0.428885680586    -0.279727107191    -2.159555572330     1.007825032230
         H           -2.269004319414    -0.605843107191     0.884728427670     1.007825032230
         H           -3.031584319414     0.714909892809     0.000016427670     1.007825032230
         H           -2.269048319414    -0.605878107191    -0.884681572330     1.007825032230

  Basis Set: AUG-CC-PVTZ
    Blend: AUG-CC-PVTZ
  Basis Set: (AUG-CC-PVTZ AUX)
    Blend: AUG-CC-PVTZ-JKFIT
	 Reference Energy          =    -235.4471840370966618 [Eh]
	 Singles Energy            =      -0.0000000000000000 [Eh]
	 Same-Spin Energy          =      -0.2553924081064163 [Eh]
	 Opposite-Spin Energy      =      -0.9542030598870579 [Eh]
	 Correlation Energy        =      -1.2095954679934742 [Eh]
	 Total Energy              =    -236.6567795050901282 [Eh]

	 ================> DF-SCS-MP2 Energies <==================
	-----------------------------------------------------------
	 SCS Same-Spin Scale       =       0.3333333333333333 [-]
	 SCS Opposite-Spin Scale   =       1.2000000000000000 [-]
	 SCS Same-Spin Energy      =      -0.0851308027021388 [Eh]
	 SCS Opposite-Spin Energy  =      -1.1450436718644694 [Eh]
	 SCS Correlation Energy    =      -1.2301744745666081 [Eh]
	 SCS Total Energy          =    -236.6773585116632717 [Eh]
	-----------------------------------------------------------

  Dipole Moment: [D]
     X:    -0.0662      Y:     0.0406      Z:     0.0038     Total:     0.0777

*** Psi4 exiting successfully. Buy a developer a beer!
