                               Psi4 1.4a3.dev225

  ==> Input File <==

--------------------------------------------------------------------------
#psi4
#
memory 32 gb

molecule  {
0 1
  C        0.4325650     0.0000100    -0.0000020
  C       -0.8671790     0.8245630    -0.0000540
  C        0.5185540    -0.8790830     1.2499350
  C        1.6124760     0.9760580    -0.0001380
  C        0.5156762    -0.8506295    -1.2089189
  C       -2.1754120     0.0349770     0.0000010
  H       -0.8502370     1.4847800     0.8779110
  H       -0.8502460     1.4846590    -0.8781100
  H       -0.2707110    -1.6364310     1.2681610
  H        0.4320040    -0.2740170     2.1596200
  H        1.4805750    -1.4021870     1.2834330
  H        1.5875310     1.6192780    -0.8867600
  H        1.5875470     1.6195060     0.8863170
  H        2.5658350     0.4362190    -0.0000780
  H       -0.2707460    -1.6367490    -1.2677310
  H        1.4805270    -1.4024220    -1.2832170
  H        0.4318210    -0.2745040    -2.1595630
  H       -2.2660690    -0.6006200     0.8847210
  H       -3.0286490     0.7201330     0.0000090
  H       -2.2661130    -0.6006550    -0.8846890
units angstrom
no_reorient  #important for SAPT in psi4, default
symmetry c1  #important for SAPT in psi4, default
}

set PROPERTIES_ORIGIN ["COM"]
properties('MP2/aug-cc-pvtz', properties = ['dipole'])
--------------------------------------------------------------------------

    Molecular point group: c1
  Charge       = 0
  Multiplicity = 1
  Basis Set: AUG-CC-PVTZ
    Blend: AUG-CC-PVTZ
  Basis Set: (AUG-CC-PVTZ AUX)
    Blend: AUG-CC-PVTZ-JKFIT

    Orbital Energies [Eh]
    ---------------------

    Doubly Occupied:

       1A    -11.224763     2A    -11.214070     3A    -11.209801
       4A    -11.208873     5A    -11.207173     6A    -11.207079
       7A     -1.115307     8A     -0.997071     9A     -0.927507
      10A     -0.926022    11A     -0.848883    12A     -0.723889
      13A     -0.625207    14A     -0.623723    15A     -0.597143
      16A     -0.581050    17A     -0.549192    18A     -0.529227
      19A     -0.519546    20A     -0.504935    21A     -0.497753
      22A     -0.483091    23A     -0.456429    24A     -0.443252
      25A     -0.436890

  @DF-RHF Final Energy:  -235.44446701497782

   => Energetics <=

    Nuclear Repulsion Energy =            267.3188639466015388
    One-Electron Energy =                -846.2109099494571183
    Two-Electron Energy =                 343.4475789878777050
    Total Energy =                       -235.4444670149778176
  Basis Set: (AUG-CC-PVTZ AUX)
    Blend: AUG-CC-PVTZ-RI
    Molecular point group: c1

    Geometry (in Angstrom), charge = 0, multiplicity = 1:

       Center              X                  Y                   Z               Mass
    ------------   -----------------  -----------------  -----------------  -----------------
         C            0.430226381273    -0.009328254905    -0.005691280518    12.000000000000
         C           -0.869517618727     0.815224745095    -0.005743280518    12.000000000000
         C            0.516215381273    -0.888421254905     1.244245719482    12.000000000000
         C            1.610137381273     0.966719745095    -0.005827280518    12.000000000000
         C            0.513337581273    -0.859967754905    -1.214608180518    12.000000000000
         C           -2.177750618727     0.025638745095    -0.005688280518    12.000000000000
         H           -0.852575618727     1.475441745095     0.872221719482     1.007825032230
         H           -0.852584618727     1.475320745095    -0.883799280518     1.007825032230
         H           -0.273049618727    -1.645769254905     1.262471719482     1.007825032230
         H            0.429665381273    -0.283355254905     2.153930719482     1.007825032230
         H            1.478236381273    -1.411525254905     1.277743719482     1.007825032230
         H            1.585192381273     1.609939745095    -0.892449280518     1.007825032230
         H            1.585208381273     1.610167745095     0.880627719482     1.007825032230
         H            2.563496381273     0.426880745095    -0.005767280518     1.007825032230
         H           -0.273084618727    -1.646087254905    -1.273420280518     1.007825032230
         H            1.478188381273    -1.411760254905    -1.288906280518     1.007825032230
         H            0.429482381273    -0.283842254905    -2.165252280518     1.007825032230
         H           -2.268407618727    -0.609958254905     0.879031719482     1.007825032230
         H           -3.030987618727     0.710794745095    -0.005680280518     1.007825032230
         H           -2.268451618727    -0.609993254905    -0.890378280518     1.007825032230

  Basis Set: AUG-CC-PVTZ
    Blend: AUG-CC-PVTZ
  Basis Set: (AUG-CC-PVTZ AUX)
    Blend: AUG-CC-PVTZ-JKFIT
	 Reference Energy          =    -235.4444670149778176 [Eh]
	 Singles Energy            =      -0.0000000000000000 [Eh]
	 Same-Spin Energy          =      -0.2559117423280480 [Eh]
	 Opposite-Spin Energy      =      -0.9546545149686004 [Eh]
	 Correlation Energy        =      -1.2105662572966485 [Eh]
	 Total Energy              =    -236.6550332722744656 [Eh]

	 ================> DF-SCS-MP2 Energies <==================
	-----------------------------------------------------------
	 SCS Same-Spin Scale       =       0.3333333333333333 [-]
	 SCS Opposite-Spin Scale   =       1.2000000000000000 [-]
	 SCS Same-Spin Energy      =      -0.0853039141093493 [Eh]
	 SCS Opposite-Spin Energy  =      -1.1455854179623204 [Eh]
	 SCS Correlation Energy    =      -1.2308893320716696 [Eh]
	 SCS Total Energy          =    -236.6753563470495010 [Eh]
	-----------------------------------------------------------

  Dipole Moment: [D]
     X:    -0.0535      Y:     0.0310      Z:     0.0017     Total:     0.0619

*** Psi4 exiting successfully. Buy a developer a beer!
