                               Psi4 1.3.2 release

  ==> Input File <==

--------------------------------------------------------------------------
#psi4
#
memory 32 gb

molecule  {
0 1
  C       -0.4161845    -0.0241370    -0.0451239
  C        0.8671890     0.8245510    -0.0008470
  C       -0.5186390    -0.8803510    -1.2490450
  C       -1.6124710     0.9760830    -0.0007580
  C       -0.5183990    -0.8781140     1.2506300
  C        2.1754120     0.0349960    -0.0000500
  H        0.8502280     1.4838230    -0.8795210
  H        0.8502290     1.4855890     0.8765000
  H        0.2706380    -1.6377050    -1.2666100
  H       -0.4322060    -0.2762080    -2.1593560
  H       -1.4806460    -1.4035230    -1.2819340
  H       -1.5874350     1.6202330     0.8851840
  H       -1.5876340     1.6186070    -0.8878840
  H       -2.5658430     0.4362680    -0.0001590
  H        0.2708010    -1.6355150     1.2692820
  H       -1.4804630    -1.4011040     1.2847180
  H       -0.4316200    -0.2723440     2.1598230
  H        2.2659520    -0.6017660    -0.8839470
  H        3.0286720     0.7201300    -0.0010770
  H        2.2662480    -0.5994780     0.8854570
units angstrom
no_reorient  #important for SAPT in psi4, default
symmetry c1  #important for SAPT in psi4, default
}

set PROPERTIES_ORIGIN ["COM"]
properties('MP2/aug-cc-pvtz', properties = ['dipole'])
--------------------------------------------------------------------------

    Molecular point group: c1
  Charge       = 0
  Multiplicity = 1
  Basis Set: AUG-CC-PVTZ
    Blend: AUG-CC-PVTZ
  Basis Set: (AUG-CC-PVTZ AUX)
    Blend: AUG-CC-PVTZ-JKFIT

    Orbital Energies [Eh]
    ---------------------

    Doubly Occupied:

       1A    -11.227588     2A    -11.214099     3A    -11.208393
       4A    -11.207220     5A    -11.207200     6A    -11.206365
       7A     -1.110080     8A     -0.996007     9A     -0.931256
      10A     -0.922551    11A     -0.848079    12A     -0.722083
      13A     -0.624735    14A     -0.622227    15A     -0.596879
      16A     -0.579384    17A     -0.549717    18A     -0.530928
      19A     -0.523820    20A     -0.507921    21A     -0.499273
      22A     -0.485651    23A     -0.460469    24A     -0.434897
      25A     -0.432544

  @DF-RHF Final Energy:  -235.44467537125496

   => Energetics <=

    Nuclear Repulsion Energy =            266.5366471677474465
    One-Electron Energy =                -844.6639104148198385
    Two-Electron Energy =                 342.6825878758174326
    Total Energy =                       -235.4446753712549594
  Basis Set: (AUG-CC-PVTZ AUX)
    Blend: AUG-CC-PVTZ-RI
    Molecular point group: c1

    Geometry (in Angstrom), charge = 0, multiplicity = 1:

       Center              X                  Y                   Z               Mass
    ------------   -----------------  -----------------  -----------------  -----------------
         C           -0.415739310293    -0.026107978410    -0.038831368307    12.000000000000
         C            0.867634189707     0.822580021590     0.005445531693    12.000000000000
         C           -0.518193810293    -0.882321978410    -1.242752468307    12.000000000000
         C           -1.612025810293     0.974112021590     0.005534531693    12.000000000000
         C           -0.517953810293    -0.880084978410     1.256922531693    12.000000000000
         C            2.175857189707     0.033025021590     0.006242531693    12.000000000000
         H            0.850673189707     1.481852021590    -0.873228468307     1.007825032230
         H            0.850674189707     1.483618021590     0.882792531693     1.007825032230
         H            0.271083189707    -1.639675978410    -1.260317468307     1.007825032230
         H           -0.431760810293    -0.278178978410    -2.153063468307     1.007825032230
         H           -1.480200810293    -1.405493978410    -1.275641468307     1.007825032230
         H           -1.586989810293     1.618262021590     0.891476531693     1.007825032230
         H           -1.587188810293     1.616636021590    -0.881591468307     1.007825032230
         H           -2.565397810293     0.434297021590     0.006133531693     1.007825032230
         H            0.271246189707    -1.637485978410     1.275574531693     1.007825032230
         H           -1.480017810293    -1.403074978410     1.291010531693     1.007825032230
         H           -0.431174810293    -0.274314978410     2.166115531693     1.007825032230
         H            2.266397189707    -0.603736978410    -0.877654468307     1.007825032230
         H            3.029117189707     0.718159021590     0.005215531693     1.007825032230
         H            2.266693189707    -0.601448978410     0.891749531693     1.007825032230

  Basis Set: AUG-CC-PVTZ
    Blend: AUG-CC-PVTZ
  Basis Set: (AUG-CC-PVTZ AUX)
    Blend: AUG-CC-PVTZ-JKFIT
	 Reference Energy          =    -235.4446753712549594 [Eh]
	 Singles Energy            =      -0.0000000000000000 [Eh]
	 Same-Spin Energy          =      -0.2555133542548654 [Eh]
	 Opposite-Spin Energy      =      -0.9543137771371856 [Eh]
	 Correlation Energy        =      -1.2098271313920510 [Eh]
	 Total Energy              =    -236.6545025026470057 [Eh]

	 ================> DF-SCS-MP2 Energies <==================
	-----------------------------------------------------------
	 SCS Same-Spin Scale       =       0.3333333333333333 [-]
	 SCS Opposite-Spin Scale   =       1.2000000000000000 [-]
	 SCS Same-Spin Energy      =      -0.0851711180849551 [Eh]
	 SCS Opposite-Spin Energy  =      -1.1451765325646226 [Eh]
	 SCS Correlation Energy    =      -1.2303476506495779 [Eh]
	 SCS Total Energy          =    -236.6750230219045363 [Eh]
	-----------------------------------------------------------

  Dipole Moment: [D]
     X:     0.0600      Y:     0.0233      Z:    -0.0213     Total:     0.0678

*** Psi4 exiting successfully. Buy a developer a beer!
