                               Psi4 1.3.2 release

  ==> Input File <==

--------------------------------------------------------------------------
#psi4
#
memory 32 gb

molecule  {
0 1
  C       -0.5796023    -0.0521597    -0.0364611
  C        0.8671890     0.8245510    -0.0008470
  C       -0.5186390    -0.8803510    -1.2490450
  C       -1.6124710     0.9760830    -0.0007580
  C       -0.5183990    -0.8781140     1.2506300
  C        2.1754120     0.0349960    -0.0000500
  H        0.8502280     1.4838230    -0.8795210
  H        0.8502290     1.4855890     0.8765000
  H        0.2706380    -1.6377050    -1.2666100
  H       -0.4322060    -0.2762080    -2.1593560
  H       -1.4806460    -1.4035230    -1.2819340
  H       -1.5874350     1.6202330     0.8851840
  H       -1.5876340     1.6186070    -0.8878840
  H       -2.5658430     0.4362680    -0.0001590
  H        0.2708010    -1.6355150     1.2692820
  H       -1.4804630    -1.4011040     1.2847180
  H       -0.4316200    -0.2723440     2.1598230
  H        2.2659520    -0.6017660    -0.8839470
  H        3.0286720     0.7201300    -0.0010770
  H        2.2662480    -0.5994780     0.8854570
units angstrom
no_reorient  #important for SAPT in psi4, default
symmetry c1  #important for SAPT in psi4, default
}

set PROPERTIES_ORIGIN ["COM"]
properties('MP2/aug-cc-pvtz', properties = ['dipole'])
--------------------------------------------------------------------------

    Molecular point group: c1
  Charge       = 0
  Multiplicity = 1
  Basis Set: AUG-CC-PVTZ
    Blend: AUG-CC-PVTZ
  Basis Set: (AUG-CC-PVTZ AUX)
    Blend: AUG-CC-PVTZ-JKFIT

    Orbital Energies [Eh]
    ---------------------

    Doubly Occupied:

       1A    -11.229648     2A    -11.213467     3A    -11.208605
       4A    -11.207587     5A    -11.207022     6A    -11.206990
       7A     -1.111905     8A     -0.995377     9A     -0.940028
      10A     -0.931477    11A     -0.831411    12A     -0.724193
      13A     -0.627464    14A     -0.617772    15A     -0.600752
      16A     -0.588195    17A     -0.550544    18A     -0.526869
      19A     -0.523250    20A     -0.511739    21A     -0.504804
      22A     -0.481876    23A     -0.471560    24A     -0.457225
      25A     -0.384676

  @DF-RHF Final Energy:  -235.42444198605151

   => Energetics <=

    Nuclear Repulsion Energy =            266.1020810934575138
    One-Electron Energy =                -843.7441731167285752
    Two-Electron Energy =                 342.2176500372195846
    Total Energy =                       -235.4244419860514768
  Basis Set: (AUG-CC-PVTZ AUX)
    Blend: AUG-CC-PVTZ-RI
    Molecular point group: c1

    Geometry (in Angstrom), charge = 0, multiplicity = 1:

       Center              X                  Y                   Z               Mass
    ------------   -----------------  -----------------  -----------------  -----------------
         C           -0.556383636390    -0.050225508795    -0.031375793283    12.000000000000
         C            0.890407663610     0.826485191205     0.004238306717    12.000000000000
         C           -0.495420336390    -0.878416808795    -1.243959693283    12.000000000000
         C           -1.589252336390     0.978017191205     0.004327306717    12.000000000000
         C           -0.495180336390    -0.876179808795     1.255715306717    12.000000000000
         C            2.198630663610     0.036930191205     0.005035306717    12.000000000000
         H            0.873446663610     1.485757191205    -0.874435693283     1.007825032230
         H            0.873447663610     1.487523191205     0.881585306717     1.007825032230
         H            0.293856663610    -1.635770808795    -1.261524693283     1.007825032230
         H           -0.408987336390    -0.274273808795    -2.154270693283     1.007825032230
         H           -1.457427336390    -1.401588808795    -1.276848693283     1.007825032230
         H           -1.564216336390     1.622167191205     0.890269306717     1.007825032230
         H           -1.564415336390     1.620541191205    -0.882798693283     1.007825032230
         H           -2.542624336390     0.438202191205     0.004926306717     1.007825032230
         H            0.294019663610    -1.633580808795     1.274367306717     1.007825032230
         H           -1.457244336390    -1.399169808795     1.289803306717     1.007825032230
         H           -0.408401336390    -0.270409808795     2.164908306717     1.007825032230
         H            2.289170663610    -0.599831808795    -0.878861693283     1.007825032230
         H            3.051890663610     0.722064191205     0.004008306717     1.007825032230
         H            2.289466663610    -0.597543808795     0.890542306717     1.007825032230

  Basis Set: AUG-CC-PVTZ
    Blend: AUG-CC-PVTZ
  Basis Set: (AUG-CC-PVTZ AUX)
    Blend: AUG-CC-PVTZ-JKFIT
	 Reference Energy          =    -235.4244419860515052 [Eh]
	 Singles Energy            =      -0.0000000000000000 [Eh]
	 Same-Spin Energy          =      -0.2565751868073387 [Eh]
	 Opposite-Spin Energy      =      -0.9559922981960240 [Eh]
	 Correlation Energy        =      -1.2125674850033628 [Eh]
	 Total Energy              =    -236.6370094710548813 [Eh]

	 ================> DF-SCS-MP2 Energies <==================
	-----------------------------------------------------------
	 SCS Same-Spin Scale       =       0.3333333333333333 [-]
	 SCS Opposite-Spin Scale   =       1.2000000000000000 [-]
	 SCS Same-Spin Energy      =      -0.0855250622691129 [Eh]
	 SCS Opposite-Spin Energy  =      -1.1471907578352287 [Eh]
	 SCS Correlation Energy    =      -1.2327158201043416 [Eh]
	 SCS Total Energy          =    -236.6571578061558512 [Eh]
	-----------------------------------------------------------

  Dipole Moment: [D]
     X:    -0.0066      Y:     0.0243      Z:    -0.0165     Total:     0.0301

*** Psi4 exiting successfully. Buy a developer a beer!
