                               Psi4 1.4a3.dev225

  ==> Input File <==

--------------------------------------------------------------------------
#psi4
#
memory 32 gb

molecule  {
0 1
  C        0.4325650     0.0000100    -0.0000020
  C       -0.8671790     0.8245630    -0.0000540
  C        0.5185540    -0.8790830     1.2499350
  C        1.6124760     0.9760580    -0.0001380
  C        0.5196057    -0.8908480    -1.2660768
  C       -2.1754120     0.0349770     0.0000010
  H       -0.8502370     1.4847800     0.8779110
  H       -0.8502460     1.4846590    -0.8781100
  H       -0.2707110    -1.6364310     1.2681610
  H        0.4320040    -0.2740170     2.1596200
  H        1.4805750    -1.4021870     1.2834330
  H        1.5875310     1.6192780    -0.8867600
  H        1.5875470     1.6195060     0.8863170
  H        2.5658350     0.4362190    -0.0000780
  H       -0.2707460    -1.6367490    -1.2677310
  H        1.4805270    -1.4024220    -1.2832170
  H        0.4318210    -0.2745040    -2.1595630
  H       -2.2660690    -0.6006200     0.8847210
  H       -3.0286490     0.7201330     0.0000090
  H       -2.2661130    -0.6006550    -0.8846890
units angstrom
no_reorient  #important for SAPT in psi4, default
symmetry c1  #important for SAPT in psi4, default
}

set PROPERTIES_ORIGIN ["COM"]
properties('MP2/aug-cc-pvtz', properties = ['dipole'])
--------------------------------------------------------------------------

    Molecular point group: c1
  Charge       = 0
  Multiplicity = 1
  Basis Set: AUG-CC-PVTZ
    Blend: AUG-CC-PVTZ
  Basis Set: (AUG-CC-PVTZ AUX)
    Blend: AUG-CC-PVTZ-JKFIT

    Orbital Energies [Eh]
    ---------------------

    Doubly Occupied:

       1A    -11.228231     2A    -11.213784     3A    -11.208895
       4A    -11.206883     5A    -11.206817     6A    -11.205965
       7A     -1.107513     8A     -0.995556     9A     -0.927344
      10A     -0.926444    11A     -0.848696    12A     -0.720586
      13A     -0.623667    14A     -0.622029    15A     -0.596196
      16A     -0.580762    17A     -0.550348    18A     -0.530303
      19A     -0.525083    20A     -0.509667    21A     -0.500054
      22A     -0.484440    23A     -0.446581    24A     -0.443421
      25A     -0.437574

  @DF-RHF Final Energy:  -235.44763309505359

   => Energetics <=

    Nuclear Repulsion Energy =            266.1766148245778254
    One-Electron Energy =                -843.9548210581767762
    Two-Electron Energy =                 342.3305731385452759
    Total Energy =                       -235.4476330950536180
  Basis Set: (AUG-CC-PVTZ AUX)
    Blend: AUG-CC-PVTZ-RI
    Molecular point group: c1

    Geometry (in Angstrom), charge = 0, multiplicity = 1:

       Center              X                  Y                   Z               Mass
    ------------   -----------------  -----------------  -----------------  -----------------
         C            0.429678776509    -0.003723510745     0.002274093780    12.000000000000
         C           -0.870065223491     0.820829489255     0.002222093780    12.000000000000
         C            0.515667776509    -0.882816510745     1.252211093780    12.000000000000
         C            1.609589776509     0.972324489255     0.002138093780    12.000000000000
         C            0.516719476509    -0.894581510745    -1.263800706220    12.000000000000
         C           -2.178298223491     0.031243489255     0.002277093780    12.000000000000
         H           -0.853123223491     1.481046489255     0.880187093780     1.007825032230
         H           -0.853132223491     1.480925489255    -0.875833906220     1.007825032230
         H           -0.273597223491    -1.640164510745     1.270437093780     1.007825032230
         H            0.429117776509    -0.277750510745     2.161896093780     1.007825032230
         H            1.477688776509    -1.405920510745     1.285709093780     1.007825032230
         H            1.584644776509     1.615544489255    -0.884483906220     1.007825032230
         H            1.584660776509     1.615772489255     0.888593093780     1.007825032230
         H            2.562948776509     0.432485489255     0.002198093780     1.007825032230
         H           -0.273632223491    -1.640482510745    -1.265454906220     1.007825032230
         H            1.477640776509    -1.406155510745    -1.280940906220     1.007825032230
         H            0.428934776509    -0.278237510745    -2.157286906220     1.007825032230
         H           -2.268955223491    -0.604353510745     0.886997093780     1.007825032230
         H           -3.031535223491     0.716399489255     0.002285093780     1.007825032230
         H           -2.268999223491    -0.604388510745    -0.882412906220     1.007825032230

  Basis Set: AUG-CC-PVTZ
    Blend: AUG-CC-PVTZ
  Basis Set: (AUG-CC-PVTZ AUX)
    Blend: AUG-CC-PVTZ-JKFIT
	 Reference Energy          =    -235.4476330950535896 [Eh]
	 Singles Energy            =      -0.0000000000000000 [Eh]
	 Same-Spin Energy          =      -0.2552379063519783 [Eh]
	 Opposite-Spin Energy      =      -0.9539304100406649 [Eh]
	 Correlation Energy        =      -1.2091683163926432 [Eh]
	 Total Energy              =    -236.6568014114462244 [Eh]

	 ================> DF-SCS-MP2 Energies <==================
	-----------------------------------------------------------
	 SCS Same-Spin Scale       =       0.3333333333333333 [-]
	 SCS Opposite-Spin Scale   =       1.2000000000000000 [-]
	 SCS Same-Spin Energy      =      -0.0850793021173261 [Eh]
	 SCS Opposite-Spin Energy  =      -1.1447164920487978 [Eh]
	 SCS Correlation Energy    =      -1.2297957941661239 [Eh]
	 SCS Total Energy          =    -236.6774288892197262 [Eh]
	-----------------------------------------------------------

  Dipole Moment: [D]
     X:    -0.0535      Y:     0.0340      Z:     0.0023     Total:     0.0634

*** Psi4 exiting successfully. Buy a developer a beer!
