                               Psi4 1.4a3.dev225

  ==> Input File <==

--------------------------------------------------------------------------
#psi4
#
memory 32 gb

molecule  {
0 1
  C        0.4325650     0.0000100    -0.0000020
  C       -0.8840673     0.8352769    -0.0000547
  C        0.5185540    -0.8790830     1.2499350
  C        1.6124760     0.9760580    -0.0001380
  C        0.5184830    -0.8793570    -1.2497460
  C       -2.1754120     0.0349770     0.0000010
  H       -0.8502370     1.4847800     0.8779110
  H       -0.8502460     1.4846590    -0.8781100
  H       -0.2707110    -1.6364310     1.2681610
  H        0.4320040    -0.2740170     2.1596200
  H        1.4805750    -1.4021870     1.2834330
  H        1.5875310     1.6192780    -0.8867600
  H        1.5875470     1.6195060     0.8863170
  H        2.5658350     0.4362190    -0.0000780
  H       -0.2707460    -1.6367490    -1.2677310
  H        1.4805270    -1.4024220    -1.2832170
  H        0.4318210    -0.2745040    -2.1595630
  H       -2.2660690    -0.6006200     0.8847210
  H       -3.0286490     0.7201330     0.0000090
  H       -2.2661130    -0.6006550    -0.8846890
units angstrom
no_reorient  #important for SAPT in psi4, default
symmetry c1  #important for SAPT in psi4, default
}

set PROPERTIES_ORIGIN ["COM"]
properties('MP2/aug-cc-pvtz', properties = ['dipole'])
--------------------------------------------------------------------------

    Molecular point group: c1
  Charge       = 0
  Multiplicity = 1
  Basis Set: AUG-CC-PVTZ
    Blend: AUG-CC-PVTZ
  Basis Set: (AUG-CC-PVTZ AUX)
    Blend: AUG-CC-PVTZ-JKFIT

    Orbital Energies [Eh]
    ---------------------

    Doubly Occupied:

       1A    -11.227949     2A    -11.213259     3A    -11.208521
       4A    -11.206790     5A    -11.206783     6A    -11.206757
       7A     -1.107471     8A     -0.997886     9A     -0.926649
      10A     -0.926285    11A     -0.847440    12A     -0.721228
      13A     -0.623285    14A     -0.623063    15A     -0.595808
      16A     -0.581301    17A     -0.549924    18A     -0.529971
      19A     -0.523669    20A     -0.508005    21A     -0.501881
      22A     -0.484850    23A     -0.448996    24A     -0.446366
      25A     -0.432359

  @DF-RHF Final Energy:  -235.44752665084107

   => Energetics <=

    Nuclear Repulsion Energy =            266.2665892080174785
    One-Electron Energy =                -844.1352432091777018
    Two-Electron Energy =                 342.4211273503191251
    Total Energy =                       -235.4475266508410414
  Basis Set: (AUG-CC-PVTZ AUX)
    Blend: AUG-CC-PVTZ-RI
    Molecular point group: c1

    Geometry (in Angstrom), charge = 0, multiplicity = 1:

       Center              X                  Y                   Z               Mass
    ------------   -----------------  -----------------  -----------------  -----------------
         C            0.432188741999    -0.006817927085    -0.000001625916    12.000000000000
         C           -0.884443558001     0.828448972915    -0.000054325916    12.000000000000
         C            0.518177741999    -0.885910927085     1.249935374084    12.000000000000
         C            1.612099741999     0.969230072915    -0.000137625916    12.000000000000
         C            0.518106741999    -0.886184927085    -1.249745625916    12.000000000000
         C           -2.175788258001     0.028149072915     0.000001374084    12.000000000000
         H           -0.850613258001     1.477952072915     0.877911374084     1.007825032230
         H           -0.850622258001     1.477831072915    -0.878109625916     1.007825032230
         H           -0.271087258001    -1.643258927085     1.268161374084     1.007825032230
         H            0.431627741999    -0.280844927085     2.159620374084     1.007825032230
         H            1.480198741999    -1.409014927085     1.283433374084     1.007825032230
         H            1.587154741999     1.612450072915    -0.886759625916     1.007825032230
         H            1.587170741999     1.612678072915     0.886317374084     1.007825032230
         H            2.565458741999     0.429391072915    -0.000077625916     1.007825032230
         H           -0.271122258001    -1.643576927085    -1.267730625916     1.007825032230
         H            1.480150741999    -1.409249927085    -1.283216625916     1.007825032230
         H            0.431444741999    -0.281331927085    -2.159562625916     1.007825032230
         H           -2.266445258001    -0.607447927085     0.884721374084     1.007825032230
         H           -3.029025258001     0.713305072915     0.000009374084     1.007825032230
         H           -2.266489258001    -0.607482927085    -0.884688625916     1.007825032230

  Basis Set: AUG-CC-PVTZ
    Blend: AUG-CC-PVTZ
  Basis Set: (AUG-CC-PVTZ AUX)
    Blend: AUG-CC-PVTZ-JKFIT
	 Reference Energy          =    -235.4475266508410698 [Eh]
	 Singles Energy            =      -0.0000000000000000 [Eh]
	 Same-Spin Energy          =      -0.2553152307901198 [Eh]
	 Opposite-Spin Energy      =      -0.9539676444198415 [Eh]
	 Correlation Energy        =      -1.2092828752099614 [Eh]
	 Total Energy              =    -236.6568095260510347 [Eh]

	 ================> DF-SCS-MP2 Energies <==================
	-----------------------------------------------------------
	 SCS Same-Spin Scale       =       0.3333333333333333 [-]
	 SCS Opposite-Spin Scale   =       1.2000000000000000 [-]
	 SCS Same-Spin Energy      =      -0.0851050769300399 [Eh]
	 SCS Opposite-Spin Energy  =      -1.1447611733038097 [Eh]
	 SCS Correlation Energy    =      -1.2298662502338495 [Eh]
	 SCS Total Energy          =    -236.6773929010749100 [Eh]
	-----------------------------------------------------------

  Dipole Moment: [D]
     X:    -0.0613      Y:     0.0358      Z:    -0.0000     Total:     0.0710

*** Psi4 exiting successfully. Buy a developer a beer!
