                               Psi4 1.3.2 release

  ==> Input File <==

--------------------------------------------------------------------------
#psi4
#
memory 32 gb

molecule  {
0 1
  C       -0.4401821     0.0124471     0.0225500
  C        0.8671890     0.8245510    -0.0008470
  C       -0.5186390    -0.8803510    -1.2490450
  C       -1.6124710     0.9760830    -0.0007580
  C       -0.5183990    -0.8781140     1.2506300
  C        2.1754120     0.0349960    -0.0000500
  H        0.8502280     1.4838230    -0.8795210
  H        0.8502290     1.4855890     0.8765000
  H        0.2706380    -1.6377050    -1.2666100
  H       -0.4322060    -0.2762080    -2.1593560
  H       -1.4806460    -1.4035230    -1.2819340
  H       -1.5874350     1.6202330     0.8851840
  H       -1.5876340     1.6186070    -0.8878840
  H       -2.5658430     0.4362680    -0.0001590
  H        0.2708010    -1.6355150     1.2692820
  H       -1.4804630    -1.4011040     1.2847180
  H       -0.4316200    -0.2723440     2.1598230
  H        2.2659520    -0.6017660    -0.8839470
  H        3.0286720     0.7201300    -0.0010770
  H        2.2662480    -0.5994780     0.8854570
units angstrom
no_reorient  #important for SAPT in psi4, default
symmetry c1  #important for SAPT in psi4, default
}

set PROPERTIES_ORIGIN ["COM"]
properties('MP2/aug-cc-pvtz', properties = ['dipole'])
--------------------------------------------------------------------------

    Molecular point group: c1
  Charge       = 0
  Multiplicity = 1
  Basis Set: AUG-CC-PVTZ
    Blend: AUG-CC-PVTZ
  Basis Set: (AUG-CC-PVTZ AUX)
    Blend: AUG-CC-PVTZ-JKFIT

    Orbital Energies [Eh]
    ---------------------

    Doubly Occupied:

       1A    -11.227372     2A    -11.213854     3A    -11.209161
       4A    -11.207066     5A    -11.206880     6A    -11.206755
       7A     -1.109688     8A     -0.996224     9A     -0.928893
      10A     -0.924544    11A     -0.849150    12A     -0.721260
      13A     -0.623951    14A     -0.622669    15A     -0.596279
      16A     -0.581305    17A     -0.550074    18A     -0.529832
      19A     -0.523058    20A     -0.508131    21A     -0.500124
      22A     -0.483628    23A     -0.451483    24A     -0.444394
      25A     -0.434784

  @DF-RHF Final Energy:  -235.44697748106643

   => Energetics <=

    Nuclear Repulsion Energy =            266.4786261237551912
    One-Electron Energy =                -844.5500868249635005
    Two-Electron Energy =                 342.6244832201418262
    Total Energy =                       -235.4469774810664262
  Basis Set: (AUG-CC-PVTZ AUX)
    Blend: AUG-CC-PVTZ-RI
    Molecular point group: c1

    Geometry (in Angstrom), charge = 0, multiplicity = 1:

       Center              X                  Y                   Z               Mass
    ------------   -----------------  -----------------  -----------------  -----------------
         C           -0.436392668005     0.005377857835     0.019411675351    12.000000000000
         C            0.870978431995     0.817481757835    -0.003985324649    12.000000000000
         C           -0.514849568005    -0.887420242165    -1.252183324649    12.000000000000
         C           -1.608681568005     0.969013757835    -0.003896324649    12.000000000000
         C           -0.514609568005    -0.885183242165     1.247491675351    12.000000000000
         C            2.179201431995     0.027926757835    -0.003188324649    12.000000000000
         H            0.854017431995     1.476753757835    -0.882659324649     1.007825032230
         H            0.854018431995     1.478519757835     0.873361675351     1.007825032230
         H            0.274427431995    -1.644774242165    -1.269748324649     1.007825032230
         H           -0.428416568005    -0.283277242165    -2.162494324649     1.007825032230
         H           -1.476856568005    -1.410592242165    -1.285072324649     1.007825032230
         H           -1.583645568005     1.613163757835     0.882045675351     1.007825032230
         H           -1.583844568005     1.611537757835    -0.891022324649     1.007825032230
         H           -2.562053568005     0.429198757835    -0.003297324649     1.007825032230
         H            0.274590431995    -1.642584242165     1.266143675351     1.007825032230
         H           -1.476673568005    -1.408173242165     1.281579675351     1.007825032230
         H           -0.427830568005    -0.279413242165     2.156684675351     1.007825032230
         H            2.269741431995    -0.608835242165    -0.887085324649     1.007825032230
         H            3.032461431995     0.713060757835    -0.004215324649     1.007825032230
         H            2.270037431995    -0.606547242165     0.882318675351     1.007825032230

  Basis Set: AUG-CC-PVTZ
    Blend: AUG-CC-PVTZ
  Basis Set: (AUG-CC-PVTZ AUX)
    Blend: AUG-CC-PVTZ-JKFIT
	 Reference Energy          =    -235.4469774810664262 [Eh]
	 Singles Energy            =      -0.0000000000000000 [Eh]
	 Same-Spin Energy          =      -0.2554206503085851 [Eh]
	 Opposite-Spin Energy      =      -0.9541161527946352 [Eh]
	 Correlation Energy        =      -1.2095368031032203 [Eh]
	 Total Energy              =    -236.6565142841696456 [Eh]

	 ================> DF-SCS-MP2 Energies <==================
	-----------------------------------------------------------
	 SCS Same-Spin Scale       =       0.3333333333333333 [-]
	 SCS Opposite-Spin Scale   =       1.2000000000000000 [-]
	 SCS Same-Spin Energy      =      -0.0851402167695284 [Eh]
	 SCS Opposite-Spin Energy  =      -1.1449393833535622 [Eh]
	 SCS Correlation Energy    =      -1.2300796001230905 [Eh]
	 SCS Total Energy          =    -236.6770570811895027 [Eh]
	-----------------------------------------------------------

  Dipole Moment: [D]
     X:     0.0510      Y:     0.0365      Z:     0.0112     Total:     0.0637

*** Psi4 exiting successfully. Buy a developer a beer!
