                               Psi4 1.3.2 release

  ==> Input File <==

--------------------------------------------------------------------------
#psi4
#
memory 32 gb

molecule  {
0 1
  C       -0.4605962     0.0512570     0.0901598
  C        0.8671890     0.8245510    -0.0008470
  C       -0.5186390    -0.8803510    -1.2490450
  C       -1.6124710     0.9760830    -0.0007580
  C       -0.5183990    -0.8781140     1.2506300
  C        2.1754120     0.0349960    -0.0000500
  H        0.8502280     1.4838230    -0.8795210
  H        0.8502290     1.4855890     0.8765000
  H        0.2706380    -1.6377050    -1.2666100
  H       -0.4322060    -0.2762080    -2.1593560
  H       -1.4806460    -1.4035230    -1.2819340
  H       -1.5874350     1.6202330     0.8851840
  H       -1.5876340     1.6186070    -0.8878840
  H       -2.5658430     0.4362680    -0.0001590
  H        0.2708010    -1.6355150     1.2692820
  H       -1.4804630    -1.4011040     1.2847180
  H       -0.4316200    -0.2723440     2.1598230
  H        2.2659520    -0.6017660    -0.8839470
  H        3.0286720     0.7201300    -0.0010770
  H        2.2662480    -0.5994780     0.8854570
units angstrom
no_reorient  #important for SAPT in psi4, default
symmetry c1  #important for SAPT in psi4, default
}

set PROPERTIES_ORIGIN ["COM"]
properties('MP2/aug-cc-pvtz', properties = ['dipole'])
--------------------------------------------------------------------------

    Molecular point group: c1
  Charge       = 0
  Multiplicity = 1
  Basis Set: AUG-CC-PVTZ
    Blend: AUG-CC-PVTZ
  Basis Set: (AUG-CC-PVTZ AUX)
    Blend: AUG-CC-PVTZ-JKFIT

    Orbital Energies [Eh]
    ---------------------

    Doubly Occupied:

       1A    -11.228774     2A    -11.214542     3A    -11.210165
       4A    -11.207193     5A    -11.206813     6A    -11.206710
       7A     -1.111648     8A     -0.997858     9A     -0.935694
      10A     -0.917244    11A     -0.850728    12A     -0.720887
      13A     -0.625184    14A     -0.623201    15A     -0.596898
      16A     -0.582233    17A     -0.550732    18A     -0.532663
      19A     -0.520516    20A     -0.509322    21A     -0.501431
      22A     -0.483279    23A     -0.466118    24A     -0.447918
      25A     -0.410164

  @DF-RHF Final Energy:  -235.43672718120294

   => Energetics <=

    Nuclear Repulsion Energy =            266.4193409592456305
    One-Electron Energy =                -844.3963078070504480
    Two-Electron Energy =                 342.5402396666018490
    Total Energy =                       -235.4367271812029117
  Basis Set: (AUG-CC-PVTZ AUX)
    Blend: AUG-CC-PVTZ-RI
    Molecular point group: c1

    Geometry (in Angstrom), charge = 0, multiplicity = 1:

       Center              X                  Y                   Z               Mass
    ------------   -----------------  -----------------  -----------------  -----------------
         C           -0.453961912833     0.038779312459     0.077599551816    12.000000000000
         C            0.873823287167     0.812073312459    -0.013407248184    12.000000000000
         C           -0.512004712833    -0.892828687541    -1.261605248184    12.000000000000
         C           -1.605836712833     0.963605312459    -0.013318248184    12.000000000000
         C           -0.511764712833    -0.890591687541     1.238069751816    12.000000000000
         C            2.182046287167     0.022518312459    -0.012610248184    12.000000000000
         H            0.856862287167     1.471345312459    -0.892081248184     1.007825032230
         H            0.856863287167     1.473111312459     0.863939751816     1.007825032230
         H            0.277272287167    -1.650182687541    -1.279170248184     1.007825032230
         H           -0.425571712833    -0.288685687541    -2.171916248184     1.007825032230
         H           -1.474011712833    -1.416000687541    -1.294494248184     1.007825032230
         H           -1.580800712833     1.607755312459     0.872623751816     1.007825032230
         H           -1.580999712833     1.606129312459    -0.900444248184     1.007825032230
         H           -2.559208712833     0.423790312459    -0.012719248184     1.007825032230
         H            0.277435287167    -1.647992687541     1.256721751816     1.007825032230
         H           -1.473828712833    -1.413581687541     1.272157751816     1.007825032230
         H           -0.424985712833    -0.284821687541     2.147262751816     1.007825032230
         H            2.272586287167    -0.614243687541    -0.896507248184     1.007825032230
         H            3.035306287167     0.707652312459    -0.013637248184     1.007825032230
         H            2.272882287167    -0.611955687541     0.872896751816     1.007825032230

  Basis Set: AUG-CC-PVTZ
    Blend: AUG-CC-PVTZ
  Basis Set: (AUG-CC-PVTZ AUX)
    Blend: AUG-CC-PVTZ-JKFIT
	 Reference Energy          =    -235.4367271812029401 [Eh]
	 Singles Energy            =      -0.0000000000000000 [Eh]
	 Same-Spin Energy          =      -0.2558757647596825 [Eh]
	 Opposite-Spin Energy      =      -0.9549394365550922 [Eh]
	 Correlation Energy        =      -1.2108152013147748 [Eh]
	 Total Energy              =    -236.6475423825177131 [Eh]

	 ================> DF-SCS-MP2 Energies <==================
	-----------------------------------------------------------
	 SCS Same-Spin Scale       =       0.3333333333333333 [-]
	 SCS Opposite-Spin Scale   =       1.2000000000000000 [-]
	 SCS Same-Spin Energy      =      -0.0852919215865608 [Eh]
	 SCS Opposite-Spin Energy  =      -1.1459273238661105 [Eh]
	 SCS Correlation Energy    =      -1.2312192454526714 [Eh]
	 SCS Total Energy          =    -236.6679464266556181 [Eh]
	-----------------------------------------------------------

  Dipole Moment: [D]
     X:     0.0483      Y:     0.0548      Z:     0.0500     Total:     0.0885

*** Psi4 exiting successfully. Buy a developer a beer!
