                               Psi4 1.3.2 release

  ==> Input File <==

--------------------------------------------------------------------------
#psi4
#
memory 32 gb

molecule  {
0 1
  C       -0.4325780     0.0000000    -0.0000100
  C        0.8671890     0.8245510    -0.0008470
  C       -0.5186390    -0.8803510    -1.2490450
  C       -1.6124710     0.9760830    -0.0007580
  C       -0.5183990    -0.8781140     1.2506300
  C        2.1754120     0.0349960    -0.0000500
  H        0.8502280     1.4838230    -0.8795210
  H        0.8502290     1.4855890     0.8765000
  H        0.2706380    -1.6377050    -1.2666100
  H       -0.4322060    -0.2762080    -2.1593560
  H       -1.4806460    -1.4035230    -1.2819340
  H       -1.5874350     1.6202330     0.8851840
  H       -1.5876340     1.6186070    -0.8878840
  H       -2.5658430     0.4362680    -0.0001590
  H        0.2708010    -1.6355150     1.2692820
  H       -1.5682780    -1.4488413     1.2878295
  H       -0.4316200    -0.2723440     2.1598230
  H        2.2659520    -0.6017660    -0.8839470
  H        3.0286720     0.7201300    -0.0010770
  H        2.2662480    -0.5994780     0.8854570
units angstrom
no_reorient  #important for SAPT in psi4, default
symmetry c1  #important for SAPT in psi4, default
}

set PROPERTIES_ORIGIN ["COM"]
properties('MP2/aug-cc-pvtz', properties = ['dipole'])
--------------------------------------------------------------------------

    Molecular point group: c1
  Charge       = 0
  Multiplicity = 1
  Basis Set: AUG-CC-PVTZ
    Blend: AUG-CC-PVTZ
  Basis Set: (AUG-CC-PVTZ AUX)
    Blend: AUG-CC-PVTZ-JKFIT

    Orbital Energies [Eh]
    ---------------------

    Doubly Occupied:

       1A    -11.228467     2A    -11.219080     3A    -11.215045
       4A    -11.209697     5A    -11.207040     6A    -11.206930
       7A     -1.109536     8A     -0.996045     9A     -0.926870
      10A     -0.920966    11A     -0.848823    12A     -0.720274
      13A     -0.624028    14A     -0.619303    15A     -0.597200
      16A     -0.581383    17A     -0.550450    18A     -0.528617
      19A     -0.514268    20A     -0.506753    21A     -0.498162
      22A     -0.484430    23A     -0.448944    24A     -0.445596
      25A     -0.436890

  @DF-RHF Final Energy:  -235.44126324573602

   => Energetics <=

    Nuclear Repulsion Energy =            266.0809149791385835
    One-Electron Energy =                -843.7547644985953639
    Two-Electron Energy =                 342.2325862737207558
    Total Energy =                       -235.4412632457360246
  Basis Set: (AUG-CC-PVTZ AUX)
    Blend: AUG-CC-PVTZ-RI
    Molecular point group: c1

    Geometry (in Angstrom), charge = 0, multiplicity = 1:

       Center              X                  Y                   Z               Mass
    ------------   -----------------  -----------------  -----------------  -----------------
         C           -0.428820469749    -0.004775930391    -0.000040839463    12.000000000000
         C            0.870946530251     0.819775069609    -0.000877839463    12.000000000000
         C           -0.514881469749    -0.885126930391    -1.249075839463    12.000000000000
         C           -1.608713469749     0.971307069609    -0.000788839463    12.000000000000
         C           -0.514641469749    -0.882889930391     1.250599160537    12.000000000000
         C            2.179169530251     0.030220069609    -0.000080839463    12.000000000000
         H            0.853985530251     1.479047069609    -0.879551839463     1.007825032230
         H            0.853986530251     1.480813069609     0.876469160537     1.007825032230
         H            0.274395530251    -1.642480930391    -1.266640839463     1.007825032230
         H           -0.428448469749    -0.280983930391    -2.159386839463     1.007825032230
         H           -1.476888469749    -1.408298930391    -1.281964839463     1.007825032230
         H           -1.583677469749     1.615457069609     0.885153160537     1.007825032230
         H           -1.583876469749     1.613831069609    -0.887914839463     1.007825032230
         H           -2.562085469749     0.431492069609    -0.000189839463     1.007825032230
         H            0.274558530251    -1.640290930391     1.269251160537     1.007825032230
         H           -1.564520469749    -1.453617230391     1.287798660537     1.007825032230
         H           -0.427862469749    -0.277119930391     2.159792160537     1.007825032230
         H            2.269709530251    -0.606541930391    -0.883977839463     1.007825032230
         H            3.032429530251     0.715354069609    -0.001107839463     1.007825032230
         H            2.270005530251    -0.604253930391     0.885426160537     1.007825032230

  Basis Set: AUG-CC-PVTZ
    Blend: AUG-CC-PVTZ
  Basis Set: (AUG-CC-PVTZ AUX)
    Blend: AUG-CC-PVTZ-JKFIT
	 Reference Energy          =    -235.4412632457360246 [Eh]
	 Singles Energy            =      -0.0000000000000000 [Eh]
	 Same-Spin Energy          =      -0.2554094491724647 [Eh]
	 Opposite-Spin Energy      =      -0.9548256515726226 [Eh]
	 Correlation Energy        =      -1.2102351007450873 [Eh]
	 Total Energy              =    -236.6514983464811053 [Eh]

	 ================> DF-SCS-MP2 Energies <==================
	-----------------------------------------------------------
	 SCS Same-Spin Scale       =       0.3333333333333333 [-]
	 SCS Opposite-Spin Scale   =       1.2000000000000000 [-]
	 SCS Same-Spin Energy      =      -0.0851364830574882 [Eh]
	 SCS Opposite-Spin Energy  =      -1.1457907818871471 [Eh]
	 SCS Correlation Energy    =      -1.2309272649446354 [Eh]
	 SCS Total Energy          =    -236.6721905106806503 [Eh]
	-----------------------------------------------------------

  Dipole Moment: [D]
     X:     0.1235      Y:     0.0797      Z:    -0.0209     Total:     0.1485

*** Psi4 exiting successfully. Buy a developer a beer!
