                               Psi4 1.3.2 release

  ==> Input File <==

--------------------------------------------------------------------------
#psi4
#
memory 32 gb

molecule  {
0 1
  C       -0.3836994     0.0152738     0.0152094
  C        0.8671890     0.8245510    -0.0008470
  C       -0.5186390    -0.8803510    -1.2490450
  C       -1.6124710     0.9760830    -0.0007580
  C       -0.5183990    -0.8781140     1.2506300
  C        2.1754120     0.0349960    -0.0000500
  H        0.8502280     1.4838230    -0.8795210
  H        0.8502290     1.4855890     0.8765000
  H        0.2706380    -1.6377050    -1.2666100
  H       -0.4322060    -0.2762080    -2.1593560
  H       -1.4806460    -1.4035230    -1.2819340
  H       -1.5874350     1.6202330     0.8851840
  H       -1.5876340     1.6186070    -0.8878840
  H       -2.5658430     0.4362680    -0.0001590
  H        0.2708010    -1.6355150     1.2692820
  H       -1.4804630    -1.4011040     1.2847180
  H       -0.4316200    -0.2723440     2.1598230
  H        2.2659520    -0.6017660    -0.8839470
  H        3.0286720     0.7201300    -0.0010770
  H        2.2662480    -0.5994780     0.8854570
units angstrom
no_reorient  #important for SAPT in psi4, default
symmetry c1  #important for SAPT in psi4, default
}

set PROPERTIES_ORIGIN ["COM"]
properties('MP2/aug-cc-pvtz', properties = ['dipole'])
--------------------------------------------------------------------------

    Molecular point group: c1
  Charge       = 0
  Multiplicity = 1
  Basis Set: AUG-CC-PVTZ
    Blend: AUG-CC-PVTZ
  Basis Set: (AUG-CC-PVTZ AUX)
    Blend: AUG-CC-PVTZ-JKFIT

    Orbital Energies [Eh]
    ---------------------

    Doubly Occupied:

       1A    -11.227861     2A    -11.213028     3A    -11.209411
       4A    -11.207284     5A    -11.207270     6A    -11.207193
       7A     -1.111146     8A     -0.995632     9A     -0.925736
      10A     -0.922764    11A     -0.855235    12A     -0.721047
      13A     -0.625123    14A     -0.622780    15A     -0.595400
      16A     -0.578211    17A     -0.550187    18A     -0.531025
      19A     -0.524191    20A     -0.507164    21A     -0.499952
      22A     -0.485565    23A     -0.454730    24A     -0.441815
      25A     -0.432403

  @DF-RHF Final Energy:  -235.44479825825402

   => Energetics <=

    Nuclear Repulsion Energy =            266.6287034852216493
    One-Electron Energy =                -844.8426971652148723
    Two-Electron Energy =                 342.7691954217391981
    Total Energy =                       -235.4447982582540249
  Basis Set: (AUG-CC-PVTZ AUX)
    Blend: AUG-CC-PVTZ-RI
    Molecular point group: c1

    Geometry (in Angstrom), charge = 0, multiplicity = 1:

       Center              X                  Y                   Z               Mass
    ------------   -----------------  -----------------  -----------------  -----------------
         C           -0.387781248211     0.007810636373     0.013094042020    12.000000000000
         C            0.863107151789     0.817087836373    -0.002962357980    12.000000000000
         C           -0.522720848211    -0.887814163627    -1.251160357980    12.000000000000
         C           -1.616552848211     0.968619836373    -0.002873357980    12.000000000000
         C           -0.522480848211    -0.885577163627     1.248514642020    12.000000000000
         C            2.171330151789     0.027532836373    -0.002165357980    12.000000000000
         H            0.846146151789     1.476359836373    -0.881636357980     1.007825032230
         H            0.846147151789     1.478125836373     0.874384642020     1.007825032230
         H            0.266556151789    -1.645168163627    -1.268725357980     1.007825032230
         H           -0.436287848211    -0.283671163627    -2.161471357980     1.007825032230
         H           -1.484727848211    -1.410986163627    -1.284049357980     1.007825032230
         H           -1.591516848211     1.612769836373     0.883068642020     1.007825032230
         H           -1.591715848211     1.611143836373    -0.889999357980     1.007825032230
         H           -2.569924848211     0.428804836373    -0.002274357980     1.007825032230
         H            0.266719151789    -1.642978163627     1.267166642020     1.007825032230
         H           -1.484544848211    -1.408567163627     1.282602642020     1.007825032230
         H           -0.435701848211    -0.279807163627     2.157707642020     1.007825032230
         H            2.261870151789    -0.609229163627    -0.886062357980     1.007825032230
         H            3.024590151789     0.712666836373    -0.003192357980     1.007825032230
         H            2.262166151789    -0.606941163627     0.883341642020     1.007825032230

  Basis Set: AUG-CC-PVTZ
    Blend: AUG-CC-PVTZ
  Basis Set: (AUG-CC-PVTZ AUX)
    Blend: AUG-CC-PVTZ-JKFIT
	 Reference Energy          =    -235.4447982582540249 [Eh]
	 Singles Energy            =      -0.0000000000000000 [Eh]
	 Same-Spin Energy          =      -0.2554946764455721 [Eh]
	 Opposite-Spin Energy      =      -0.9543323634867807 [Eh]
	 Correlation Energy        =      -1.2098270399323527 [Eh]
	 Total Energy              =    -236.6546252981863745 [Eh]

	 ================> DF-SCS-MP2 Energies <==================
	-----------------------------------------------------------
	 SCS Same-Spin Scale       =       0.3333333333333333 [-]
	 SCS Opposite-Spin Scale   =       1.2000000000000000 [-]
	 SCS Same-Spin Energy      =      -0.0851648921485240 [Eh]
	 SCS Opposite-Spin Energy  =      -1.1451988361841368 [Eh]
	 SCS Correlation Energy    =      -1.2303637283326607 [Eh]
	 SCS Total Energy          =    -236.6751619865866871 [Eh]
	-----------------------------------------------------------

  Dipole Moment: [D]
     X:     0.0733      Y:     0.0307      Z:     0.0077     Total:     0.0798

*** Psi4 exiting successfully. Buy a developer a beer!
