                               Psi4 1.3.2 release

  ==> Input File <==

--------------------------------------------------------------------------
#psi4
#
memory 32 gb

molecule  {
0 1
  C       -0.4325780     0.0000000    -0.0000100
  C        0.8671890     0.8245510    -0.0008470
  C       -0.5308679    -1.0054689    -1.1497423
  C       -1.6124710     0.9760830    -0.0007580
  C       -0.5183990    -0.8781140     1.2506300
  C        2.1754120     0.0349960    -0.0000500
  H        0.8502280     1.4838230    -0.8795210
  H        0.8502290     1.4855890     0.8765000
  H        0.2706380    -1.6377050    -1.2666100
  H       -0.4322060    -0.2762080    -2.1593560
  H       -1.4806460    -1.4035230    -1.2819340
  H       -1.5874350     1.6202330     0.8851840
  H       -1.5876340     1.6186070    -0.8878840
  H       -2.5658430     0.4362680    -0.0001590
  H        0.2708010    -1.6355150     1.2692820
  H       -1.4804630    -1.4011040     1.2847180
  H       -0.4316200    -0.2723440     2.1598230
  H        2.2659520    -0.6017660    -0.8839470
  H        3.0286720     0.7201300    -0.0010770
  H        2.2662480    -0.5994780     0.8854570
units angstrom
no_reorient  #important for SAPT in psi4, default
symmetry c1  #important for SAPT in psi4, default
}

set PROPERTIES_ORIGIN ["COM"]
properties('MP2/aug-cc-pvtz', properties = ['dipole'])
--------------------------------------------------------------------------

    Molecular point group: c1
  Charge       = 0
  Multiplicity = 1
  Basis Set: AUG-CC-PVTZ
    Blend: AUG-CC-PVTZ
  Basis Set: (AUG-CC-PVTZ AUX)
    Blend: AUG-CC-PVTZ-JKFIT

    Orbital Energies [Eh]
    ---------------------

    Doubly Occupied:

       1A    -11.229224     2A    -11.215650     3A    -11.211584
       4A    -11.210173     5A    -11.208784     6A    -11.205338
       7A     -1.110919     8A     -0.998023     9A     -0.932842
      10A     -0.922859    11A     -0.850351    12A     -0.724357
      13A     -0.636514    14A     -0.623925    15A     -0.589938
      16A     -0.584144    17A     -0.553124    18A     -0.537349
      19A     -0.527787    20A     -0.504214    21A     -0.501244
      22A     -0.472040    23A     -0.455083    24A     -0.443850
      25A     -0.423096

  @DF-RHF Final Energy:  -235.42415051088096

   => Energetics <=

    Nuclear Repulsion Energy =            266.5219528593120799
    One-Electron Energy =                -844.5473856100900321
    Two-Electron Energy =                 342.6012822398970457
    Total Energy =                       -235.4241505108809633
  Basis Set: (AUG-CC-PVTZ AUX)
    Blend: AUG-CC-PVTZ-RI
    Molecular point group: c1

    Geometry (in Angstrom), charge = 0, multiplicity = 1:

       Center              X                  Y                   Z               Mass
    ------------   -----------------  -----------------  -----------------  -----------------
         C           -0.428144068066     0.012101453668    -0.013842985058    12.000000000000
         C            0.871622931934     0.836652453668    -0.014679985058    12.000000000000
         C           -0.526433968066    -0.993367446332    -1.163575285058    12.000000000000
         C           -1.608037068066     0.988184453668    -0.014590985058    12.000000000000
         C           -0.513965068066    -0.866012546332     1.236797014942    12.000000000000
         C            2.179845931934     0.047097453668    -0.013882985058    12.000000000000
         H            0.854661931934     1.495924453668    -0.893353985058     1.007825032230
         H            0.854662931934     1.497690453668     0.862667014942     1.007825032230
         H            0.275071931934    -1.625603546332    -1.280442985058     1.007825032230
         H           -0.427772068066    -0.264106546332    -2.173188985058     1.007825032230
         H           -1.476212068066    -1.391421546332    -1.295766985058     1.007825032230
         H           -1.583001068066     1.632334453668     0.871351014942     1.007825032230
         H           -1.583200068066     1.630708453668    -0.901716985058     1.007825032230
         H           -2.561409068066     0.448369453668    -0.013991985058     1.007825032230
         H            0.275234931934    -1.623413546332     1.255449014942     1.007825032230
         H           -1.476029068066    -1.389002546332     1.270885014942     1.007825032230
         H           -0.427186068066    -0.260242546332     2.145990014942     1.007825032230
         H            2.270385931934    -0.589664546332    -0.897779985058     1.007825032230
         H            3.033105931934     0.732231453668    -0.014909985058     1.007825032230
         H            2.270681931934    -0.587376546332     0.871624014942     1.007825032230

  Basis Set: AUG-CC-PVTZ
    Blend: AUG-CC-PVTZ
  Basis Set: (AUG-CC-PVTZ AUX)
    Blend: AUG-CC-PVTZ-JKFIT
	 Reference Energy          =    -235.4241505108809633 [Eh]
	 Singles Energy            =      -0.0000000000000000 [Eh]
	 Same-Spin Energy          =      -0.2557966005590130 [Eh]
	 Opposite-Spin Energy      =      -0.9552912991252360 [Eh]
	 Correlation Energy        =      -1.2110878996842489 [Eh]
	 Total Energy              =    -236.6352384105652220 [Eh]

	 ================> DF-SCS-MP2 Energies <==================
	-----------------------------------------------------------
	 SCS Same-Spin Scale       =       0.3333333333333333 [-]
	 SCS Opposite-Spin Scale   =       1.2000000000000000 [-]
	 SCS Same-Spin Energy      =      -0.0852655335196710 [Eh]
	 SCS Opposite-Spin Energy  =      -1.1463495589502832 [Eh]
	 SCS Correlation Energy    =      -1.2316150924699543 [Eh]
	 SCS Total Energy          =    -236.6557656033509147 [Eh]
	-----------------------------------------------------------

  Dipole Moment: [D]
     X:     0.0536      Y:     0.0102      Z:     0.0884     Total:     0.1038

*** Psi4 exiting successfully. Buy a developer a beer!
