                               Psi4 1.3.2 release

  ==> Input File <==

--------------------------------------------------------------------------
#psi4
#
memory 32 gb

molecule  {
0 1
  C       -0.5608925     0.0778122     0.0560802
  C        0.8671890     0.8245510    -0.0008470
  C       -0.5186390    -0.8803510    -1.2490450
  C       -1.6124710     0.9760830    -0.0007580
  C       -0.5183990    -0.8781140     1.2506300
  C        2.1754120     0.0349960    -0.0000500
  H        0.8502280     1.4838230    -0.8795210
  H        0.8502290     1.4855890     0.8765000
  H        0.2706380    -1.6377050    -1.2666100
  H       -0.4322060    -0.2762080    -2.1593560
  H       -1.4806460    -1.4035230    -1.2819340
  H       -1.5874350     1.6202330     0.8851840
  H       -1.5876340     1.6186070    -0.8878840
  H       -2.5658430     0.4362680    -0.0001590
  H        0.2708010    -1.6355150     1.2692820
  H       -1.4804630    -1.4011040     1.2847180
  H       -0.4316200    -0.2723440     2.1598230
  H        2.2659520    -0.6017660    -0.8839470
  H        3.0286720     0.7201300    -0.0010770
  H        2.2662480    -0.5994780     0.8854570
units angstrom
no_reorient  #important for SAPT in psi4, default
symmetry c1  #important for SAPT in psi4, default
}

set PROPERTIES_ORIGIN ["COM"]
properties('MP2/aug-cc-pvtz', properties = ['dipole'])
--------------------------------------------------------------------------

    Molecular point group: c1
  Charge       = 0
  Multiplicity = 1
  Basis Set: AUG-CC-PVTZ
    Blend: AUG-CC-PVTZ
  Basis Set: (AUG-CC-PVTZ AUX)
    Blend: AUG-CC-PVTZ-JKFIT

    Orbital Energies [Eh]
    ---------------------

    Doubly Occupied:

       1A    -11.229511     2A    -11.215213     3A    -11.210532
       4A    -11.208677     5A    -11.207872     6A    -11.204040
       7A     -1.114772     8A     -1.000054     9A     -0.939998
      10A     -0.919246    11A     -0.843042    12A     -0.721545
      13A     -0.625633    14A     -0.623295    15A     -0.598572
      16A     -0.588291    17A     -0.551498    18A     -0.529462
      19A     -0.520022    20A     -0.512460    21A     -0.506751
      22A     -0.484883    23A     -0.478481    24A     -0.428343
      25A     -0.401425

  @DF-RHF Final Energy:  -235.41939875459511

   => Energetics <=

    Nuclear Repulsion Energy =            266.2010646061455077
    One-Electron Energy =                -843.9136953655981870
    Two-Electron Energy =                 342.2932320048575434
    Total Energy =                       -235.4193987545950790
  Basis Set: (AUG-CC-PVTZ AUX)
    Blend: AUG-CC-PVTZ-RI
    Molecular point group: c1

    Geometry (in Angstrom), charge = 0, multiplicity = 1:

       Center              X                  Y                   Z               Mass
    ------------   -----------------  -----------------  -----------------  -----------------
         C           -0.540281184806     0.061633849776     0.048269195051    12.000000000000
         C            0.887800315194     0.808372649776    -0.008658004949    12.000000000000
         C           -0.498027684806    -0.896529350224    -1.256856004949    12.000000000000
         C           -1.591859684806     0.959904649776    -0.008569004949    12.000000000000
         C           -0.497787684806    -0.894292350224     1.242818995051    12.000000000000
         C            2.196023315194     0.018817649776    -0.007861004949    12.000000000000
         H            0.870839315194     1.467644649776    -0.887332004949     1.007825032230
         H            0.870840315194     1.469410649776     0.868688995051     1.007825032230
         H            0.291249315194    -1.653883350224    -1.274421004949     1.007825032230
         H           -0.411594684806    -0.292386350224    -2.167167004949     1.007825032230
         H           -1.460034684806    -1.419701350224    -1.289745004949     1.007825032230
         H           -1.566823684806     1.604054649776     0.877372995051     1.007825032230
         H           -1.567022684806     1.602428649776    -0.895695004949     1.007825032230
         H           -2.545231684806     0.420089649776    -0.007970004949     1.007825032230
         H            0.291412315194    -1.651693350224     1.261470995051     1.007825032230
         H           -1.459851684806    -1.417282350224     1.276906995051     1.007825032230
         H           -0.411008684806    -0.288522350224     2.152011995051     1.007825032230
         H            2.286563315194    -0.617944350224    -0.891758004949     1.007825032230
         H            3.049283315194     0.703951649776    -0.008888004949     1.007825032230
         H            2.286859315194    -0.615656350224     0.877645995051     1.007825032230

  Basis Set: AUG-CC-PVTZ
    Blend: AUG-CC-PVTZ
  Basis Set: (AUG-CC-PVTZ AUX)
    Blend: AUG-CC-PVTZ-JKFIT
	 Reference Energy          =    -235.4193987545951074 [Eh]
	 Singles Energy            =      -0.0000000000000000 [Eh]
	 Same-Spin Energy          =      -0.2566421289417629 [Eh]
	 Opposite-Spin Energy      =      -0.9561463208456631 [Eh]
	 Correlation Energy        =      -1.2127884497874259 [Eh]
	 Total Energy              =    -236.6321872043825465 [Eh]

	 ================> DF-SCS-MP2 Energies <==================
	-----------------------------------------------------------
	 SCS Same-Spin Scale       =       0.3333333333333333 [-]
	 SCS Opposite-Spin Scale   =       1.2000000000000000 [-]
	 SCS Same-Spin Energy      =      -0.0855473763139210 [Eh]
	 SCS Opposite-Spin Energy  =      -1.1473755850147958 [Eh]
	 SCS Correlation Energy    =      -1.2329229613287167 [Eh]
	 SCS Total Energy          =    -236.6523217159238186 [Eh]
	-----------------------------------------------------------

  Dipole Moment: [D]
     X:     0.0134      Y:     0.0690      Z:     0.0328     Total:     0.0776

*** Psi4 exiting successfully. Buy a developer a beer!
