                               Psi4 1.3.2 release

  ==> Input File <==

--------------------------------------------------------------------------
#psi4
#
memory 32 gb

molecule  {
0 1
  C       -0.5181033     0.0529987     0.0358959
  C        0.8671890     0.8245510    -0.0008470
  C       -0.5186390    -0.8803510    -1.2490450
  C       -1.6124710     0.9760830    -0.0007580
  C       -0.5183990    -0.8781140     1.2506300
  C        2.1754120     0.0349960    -0.0000500
  H        0.8502280     1.4838230    -0.8795210
  H        0.8502290     1.4855890     0.8765000
  H        0.2706380    -1.6377050    -1.2666100
  H       -0.4322060    -0.2762080    -2.1593560
  H       -1.4806460    -1.4035230    -1.2819340
  H       -1.5874350     1.6202330     0.8851840
  H       -1.5876340     1.6186070    -0.8878840
  H       -2.5658430     0.4362680    -0.0001590
  H        0.2708010    -1.6355150     1.2692820
  H       -1.4804630    -1.4011040     1.2847180
  H       -0.4316200    -0.2723440     2.1598230
  H        2.2659520    -0.6017660    -0.8839470
  H        3.0286720     0.7201300    -0.0010770
  H        2.2662480    -0.5994780     0.8854570
units angstrom
no_reorient  #important for SAPT in psi4, default
symmetry c1  #important for SAPT in psi4, default
}

set PROPERTIES_ORIGIN ["COM"]
properties('MP2/aug-cc-pvtz', properties = ['dipole'])
--------------------------------------------------------------------------

    Molecular point group: c1
  Charge       = 0
  Multiplicity = 1
  Basis Set: AUG-CC-PVTZ
    Blend: AUG-CC-PVTZ
  Basis Set: (AUG-CC-PVTZ AUX)
    Blend: AUG-CC-PVTZ-JKFIT

    Orbital Energies [Eh]
    ---------------------

    Doubly Occupied:

       1A    -11.228244     2A    -11.214607     3A    -11.209985
       4A    -11.207693     5A    -11.207524     6A    -11.205194
       7A     -1.111458     8A     -0.998259     9A     -0.935564
      10A     -0.921829    11A     -0.845086    12A     -0.721221
      13A     -0.624678    14A     -0.622425    15A     -0.597433
      16A     -0.586019    17A     -0.550857    18A     -0.529037
      19A     -0.521082    20A     -0.509818    21A     -0.503351
      22A     -0.480912    23A     -0.473970    24A     -0.435483
      25A     -0.415036

  @DF-RHF Final Energy:  -235.43548111788849

   => Energetics <=

    Nuclear Repulsion Energy =            266.2909981054274908
    One-Electron Energy =                -844.1394333989624101
    Two-Electron Energy =                 342.4129541756465187
    Total Energy =                       -235.4354811178884574
  Basis Set: (AUG-CC-PVTZ AUX)
    Blend: AUG-CC-PVTZ-RI
    Molecular point group: c1

    Geometry (in Angstrom), charge = 0, multiplicity = 1:

       Center              X                  Y                   Z               Mass
    ------------   -----------------  -----------------  -----------------  -----------------
         C           -0.503454974943     0.040278293737     0.030897725901    12.000000000000
         C            0.881837325057     0.811830593737    -0.005845174099    12.000000000000
         C           -0.503990674943    -0.893071406263    -1.254043174099    12.000000000000
         C           -1.597822674943     0.963362593737    -0.005756174099    12.000000000000
         C           -0.503750674943    -0.890834406263     1.245631825901    12.000000000000
         C            2.190060325057     0.022275593737    -0.005048174099    12.000000000000
         H            0.864876325057     1.471102593737    -0.884519174099     1.007825032230
         H            0.864877325057     1.472868593737     0.871501825901     1.007825032230
         H            0.285286325057    -1.650425406263    -1.271608174099     1.007825032230
         H           -0.417557674943    -0.288928406263    -2.164354174099     1.007825032230
         H           -1.465997674943    -1.416243406263    -1.286932174099     1.007825032230
         H           -1.572786674943     1.607512593737     0.880185825901     1.007825032230
         H           -1.572985674943     1.605886593737    -0.892882174099     1.007825032230
         H           -2.551194674943     0.423547593737    -0.005157174099     1.007825032230
         H            0.285449325057    -1.648235406263     1.264283825901     1.007825032230
         H           -1.465814674943    -1.413824406263     1.279719825901     1.007825032230
         H           -0.416971674943    -0.285064406263     2.154824825901     1.007825032230
         H            2.280600325057    -0.614486406263    -0.888945174099     1.007825032230
         H            3.043320325057     0.707409593737    -0.006075174099     1.007825032230
         H            2.280896325057    -0.612198406263     0.880458825901     1.007825032230

  Basis Set: AUG-CC-PVTZ
    Blend: AUG-CC-PVTZ
  Basis Set: (AUG-CC-PVTZ AUX)
    Blend: AUG-CC-PVTZ-JKFIT
	 Reference Energy          =    -235.4354811178884859 [Eh]
	 Singles Energy            =      -0.0000000000000000 [Eh]
	 Same-Spin Energy          =      -0.2559464942733904 [Eh]
	 Opposite-Spin Energy      =      -0.9549631605566873 [Eh]
	 Correlation Energy        =      -1.2109096548300777 [Eh]
	 Total Energy              =    -236.6463907727185756 [Eh]

	 ================> DF-SCS-MP2 Energies <==================
	-----------------------------------------------------------
	 SCS Same-Spin Scale       =       0.3333333333333333 [-]
	 SCS Opposite-Spin Scale   =       1.2000000000000000 [-]
	 SCS Same-Spin Energy      =      -0.0853154980911301 [Eh]
	 SCS Opposite-Spin Energy  =      -1.1459557926680246 [Eh]
	 SCS Correlation Energy    =      -1.2312712907591548 [Eh]
	 SCS Total Energy          =    -236.6667524086476533 [Eh]
	-----------------------------------------------------------

  Dipole Moment: [D]
     X:     0.0265      Y:     0.0561      Z:     0.0194     Total:     0.0650

*** Psi4 exiting successfully. Buy a developer a beer!
