                               Psi4 1.3.2 release

  ==> Input File <==

--------------------------------------------------------------------------
#psi4
#
memory 32 gb

molecule  {
0 1
  C       -0.5116468     0.1403796    -0.0001520
  C        0.8671890     0.8245510    -0.0008470
  C       -0.5186390    -0.8803510    -1.2490450
  C       -1.6124710     0.9760830    -0.0007580
  C       -0.5183990    -0.8781140     1.2506300
  C        2.1754120     0.0349960    -0.0000500
  H        0.8502280     1.4838230    -0.8795210
  H        0.8502290     1.4855890     0.8765000
  H        0.2706380    -1.6377050    -1.2666100
  H       -0.4322060    -0.2762080    -2.1593560
  H       -1.4806460    -1.4035230    -1.2819340
  H       -1.5874350     1.6202330     0.8851840
  H       -1.5876340     1.6186070    -0.8878840
  H       -2.5658430     0.4362680    -0.0001590
  H        0.2708010    -1.6355150     1.2692820
  H       -1.4804630    -1.4011040     1.2847180
  H       -0.4316200    -0.2723440     2.1598230
  H        2.2659520    -0.6017660    -0.8839470
  H        3.0286720     0.7201300    -0.0010770
  H        2.2662480    -0.5994780     0.8854570
units angstrom
no_reorient  #important for SAPT in psi4, default
symmetry c1  #important for SAPT in psi4, default
}

set PROPERTIES_ORIGIN ["COM"]
properties('MP2/aug-cc-pvtz', properties = ['dipole'])
--------------------------------------------------------------------------

    Molecular point group: c1
  Charge       = 0
  Multiplicity = 1
  Basis Set: AUG-CC-PVTZ
    Blend: AUG-CC-PVTZ
  Basis Set: (AUG-CC-PVTZ AUX)
    Blend: AUG-CC-PVTZ-JKFIT

    Orbital Energies [Eh]
    ---------------------

    Doubly Occupied:

       1A    -11.229986     2A    -11.215288     3A    -11.212524
       4A    -11.208135     5A    -11.208122     6A    -11.204022
       7A     -1.115976     8A     -1.002282     9A     -0.933903
      10A     -0.915408    11A     -0.853962    12A     -0.719488
      13A     -0.626890    14A     -0.623464    15A     -0.598933
      16A     -0.587378    17A     -0.551201    18A     -0.528903
      19A     -0.519643    20A     -0.509256    21A     -0.504640
      22A     -0.488515    23A     -0.481491    24A     -0.421906
      25A     -0.407919

  @DF-RHF Final Energy:  -235.41866407807038

   => Energetics <=

    Nuclear Repulsion Energy =            266.3274545343724071
    One-Electron Energy =                -844.1537670732570859
    Two-Electron Energy =                 342.4076484608142437
    Total Energy =                       -235.4186640780703783
  Basis Set: (AUG-CC-PVTZ AUX)
    Blend: AUG-CC-PVTZ-RI
    Molecular point group: c1

    Geometry (in Angstrom), charge = 0, multiplicity = 1:

       Center              X                  Y                   Z               Mass
    ------------   -----------------  -----------------  -----------------  -----------------
         C           -0.497898235766     0.115482021815    -0.000126633763    12.000000000000
         C            0.880937564234     0.799653421815    -0.000821633763    12.000000000000
         C           -0.504890435766    -0.905248578185    -1.249019633763    12.000000000000
         C           -1.598722435766     0.951185421815    -0.000732633763    12.000000000000
         C           -0.504650435766    -0.903011578185     1.250655366237    12.000000000000
         C            2.189160564234     0.010098421815    -0.000024633763    12.000000000000
         H            0.863976564234     1.458925421815    -0.879495633763     1.007825032230
         H            0.863977564234     1.460691421815     0.876525366237     1.007825032230
         H            0.284386564234    -1.662602578185    -1.266584633763     1.007825032230
         H           -0.418457435766    -0.301105578185    -2.159330633763     1.007825032230
         H           -1.466897435766    -1.428420578185    -1.281908633763     1.007825032230
         H           -1.573686435766     1.595335421815     0.885209366237     1.007825032230
         H           -1.573885435766     1.593709421815    -0.887858633763     1.007825032230
         H           -2.552094435766     0.411370421815    -0.000133633763     1.007825032230
         H            0.284549564234    -1.660412578185     1.269307366237     1.007825032230
         H           -1.466714435766    -1.426001578185     1.284743366237     1.007825032230
         H           -0.417871435766    -0.297241578185     2.159848366237     1.007825032230
         H            2.279700564234    -0.626663578185    -0.883921633763     1.007825032230
         H            3.042420564234     0.695232421815    -0.001051633763     1.007825032230
         H            2.279996564234    -0.624375578185     0.885482366237     1.007825032230

  Basis Set: AUG-CC-PVTZ
    Blend: AUG-CC-PVTZ
  Basis Set: (AUG-CC-PVTZ AUX)
    Blend: AUG-CC-PVTZ-JKFIT
	 Reference Energy          =    -235.4186640780703783 [Eh]
	 Singles Energy            =      -0.0000000000000000 [Eh]
	 Same-Spin Energy          =      -0.2566072810832212 [Eh]
	 Opposite-Spin Energy      =      -0.9561810687019486 [Eh]
	 Correlation Energy        =      -1.2127883497851699 [Eh]
	 Total Energy              =    -236.6314524278555496 [Eh]

	 ================> DF-SCS-MP2 Energies <==================
	-----------------------------------------------------------
	 SCS Same-Spin Scale       =       0.3333333333333333 [-]
	 SCS Opposite-Spin Scale   =       1.2000000000000000 [-]
	 SCS Same-Spin Energy      =      -0.0855357603610737 [Eh]
	 SCS Opposite-Spin Energy  =      -1.1474172824423383 [Eh]
	 SCS Correlation Energy    =      -1.2329530428034121 [Eh]
	 SCS Total Energy          =    -236.6516171208737944 [Eh]
	-----------------------------------------------------------

  Dipole Moment: [D]
     X:     0.0401      Y:     0.0882      Z:    -0.0001     Total:     0.0969

*** Psi4 exiting successfully. Buy a developer a beer!
