                               Psi4 1.3.2 release

  ==> Input File <==

--------------------------------------------------------------------------
#psi4
#
memory 32 gb

molecule  {
0 1
  C       -0.4325780     0.0000000    -0.0000100
  C        0.8671890     0.8245510    -0.0008470
  C       -0.5186390    -0.8803510    -1.2490450
  C       -1.6124710     0.9760830    -0.0007580
  C       -0.5183990    -0.8781140     1.2506300
  C        2.1754120     0.0349960    -0.0000500
  H        0.8502280     1.4838230    -0.8795210
  H        0.8502290     1.4855890     0.8765000
  H        0.2706380    -1.6377050    -1.2666100
  H       -0.4322060    -0.2762080    -2.1593560
  H       -1.4806460    -1.4035230    -1.2819340
  H       -1.5874350     1.6202330     0.8851840
  H       -1.5876340     1.6186070    -0.8878840
  H       -2.5658430     0.4362680    -0.0001590
  H        0.2708010    -1.6355150     1.2692820
  H       -1.4627856    -1.4324303     1.2172372
  H       -0.4316200    -0.2723440     2.1598230
  H        2.2659520    -0.6017660    -0.8839470
  H        3.0286720     0.7201300    -0.0010770
  H        2.2662480    -0.5994780     0.8854570
units angstrom
no_reorient  #important for SAPT in psi4, default
symmetry c1  #important for SAPT in psi4, default
}

set PROPERTIES_ORIGIN ["COM"]
properties('MP2/aug-cc-pvtz', properties = ['dipole'])
--------------------------------------------------------------------------

    Molecular point group: c1
  Charge       = 0
  Multiplicity = 1
  Basis Set: AUG-CC-PVTZ
    Blend: AUG-CC-PVTZ
  Basis Set: (AUG-CC-PVTZ AUX)
    Blend: AUG-CC-PVTZ-JKFIT

    Orbital Energies [Eh]
    ---------------------

    Doubly Occupied:

       1A    -11.226887     2A    -11.213573     3A    -11.208744
       4A    -11.207102     5A    -11.207071     6A    -11.206831
       7A     -1.109697     8A     -0.995975     9A     -0.926936
      10A     -0.926728    11A     -0.848627    12A     -0.720716
      13A     -0.624614    14A     -0.622599    15A     -0.596781
      16A     -0.580589    17A     -0.550483    18A     -0.530223
      19A     -0.524415    20A     -0.506753    21A     -0.499371
      22A     -0.484669    23A     -0.447526    24A     -0.444827
      25A     -0.437365

  @DF-RHF Final Energy:  -235.44706072562988

   => Energetics <=

    Nuclear Repulsion Energy =            266.5618615995875302
    One-Electron Energy =                -844.7196358351890240
    Two-Electron Energy =                 342.7107135099715833
    Total Energy =                       -235.4470607256298536
  Basis Set: (AUG-CC-PVTZ AUX)
    Blend: AUG-CC-PVTZ-RI
    Molecular point group: c1

    Geometry (in Angstrom), charge = 0, multiplicity = 1:

       Center              X                  Y                   Z               Mass
    ------------   -----------------  -----------------  -----------------  -----------------
         C           -0.430055151394    -0.004968004516     0.000785371876    12.000000000000
         C            0.869711848606     0.819582995484    -0.000051628124    12.000000000000
         C           -0.516116151394    -0.885319004516    -1.248249628124    12.000000000000
         C           -1.609948151394     0.971114995484     0.000037371876    12.000000000000
         C           -0.515876151394    -0.883082004516     1.251425371876    12.000000000000
         C            2.177934848606     0.030027995484     0.000745371876    12.000000000000
         H            0.852750848606     1.478854995484    -0.878725628124     1.007825032230
         H            0.852751848606     1.480620995484     0.877295371876     1.007825032230
         H            0.273160848606    -1.642673004516    -1.265814628124     1.007825032230
         H           -0.429683151394    -0.281176004516    -2.158560628124     1.007825032230
         H           -1.478123151394    -1.408491004516    -1.281138628124     1.007825032230
         H           -1.584912151394     1.615264995484     0.885979371876     1.007825032230
         H           -1.585111151394     1.613638995484    -0.887088628124     1.007825032230
         H           -2.563320151394     0.431299995484     0.000636371876     1.007825032230
         H            0.273323848606    -1.640483004516     1.270077371876     1.007825032230
         H           -1.460262751394    -1.437398304516     1.218032571876     1.007825032230
         H           -0.429097151394    -0.277312004516     2.160618371876     1.007825032230
         H            2.268474848606    -0.606734004516    -0.883151628124     1.007825032230
         H            3.031194848606     0.715161995484    -0.000281628124     1.007825032230
         H            2.268770848606    -0.604446004516     0.886252371876     1.007825032230

  Basis Set: AUG-CC-PVTZ
    Blend: AUG-CC-PVTZ
  Basis Set: (AUG-CC-PVTZ AUX)
    Blend: AUG-CC-PVTZ-JKFIT
	 Reference Energy          =    -235.4470607256298820 [Eh]
	 Singles Energy            =      -0.0000000000000000 [Eh]
	 Same-Spin Energy          =      -0.2554629423411209 [Eh]
	 Opposite-Spin Energy      =      -0.9541787488370015 [Eh]
	 Correlation Energy        =      -1.2096416911781223 [Eh]
	 Total Energy              =    -236.6567024168080025 [Eh]

	 ================> DF-SCS-MP2 Energies <==================
	-----------------------------------------------------------
	 SCS Same-Spin Scale       =       0.3333333333333333 [-]
	 SCS Opposite-Spin Scale   =       1.2000000000000000 [-]
	 SCS Same-Spin Energy      =      -0.0851543141137070 [Eh]
	 SCS Opposite-Spin Energy  =      -1.1450144986044017 [Eh]
	 SCS Correlation Energy    =      -1.2301688127181087 [Eh]
	 SCS Total Energy          =    -236.6772295383480014 [Eh]
	-----------------------------------------------------------

  Dipole Moment: [D]
     X:     0.0633      Y:     0.0237      Z:    -0.0158     Total:     0.0695

*** Psi4 exiting successfully. Buy a developer a beer!
