                               Psi4 1.3.2 release

  ==> Input File <==

--------------------------------------------------------------------------
#psi4
#
memory 32 gb

molecule  {
0 1
  C       -0.4325780     0.0000000    -0.0000100
  C        0.8360194     0.8665899    -0.0946771
  C       -0.5186390    -0.8803510    -1.2490450
  C       -1.6124710     0.9760830    -0.0007580
  C       -0.5183990    -0.8781140     1.2506300
  C        2.1754120     0.0349960    -0.0000500
  H        0.8502280     1.4838230    -0.8795210
  H        0.8502290     1.4855890     0.8765000
  H        0.2706380    -1.6377050    -1.2666100
  H       -0.4322060    -0.2762080    -2.1593560
  H       -1.4806460    -1.4035230    -1.2819340
  H       -1.5874350     1.6202330     0.8851840
  H       -1.5876340     1.6186070    -0.8878840
  H       -2.5658430     0.4362680    -0.0001590
  H        0.2708010    -1.6355150     1.2692820
  H       -1.4804630    -1.4011040     1.2847180
  H       -0.4316200    -0.2723440     2.1598230
  H        2.2659520    -0.6017660    -0.8839470
  H        3.0286720     0.7201300    -0.0010770
  H        2.2662480    -0.5994780     0.8854570
units angstrom
no_reorient  #important for SAPT in psi4, default
symmetry c1  #important for SAPT in psi4, default
}

set PROPERTIES_ORIGIN ["COM"]
properties('MP2/aug-cc-pvtz', properties = ['dipole'])
--------------------------------------------------------------------------

    Molecular point group: c1
  Charge       = 0
  Multiplicity = 1
  Basis Set: AUG-CC-PVTZ
    Blend: AUG-CC-PVTZ
  Basis Set: (AUG-CC-PVTZ AUX)
    Blend: AUG-CC-PVTZ-JKFIT

    Orbital Energies [Eh]
    ---------------------

    Doubly Occupied:

       1A    -11.227751     2A    -11.213200     3A    -11.210371
       4A    -11.208966     5A    -11.206287     6A    -11.206031
       7A     -1.109040     8A     -0.988930     9A     -0.928225
      10A     -0.926532    11A     -0.852721    12A     -0.726875
      13A     -0.629937    14A     -0.618476    15A     -0.595244
      16A     -0.579194    17A     -0.546979    18A     -0.529305
      19A     -0.523903    20A     -0.511532    21A     -0.504043
      22A     -0.480943    23A     -0.458174    24A     -0.434706
      25A     -0.431953

  @DF-RHF Final Energy:  -235.43437069864154

   => Energetics <=

    Nuclear Repulsion Energy =            266.1979008374446494
    One-Electron Energy =                -843.9659015208992514
    Two-Electron Energy =                 342.3336299848130579
    Total Energy =                       -235.4343706986415441
  Basis Set: (AUG-CC-PVTZ AUX)
    Blend: AUG-CC-PVTZ-RI
    Molecular point group: c1

    Geometry (in Angstrom), charge = 0, multiplicity = 1:

       Center              X                  Y                   Z               Mass
    ------------   -----------------  -----------------  -----------------  -----------------
         C           -0.425504542035    -0.011193077421     0.013071492928    12.000000000000
         C            0.843092857965     0.855396822579    -0.081595607072    12.000000000000
         C           -0.511565542035    -0.891544077421    -1.235963507072    12.000000000000
         C           -1.605397542035     0.964889922579     0.012323492928    12.000000000000
         C           -0.511325542035    -0.889307077421     1.263711492928    12.000000000000
         C            2.182485457965     0.023802922579     0.013031492928    12.000000000000
         H            0.857301457965     1.472629922579    -0.866439507072     1.007825032230
         H            0.857302457965     1.474395922579     0.889581492928     1.007825032230
         H            0.277711457965    -1.648898077421    -1.253528507072     1.007825032230
         H           -0.425132542035    -0.287401077421    -2.146274507072     1.007825032230
         H           -1.473572542035    -1.414716077421    -1.268852507072     1.007825032230
         H           -1.580361542035     1.609039922579     0.898265492928     1.007825032230
         H           -1.580560542035     1.607413922579    -0.874802507072     1.007825032230
         H           -2.558769542035     0.425074922579     0.012922492928     1.007825032230
         H            0.277874457965    -1.646708077421     1.282363492928     1.007825032230
         H           -1.473389542035    -1.412297077421     1.297799492928     1.007825032230
         H           -0.424546542035    -0.283537077421     2.172904492928     1.007825032230
         H            2.273025457965    -0.612959077421    -0.870865507072     1.007825032230
         H            3.035745457965     0.708936922579     0.012004492928     1.007825032230
         H            2.273321457965    -0.610671077421     0.898538492928     1.007825032230

  Basis Set: AUG-CC-PVTZ
    Blend: AUG-CC-PVTZ
  Basis Set: (AUG-CC-PVTZ AUX)
    Blend: AUG-CC-PVTZ-JKFIT
	 Reference Energy          =    -235.4343706986415441 [Eh]
	 Singles Energy            =      -0.0000000000000000 [Eh]
	 Same-Spin Energy          =      -0.2553273167874280 [Eh]
	 Opposite-Spin Energy      =      -0.9545094670156665 [Eh]
	 Correlation Energy        =      -1.2098367838030946 [Eh]
	 Total Energy              =    -236.6442074824446422 [Eh]

	 ================> DF-SCS-MP2 Energies <==================
	-----------------------------------------------------------
	 SCS Same-Spin Scale       =       0.3333333333333333 [-]
	 SCS Opposite-Spin Scale   =       1.2000000000000000 [-]
	 SCS Same-Spin Energy      =      -0.0851091055958093 [Eh]
	 SCS Opposite-Spin Energy  =      -1.1454113604187999 [Eh]
	 SCS Correlation Energy    =      -1.2305204660146092 [Eh]
	 SCS Total Energy          =    -236.6648911646561544 [Eh]
	-----------------------------------------------------------

  Dipole Moment: [D]
     X:     0.0322      Y:     0.0255      Z:    -0.0282     Total:     0.0498

*** Psi4 exiting successfully. Buy a developer a beer!
