                               Psi4 1.3.2 release

  ==> Input File <==

--------------------------------------------------------------------------
#psi4
#
memory 32 gb

molecule  {
0 1
  C       -0.4325780     0.0000000    -0.0000100
  C        0.8671890     0.8245510    -0.0008470
  C       -0.5186390    -0.8803510    -1.2490450
  C       -1.6124710     0.9760830    -0.0007580
  C       -0.5183990    -0.8781140     1.2506300
  C        2.1754120     0.0349960    -0.0000500
  H        0.8502280     1.4838230    -0.8795210
  H        0.8502290     1.4855890     0.8765000
  H        0.2706380    -1.6377050    -1.2666100
  H       -0.4322060    -0.2762080    -2.1593560
  H       -1.4806460    -1.4035230    -1.2819340
  H       -1.5874350     1.6202330     0.8851840
  H       -1.5876340     1.6186070    -0.8878840
  H       -2.5658430     0.4362680    -0.0001590
  H        0.2708010    -1.6355150     1.2692820
  H       -1.4764801    -1.4091806     1.2678505
  H       -0.4316200    -0.2723440     2.1598230
  H        2.2659520    -0.6017660    -0.8839470
  H        3.0286720     0.7201300    -0.0010770
  H        2.2662480    -0.5994780     0.8854570
units angstrom
no_reorient  #important for SAPT in psi4, default
symmetry c1  #important for SAPT in psi4, default
}

set PROPERTIES_ORIGIN ["COM"]
properties('MP2/aug-cc-pvtz', properties = ['dipole'])
--------------------------------------------------------------------------

    Molecular point group: c1
  Charge       = 0
  Multiplicity = 1
  Basis Set: AUG-CC-PVTZ
    Blend: AUG-CC-PVTZ
  Basis Set: (AUG-CC-PVTZ AUX)
    Blend: AUG-CC-PVTZ-JKFIT

    Orbital Energies [Eh]
    ---------------------

    Doubly Occupied:

       1A    -11.227177     2A    -11.213770     3A    -11.208847
       4A    -11.206978     5A    -11.206960     6A    -11.206851
       7A     -1.109564     8A     -0.995959     9A     -0.926921
      10A     -0.926690    11A     -0.848712    12A     -0.721291
      13A     -0.624110    14A     -0.622527    15A     -0.596427
      16A     -0.580729    17A     -0.550017    18A     -0.529763
      19A     -0.523883    20A     -0.507721    21A     -0.499667
      22A     -0.484286    23A     -0.447744    24A     -0.444855
      25A     -0.437959

  @DF-RHF Final Energy:  -235.44764394156294

   => Energetics <=

    Nuclear Repulsion Energy =            266.5127295401696870
    One-Electron Energy =                -844.6219333566060641
    Two-Electron Energy =                 342.6615598748733760
    Total Energy =                       -235.4476439415629443
  Basis Set: (AUG-CC-PVTZ AUX)
    Blend: AUG-CC-PVTZ-RI
    Molecular point group: c1

    Geometry (in Angstrom), charge = 0, multiplicity = 1:

       Center              X                  Y                   Z               Mass
    ------------   -----------------  -----------------  -----------------  -----------------
         C           -0.429894871148    -0.005240118696     0.000192994487    12.000000000000
         C            0.869872128852     0.819310881304    -0.000644005513    12.000000000000
         C           -0.515955871148    -0.885591118696    -1.248842005513    12.000000000000
         C           -1.609787871148     0.970842881304    -0.000555005513    12.000000000000
         C           -0.515715871148    -0.883354118696     1.250832994487    12.000000000000
         C            2.178095128852     0.029755881304     0.000152994487    12.000000000000
         H            0.852911128852     1.478582881304    -0.879318005513     1.007825032230
         H            0.852912128852     1.480348881304     0.876702994487     1.007825032230
         H            0.273321128852    -1.642945118696    -1.266407005513     1.007825032230
         H           -0.429522871148    -0.281448118696    -2.159153005513     1.007825032230
         H           -1.477962871148    -1.408763118696    -1.281731005513     1.007825032230
         H           -1.584751871148     1.614992881304     0.885386994487     1.007825032230
         H           -1.584950871148     1.613366881304    -0.887681005513     1.007825032230
         H           -2.563159871148     0.431027881304     0.000043994487     1.007825032230
         H            0.273484128852    -1.640755118696     1.269484994487     1.007825032230
         H           -1.473796971148    -1.414420718696     1.268053494487     1.007825032230
         H           -0.428936871148    -0.277584118696     2.160025994487     1.007825032230
         H            2.268635128852    -0.607006118696    -0.883744005513     1.007825032230
         H            3.031355128852     0.714889881304    -0.000874005513     1.007825032230
         H            2.268931128852    -0.604718118696     0.885659994487     1.007825032230

  Basis Set: AUG-CC-PVTZ
    Blend: AUG-CC-PVTZ
  Basis Set: (AUG-CC-PVTZ AUX)
    Blend: AUG-CC-PVTZ-JKFIT
	 Reference Energy          =    -235.4476439415629443 [Eh]
	 Singles Energy            =      -0.0000000000000000 [Eh]
	 Same-Spin Energy          =      -0.2554013365373453 [Eh]
	 Opposite-Spin Energy      =      -0.9540849939247553 [Eh]
	 Correlation Energy        =      -1.2094863304621006 [Eh]
	 Total Energy              =    -236.6571302720250571 [Eh]

	 ================> DF-SCS-MP2 Energies <==================
	-----------------------------------------------------------
	 SCS Same-Spin Scale       =       0.3333333333333333 [-]
	 SCS Opposite-Spin Scale   =       1.2000000000000000 [-]
	 SCS Same-Spin Energy      =      -0.0851337788457818 [Eh]
	 SCS Opposite-Spin Energy  =      -1.1449019927097064 [Eh]
	 SCS Correlation Energy    =      -1.2300357715554882 [Eh]
	 SCS Total Energy          =    -236.6776797131184367 [Eh]
	-----------------------------------------------------------

  Dipole Moment: [D]
     X:     0.0557      Y:     0.0295      Z:    -0.0041     Total:     0.0631

*** Psi4 exiting successfully. Buy a developer a beer!
