                               Psi4 1.3.2 release

  ==> Input File <==

--------------------------------------------------------------------------
#psi4
#
memory 32 gb

molecule  {
0 1
  C       -0.4325780     0.0000000    -0.0000100
  C        0.8671890     0.8245510    -0.0008470
  C       -0.5186390    -0.8803510    -1.2490450
  C       -1.6124710     0.9760830    -0.0007580
  C       -0.5183990    -0.8781140     1.2506300
  C        2.1893652     0.0599620     0.0449684
  H        0.8502280     1.4838230    -0.8795210
  H        0.8502290     1.4855890     0.8765000
  H        0.2706380    -1.6377050    -1.2666100
  H       -0.4322060    -0.2762080    -2.1593560
  H       -1.4806460    -1.4035230    -1.2819340
  H       -1.5874350     1.6202330     0.8851840
  H       -1.5876340     1.6186070    -0.8878840
  H       -2.5658430     0.4362680    -0.0001590
  H        0.2708010    -1.6355150     1.2692820
  H       -1.4804630    -1.4011040     1.2847180
  H       -0.4316200    -0.2723440     2.1598230
  H        2.2659520    -0.6017660    -0.8839470
  H        3.0286720     0.7201300    -0.0010770
  H        2.2662480    -0.5994780     0.8854570
units angstrom
no_reorient  #important for SAPT in psi4, default
symmetry c1  #important for SAPT in psi4, default
}

set PROPERTIES_ORIGIN ["COM"]
properties('MP2/aug-cc-pvtz', properties = ['dipole'])
--------------------------------------------------------------------------

    Molecular point group: c1
  Charge       = 0
  Multiplicity = 1
  Basis Set: AUG-CC-PVTZ
    Blend: AUG-CC-PVTZ
  Basis Set: (AUG-CC-PVTZ AUX)
    Blend: AUG-CC-PVTZ-JKFIT

    Orbital Energies [Eh]
    ---------------------

    Doubly Occupied:

       1A    -11.227899     2A    -11.213912     3A    -11.209330
       4A    -11.207293     5A    -11.207127     6A    -11.206728
       7A     -1.109480     8A     -0.996546     9A     -0.927143
      10A     -0.926628    11A     -0.849099    12A     -0.721591
      13A     -0.626052    14A     -0.620975    15A     -0.597034
      16A     -0.579089    17A     -0.553241    18A     -0.533780
      19A     -0.521603    20A     -0.508112    21A     -0.499870
      22A     -0.478813    23A     -0.448224    24A     -0.443540
      25A     -0.439418

  @DF-RHF Final Energy:  -235.44485943947794

   => Energetics <=

    Nuclear Repulsion Energy =            266.3449049469590477
    One-Electron Energy =                -844.2744703262158055
    Two-Electron Energy =                 342.4847059397787348
    Total Energy =                       -235.4448594394779661
  Basis Set: (AUG-CC-PVTZ AUX)
    Blend: AUG-CC-PVTZ-RI
    Molecular point group: c1

    Geometry (in Angstrom), charge = 0, multiplicity = 1:

       Center              X                  Y                   Z               Mass
    ------------   -----------------  -----------------  -----------------  -----------------
         C           -0.431792736517    -0.008813843074    -0.006278068082    12.000000000000
         C            0.867974263483     0.815737156926    -0.007115068082    12.000000000000
         C           -0.517853736517    -0.889164843074    -1.255313068082    12.000000000000
         C           -1.611685736517     0.967269156926    -0.007026068082    12.000000000000
         C           -0.517613736517    -0.886927843074     1.244361931918    12.000000000000
         C            2.190150463483     0.051148156926     0.038700331918    12.000000000000
         H            0.851013263483     1.475009156926    -0.885789068082     1.007825032230
         H            0.851014263483     1.476775156926     0.870231931918     1.007825032230
         H            0.271423263483    -1.646518843074    -1.272878068082     1.007825032230
         H           -0.431420736517    -0.285021843074    -2.165624068082     1.007825032230
         H           -1.479860736517    -1.412336843074    -1.288202068082     1.007825032230
         H           -1.586649736517     1.611419156926     0.878915931918     1.007825032230
         H           -1.586848736517     1.609793156926    -0.894152068082     1.007825032230
         H           -2.565057736517     0.427454156926    -0.006427068082     1.007825032230
         H            0.271586263483    -1.644328843074     1.263013931918     1.007825032230
         H           -1.479677736517    -1.409917843074     1.278449931918     1.007825032230
         H           -0.430834736517    -0.281157843074     2.153554931918     1.007825032230
         H            2.266737263483    -0.610579843074    -0.890215068082     1.007825032230
         H            3.029457263483     0.711316156926    -0.007345068082     1.007825032230
         H            2.267033263483    -0.608291843074     0.879188931918     1.007825032230

  Basis Set: AUG-CC-PVTZ
    Blend: AUG-CC-PVTZ
  Basis Set: (AUG-CC-PVTZ AUX)
    Blend: AUG-CC-PVTZ-JKFIT
	 Reference Energy          =    -235.4448594394779377 [Eh]
	 Singles Energy            =      -0.0000000000000000 [Eh]
	 Same-Spin Energy          =      -0.2553899078915441 [Eh]
	 Opposite-Spin Energy      =      -0.9541398692601929 [Eh]
	 Correlation Energy        =      -1.2095297771517370 [Eh]
	 Total Energy              =    -236.6543892166296814 [Eh]

	 ================> DF-SCS-MP2 Energies <==================
	-----------------------------------------------------------
	 SCS Same-Spin Scale       =       0.3333333333333333 [-]
	 SCS Opposite-Spin Scale   =       1.2000000000000000 [-]
	 SCS Same-Spin Energy      =      -0.0851299692971814 [Eh]
	 SCS Opposite-Spin Energy  =      -1.1449678431122314 [Eh]
	 SCS Correlation Energy    =      -1.2300978124094128 [Eh]
	 SCS Total Energy          =    -236.6749572518873492 [Eh]
	-----------------------------------------------------------

  Dipole Moment: [D]
     X:     0.0459      Y:     0.0427      Z:     0.0217     Total:     0.0663

*** Psi4 exiting successfully. Buy a developer a beer!
