                               Psi4 1.3.2 release

  ==> Input File <==

--------------------------------------------------------------------------
#psi4
#
memory 32 gb

molecule  {
0 1
  C       -0.4325780     0.0000000    -0.0000100
  C        0.8671890     0.8245510    -0.0008470
  C       -0.5186390    -0.8803510    -1.2490450
  C       -1.6124710     0.9760830    -0.0007580
  C       -0.5183990    -0.8781140     1.2506300
  C        2.1240670    -0.0340146    -0.1348917
  H        0.8502280     1.4838230    -0.8795210
  H        0.8502290     1.4855890     0.8765000
  H        0.2706380    -1.6377050    -1.2666100
  H       -0.4322060    -0.2762080    -2.1593560
  H       -1.4806460    -1.4035230    -1.2819340
  H       -1.5874350     1.6202330     0.8851840
  H       -1.5876340     1.6186070    -0.8878840
  H       -2.5658430     0.4362680    -0.0001590
  H        0.2708010    -1.6355150     1.2692820
  H       -1.4804630    -1.4011040     1.2847180
  H       -0.4316200    -0.2723440     2.1598230
  H        2.2659520    -0.6017660    -0.8839470
  H        3.0286720     0.7201300    -0.0010770
  H        2.2662480    -0.5994780     0.8854570
units angstrom
no_reorient  #important for SAPT in psi4, default
symmetry c1  #important for SAPT in psi4, default
}

set PROPERTIES_ORIGIN ["COM"]
properties('MP2/aug-cc-pvtz', properties = ['dipole'])
--------------------------------------------------------------------------

    Molecular point group: c1
  Charge       = 0
  Multiplicity = 1
  Basis Set: AUG-CC-PVTZ
    Blend: AUG-CC-PVTZ
  Basis Set: (AUG-CC-PVTZ AUX)
    Blend: AUG-CC-PVTZ-JKFIT

    Orbital Energies [Eh]
    ---------------------

    Doubly Occupied:

       1A    -11.226158     2A    -11.216583     3A    -11.213354
       4A    -11.207822     5A    -11.206546     6A    -11.206238
       7A     -1.110805     8A     -0.997203     9A     -0.927739
      10A     -0.926376    11A     -0.854508    12A     -0.723922
      13A     -0.631042    14A     -0.620326    15A     -0.600798
      16A     -0.586662    17A     -0.549634    18A     -0.534176
      19A     -0.514387    20A     -0.508292    21A     -0.505663
      22A     -0.477071    23A     -0.451802    24A     -0.439147
      25A     -0.427004

  @DF-RHF Final Energy:  -235.41576197062659

   => Energetics <=

    Nuclear Repulsion Energy =            267.0320869657423941
    One-Electron Energy =                -845.5691811141401786
    Two-Electron Energy =                 343.1213321777711371
    Total Energy =                       -235.4157619706265905
  Basis Set: (AUG-CC-PVTZ AUX)
    Blend: AUG-CC-PVTZ-RI
    Molecular point group: c1

    Geometry (in Angstrom), charge = 0, multiplicity = 1:

       Center              X                  Y                   Z               Mass
    ------------   -----------------  -----------------  -----------------  -----------------
         C           -0.422692951465     0.004282488217     0.018786761414    12.000000000000
         C            0.877074048535     0.828833488217     0.017949761414    12.000000000000
         C           -0.508753951465    -0.876068511783    -1.230248238586    12.000000000000
         C           -1.602585951465     0.980365488217     0.018038761414    12.000000000000
         C           -0.508513951465    -0.873831511783     1.269426761414    12.000000000000
         C            2.133952048535    -0.029732111783    -0.116094938586    12.000000000000
         H            0.860113048535     1.488105488217    -0.860724238586     1.007825032230
         H            0.860114048535     1.489871488217     0.895296761414     1.007825032230
         H            0.280523048535    -1.633422511783    -1.247813238586     1.007825032230
         H           -0.422320951465    -0.271925511783    -2.140559238586     1.007825032230
         H           -1.470760951465    -1.399240511783    -1.263137238586     1.007825032230
         H           -1.577549951465     1.624515488217     0.903980761414     1.007825032230
         H           -1.577748951465     1.622889488217    -0.869087238586     1.007825032230
         H           -2.555957951465     0.440550488217     0.018637761414     1.007825032230
         H            0.280686048535    -1.631232511783     1.288078761414     1.007825032230
         H           -1.470577951465    -1.396821511783     1.303514761414     1.007825032230
         H           -0.421734951465    -0.268061511783     2.178619761414     1.007825032230
         H            2.275837048535    -0.597483511783    -0.865150238586     1.007825032230
         H            3.038557048535     0.724412488217     0.017719761414     1.007825032230
         H            2.276133048535    -0.595195511783     0.904253761414     1.007825032230

  Basis Set: AUG-CC-PVTZ
    Blend: AUG-CC-PVTZ
  Basis Set: (AUG-CC-PVTZ AUX)
    Blend: AUG-CC-PVTZ-JKFIT
	 Reference Energy          =    -235.4157619706265905 [Eh]
	 Singles Energy            =      -0.0000000000000000 [Eh]
	 Same-Spin Energy          =      -0.2559706338628064 [Eh]
	 Opposite-Spin Energy      =      -0.9556538849225553 [Eh]
	 Correlation Energy        =      -1.2116245187853618 [Eh]
	 Total Energy              =    -236.6273864894119470 [Eh]

	 ================> DF-SCS-MP2 Energies <==================
	-----------------------------------------------------------
	 SCS Same-Spin Scale       =       0.3333333333333333 [-]
	 SCS Opposite-Spin Scale   =       1.2000000000000000 [-]
	 SCS Same-Spin Energy      =      -0.0853235446209355 [Eh]
	 SCS Opposite-Spin Energy  =      -1.1467846619070663 [Eh]
	 SCS Correlation Energy    =      -1.2321082065280018 [Eh]
	 SCS Total Energy          =    -236.6478701771546014 [Eh]
	-----------------------------------------------------------

  Dipole Moment: [D]
     X:     0.0186      Y:     0.0352      Z:    -0.0361     Total:     0.0538

*** Psi4 exiting successfully. Buy a developer a beer!
