                               Psi4 1.3.2 release

  ==> Input File <==

--------------------------------------------------------------------------
#psi4
#
memory 32 gb

molecule  {
0 1
  C       -0.4325780     0.0000000    -0.0000100
  C        0.8671890     0.8245510    -0.0008470
  C       -0.5186390    -0.8803510    -1.2490450
  C       -1.6124710     0.9760830    -0.0007580
  C       -0.5183990    -0.8781140     1.2506300
  C        2.1754120     0.0349960    -0.0000500
  H        0.8471403     1.6038397    -1.0394786
  H        0.8502290     1.4855890     0.8765000
  H        0.2706380    -1.6377050    -1.2666100
  H       -0.4322060    -0.2762080    -2.1593560
  H       -1.4806460    -1.4035230    -1.2819340
  H       -1.5874350     1.6202330     0.8851840
  H       -1.5876340     1.6186070    -0.8878840
  H       -2.5658430     0.4362680    -0.0001590
  H        0.2708010    -1.6355150     1.2692820
  H       -1.4804630    -1.4011040     1.2847180
  H       -0.4316200    -0.2723440     2.1598230
  H        2.2659520    -0.6017660    -0.8839470
  H        3.0286720     0.7201300    -0.0010770
  H        2.2662480    -0.5994780     0.8854570
units angstrom
no_reorient  #important for SAPT in psi4, default
symmetry c1  #important for SAPT in psi4, default
}

set PROPERTIES_ORIGIN ["COM"]
properties('MP2/aug-cc-pvtz', properties = ['dipole'])
--------------------------------------------------------------------------

    Molecular point group: c1
  Charge       = 0
  Multiplicity = 1
  Basis Set: AUG-CC-PVTZ
    Blend: AUG-CC-PVTZ
  Basis Set: (AUG-CC-PVTZ AUX)
    Blend: AUG-CC-PVTZ-JKFIT

    Orbital Energies [Eh]
    ---------------------

    Doubly Occupied:

       1A    -11.237801     2A    -11.229945     3A    -11.211765
       4A    -11.209617     5A    -11.207107     6A    -11.206893
       7A     -1.109155     8A     -0.993960     9A     -0.928215
      10A     -0.926576    11A     -0.842916    12A     -0.716952
      13A     -0.625490    14A     -0.612169    15A     -0.597773
      16A     -0.579966    17A     -0.550728    18A     -0.530823
      19A     -0.524501    20A     -0.508175    21A     -0.499506
      22A     -0.474276    23A     -0.447261    24A     -0.443442
      25A     -0.432533

  @DF-RHF Final Energy:  -235.42823880925067

   => Energetics <=

    Nuclear Repulsion Energy =            265.6573418734662368
    One-Electron Energy =                -842.8760704657139513
    Two-Electron Energy =                 341.7904897829970992
    Total Energy =                       -235.4282388092506721
  Basis Set: (AUG-CC-PVTZ AUX)
    Blend: AUG-CC-PVTZ-RI
    Molecular point group: c1

    Geometry (in Angstrom), charge = 0, multiplicity = 1:

       Center              X                  Y                   Z               Mass
    ------------   -----------------  -----------------  -----------------  -----------------
         C           -0.429812116940    -0.006739320974     0.001867719113    12.000000000000
         C            0.869954883060     0.817811679026     0.001030719113    12.000000000000
         C           -0.515873116940    -0.887090320974    -1.247167280887    12.000000000000
         C           -1.609705116940     0.969343679026     0.001119719113    12.000000000000
         C           -0.515633116940    -0.884853320974     1.252507719113    12.000000000000
         C            2.178177883060     0.028256679026     0.001827719113    12.000000000000
         H            0.849906183060     1.597100379026    -1.037600880887     1.007825032230
         H            0.852994883060     1.478849679026     0.878377719113     1.007825032230
         H            0.273403883060    -1.644444320974    -1.264732280887     1.007825032230
         H           -0.429440116940    -0.282947320974    -2.157478280887     1.007825032230
         H           -1.477880116940    -1.410262320974    -1.280056280887     1.007825032230
         H           -1.584669116940     1.613493679026     0.887061719113     1.007825032230
         H           -1.584868116940     1.611867679026    -0.886006280887     1.007825032230
         H           -2.563077116940     0.429528679026     0.001718719113     1.007825032230
         H            0.273566883060    -1.642254320974     1.271159719113     1.007825032230
         H           -1.477697116940    -1.407843320974     1.286595719113     1.007825032230
         H           -0.428854116940    -0.279083320974     2.161700719113     1.007825032230
         H            2.268717883060    -0.608505320974    -0.882069280887     1.007825032230
         H            3.031437883060     0.713390679026     0.000800719113     1.007825032230
         H            2.269013883060    -0.606217320974     0.887334719113     1.007825032230

  Basis Set: AUG-CC-PVTZ
    Blend: AUG-CC-PVTZ
  Basis Set: (AUG-CC-PVTZ AUX)
    Blend: AUG-CC-PVTZ-JKFIT
	 Reference Energy          =    -235.4282388092506721 [Eh]
	 Singles Energy            =      -0.0000000000000000 [Eh]
	 Same-Spin Energy          =      -0.2555231733016059 [Eh]
	 Opposite-Spin Energy      =      -0.9558172500248021 [Eh]
	 Correlation Energy        =      -1.2113404233264080 [Eh]
	 Total Energy              =    -236.6395792325770913 [Eh]

	 ================> DF-SCS-MP2 Energies <==================
	-----------------------------------------------------------
	 SCS Same-Spin Scale       =       0.3333333333333333 [-]
	 SCS Opposite-Spin Scale   =       1.2000000000000000 [-]
	 SCS Same-Spin Energy      =      -0.0851743911005353 [Eh]
	 SCS Opposite-Spin Energy  =      -1.1469807000297625 [Eh]
	 SCS Correlation Energy    =      -1.2321550911302979 [Eh]
	 SCS Total Energy          =    -236.6603939003809671 [Eh]
	-----------------------------------------------------------

  Dipole Moment: [D]
     X:     0.0525      Y:    -0.1203      Z:     0.1457     Total:     0.1961

*** Psi4 exiting successfully. Buy a developer a beer!
