                               Psi4 1.3.2 release

  ==> Input File <==

--------------------------------------------------------------------------
#psi4
#
memory 32 gb

molecule  {
0 1
  C       -0.3052038    -0.0874330    -0.0423979
  C        0.8671890     0.8245510    -0.0008470
  C       -0.5186390    -0.8803510    -1.2490450
  C       -1.6124710     0.9760830    -0.0007580
  C       -0.5183990    -0.8781140     1.2506300
  C        2.1754120     0.0349960    -0.0000500
  H        0.8502280     1.4838230    -0.8795210
  H        0.8502290     1.4855890     0.8765000
  H        0.2706380    -1.6377050    -1.2666100
  H       -0.4322060    -0.2762080    -2.1593560
  H       -1.4806460    -1.4035230    -1.2819340
  H       -1.5874350     1.6202330     0.8851840
  H       -1.5876340     1.6186070    -0.8878840
  H       -2.5658430     0.4362680    -0.0001590
  H        0.2708010    -1.6355150     1.2692820
  H       -1.4804630    -1.4011040     1.2847180
  H       -0.4316200    -0.2723440     2.1598230
  H        2.2659520    -0.6017660    -0.8839470
  H        3.0286720     0.7201300    -0.0010770
  H        2.2662480    -0.5994780     0.8854570
units angstrom
no_reorient  #important for SAPT in psi4, default
symmetry c1  #important for SAPT in psi4, default
}

set PROPERTIES_ORIGIN ["COM"]
properties('MP2/aug-cc-pvtz', properties = ['dipole'])
--------------------------------------------------------------------------

    Molecular point group: c1
  Charge       = 0
  Multiplicity = 1
  Basis Set: AUG-CC-PVTZ
    Blend: AUG-CC-PVTZ
  Basis Set: (AUG-CC-PVTZ AUX)
    Blend: AUG-CC-PVTZ-JKFIT

    Orbital Energies [Eh]
    ---------------------

    Doubly Occupied:

       1A    -11.230754     2A    -11.214646     3A    -11.208807
       4A    -11.207748     5A    -11.207455     6A    -11.206267
       7A     -1.114528     8A     -0.997053     9A     -0.934688
      10A     -0.914280    11A     -0.852694    12A     -0.724600
      13A     -0.626094    14A     -0.624285    15A     -0.598267
      16A     -0.572716    17A     -0.550496    18A     -0.533860
      19A     -0.528045    20A     -0.507330    21A     -0.498307
      22A     -0.491849    23A     -0.469893    24A     -0.451285
      25A     -0.390951

  @DF-RHF Final Energy:  -235.42461561435235

   => Energetics <=

    Nuclear Repulsion Energy =            266.7997474736477557
    One-Electron Energy =                -845.1349309548144220
    Two-Electron Energy =                 342.9105678668144037
    Total Energy =                       -235.4246156143523194
  Basis Set: (AUG-CC-PVTZ AUX)
    Blend: AUG-CC-PVTZ-RI
    Molecular point group: c1

    Geometry (in Angstrom), charge = 0, multiplicity = 1:

       Center              X                  Y                   Z               Mass
    ------------   -----------------  -----------------  -----------------  -----------------
         C           -0.320224588144    -0.080583214674    -0.036485256482    12.000000000000
         C            0.852168211856     0.831400785326     0.005065643518    12.000000000000
         C           -0.533659788144    -0.873501214674    -1.243132356482    12.000000000000
         C           -1.627491788144     0.982932785326     0.005154643518    12.000000000000
         C           -0.533419788144    -0.871264214674     1.256542643518    12.000000000000
         C            2.160391211856     0.041845785326     0.005862643518    12.000000000000
         H            0.835207211856     1.490672785326    -0.873608356482     1.007825032230
         H            0.835208211856     1.492438785326     0.882412643518     1.007825032230
         H            0.255617211856    -1.630855214674    -1.260697356482     1.007825032230
         H           -0.447226788144    -0.269358214674    -2.153443356482     1.007825032230
         H           -1.495666788144    -1.396673214674    -1.276021356482     1.007825032230
         H           -1.602455788144     1.627082785326     0.891096643518     1.007825032230
         H           -1.602654788144     1.625456785326    -0.881971356482     1.007825032230
         H           -2.580863788144     0.443117785326     0.005753643518     1.007825032230
         H            0.255780211856    -1.628665214674     1.275194643518     1.007825032230
         H           -1.495483788144    -1.394254214674     1.290630643518     1.007825032230
         H           -0.446640788144    -0.265494214674     2.165735643518     1.007825032230
         H            2.250931211856    -0.594916214674    -0.878034356482     1.007825032230
         H            3.013651211856     0.726979785326     0.004835643518     1.007825032230
         H            2.251227211856    -0.592628214674     0.891369643518     1.007825032230

  Basis Set: AUG-CC-PVTZ
    Blend: AUG-CC-PVTZ
  Basis Set: (AUG-CC-PVTZ AUX)
    Blend: AUG-CC-PVTZ-JKFIT
	 Reference Energy          =    -235.4246156143523478 [Eh]
	 Singles Energy            =      -0.0000000000000000 [Eh]
	 Same-Spin Energy          =      -0.2564196301954670 [Eh]
	 Opposite-Spin Energy      =      -0.9561687716319770 [Eh]
	 Correlation Energy        =      -1.2125884018274440 [Eh]
	 Total Energy              =    -236.6372040161797941 [Eh]

	 ================> DF-SCS-MP2 Energies <==================
	-----------------------------------------------------------
	 SCS Same-Spin Scale       =       0.3333333333333333 [-]
	 SCS Opposite-Spin Scale   =       1.2000000000000000 [-]
	 SCS Same-Spin Energy      =      -0.0854732100651557 [Eh]
	 SCS Opposite-Spin Energy  =      -1.1474025259583724 [Eh]
	 SCS Correlation Energy    =      -1.2328757360235281 [Eh]
	 SCS Total Energy          =    -236.6574913503758637 [Eh]
	-----------------------------------------------------------

  Dipole Moment: [D]
     X:     0.1221      Y:    -0.0188      Z:    -0.0189     Total:     0.1250

*** Psi4 exiting successfully. Buy a developer a beer!
