                               Psi4 1.4a3.dev225

  ==> Input File <==

--------------------------------------------------------------------------
#psi4
#
memory 32 gb

molecule  {
0 1
  C        0.4325650     0.0000100    -0.0000020
  C       -0.8671790     0.8245630    -0.0000540
  C        0.5185540    -0.8790830     1.2499350
  C        1.6124760     0.9760580    -0.0001380
  C        0.5184830    -0.8793570    -1.2497460
  C       -2.1754120     0.0349770     0.0000010
  H       -0.8502370     1.4847800     0.8779110
  H       -0.8502460     1.4846590    -0.8781100
  H       -0.2707110    -1.6364310     1.2681610
  H        0.4320040    -0.2740170     2.1596200
  H        1.4805750    -1.4021870     1.2834330
  H        1.5875310     1.6192780    -0.8867600
  H        1.5875470     1.6195060     0.8863170
  H        2.5658350     0.4362190    -0.0000780
  H       -0.2707460    -1.6367490    -1.2677310
  H        1.4629644    -1.3928732    -1.2826060
  H        0.4318210    -0.2745040    -2.1595630
  H       -2.2660690    -0.6006200     0.8847210
  H       -3.0286490     0.7201330     0.0000090
  H       -2.2661130    -0.6006550    -0.8846890
units angstrom
no_reorient  #important for SAPT in psi4, default
symmetry c1  #important for SAPT in psi4, default
}

set PROPERTIES_ORIGIN ["COM"]
properties('MP2/aug-cc-pvtz', properties = ['dipole'])
--------------------------------------------------------------------------

    Molecular point group: c1
  Charge       = 0
  Multiplicity = 1
  Basis Set: AUG-CC-PVTZ
    Blend: AUG-CC-PVTZ
  Basis Set: (AUG-CC-PVTZ AUX)
    Blend: AUG-CC-PVTZ-JKFIT

    Orbital Energies [Eh]
    ---------------------

    Doubly Occupied:

       1A    -11.227070     2A    -11.213620     3A    -11.208736
       4A    -11.206921     5A    -11.206854     6A    -11.204424
       7A     -1.109595     8A     -0.995995     9A     -0.928410
      10A     -0.926694    11A     -0.848754    12A     -0.721842
      13A     -0.624625    14A     -0.622703    15A     -0.596201
      16A     -0.580689    17A     -0.549856    18A     -0.530614
      19A     -0.525172    20A     -0.508031    21A     -0.499816
      22A     -0.484034    23A     -0.447646    24A     -0.444734
      25A     -0.438260

  @DF-RHF Final Energy:  -235.44772561416340

   => Energetics <=

    Nuclear Repulsion Energy =            266.5868953679597553
    One-Electron Energy =                -844.7666512704523711
    Two-Electron Energy =                 342.7320302883292129
    Total Energy =                       -235.4477256141634030
  Basis Set: (AUG-CC-PVTZ AUX)
    Blend: AUG-CC-PVTZ-RI
    Molecular point group: c1

    Geometry (in Angstrom), charge = 0, multiplicity = 1:

       Center              X                  Y                   Z               Mass
    ------------   -----------------  -----------------  -----------------  -----------------
         C            0.430040785459    -0.005436625247    -0.000008874602    12.000000000000
         C           -0.869703214541     0.819116374753    -0.000060874602    12.000000000000
         C            0.516029785459    -0.884529625247     1.249928125398    12.000000000000
         C            1.609951785459     0.970611374753    -0.000144874602    12.000000000000
         C            0.515958785459    -0.884803625247    -1.249752874602    12.000000000000
         C           -2.177936214541     0.029530374753    -0.000005874602    12.000000000000
         H           -0.852761214541     1.479333374753     0.877904125398     1.007825032230
         H           -0.852770214541     1.479212374753    -0.878116874602     1.007825032230
         H           -0.273235214541    -1.641877625247     1.268154125398     1.007825032230
         H            0.429479785459    -0.279463625247     2.159613125398     1.007825032230
         H            1.478050785459    -1.407633625247     1.283426125398     1.007825032230
         H            1.585006785459     1.613831374753    -0.886766874602     1.007825032230
         H            1.585022785459     1.614059374753     0.886310125398     1.007825032230
         H            2.563310785459     0.430772374753    -0.000084874602     1.007825032230
         H           -0.273270214541    -1.642195625247    -1.267737874602     1.007825032230
         H            1.460440185459    -1.398319825247    -1.282612874602     1.007825032230
         H            0.429296785459    -0.279950625247    -2.159569874602     1.007825032230
         H           -2.268593214541    -0.606066625247     0.884714125398     1.007825032230
         H           -3.031173214541     0.714686374753     0.000002125398     1.007825032230
         H           -2.268637214541    -0.606101625247    -0.884695874602     1.007825032230

  Basis Set: AUG-CC-PVTZ
    Blend: AUG-CC-PVTZ
  Basis Set: (AUG-CC-PVTZ AUX)
    Blend: AUG-CC-PVTZ-JKFIT
	 Reference Energy          =    -235.4477256141634030 [Eh]
	 Singles Energy            =      -0.0000000000000000 [Eh]
	 Same-Spin Energy          =      -0.2553849717359487 [Eh]
	 Opposite-Spin Energy      =      -0.9539359516614111 [Eh]
	 Correlation Energy        =      -1.2093209233973599 [Eh]
	 Total Energy              =    -236.6570465375607739 [Eh]

	 ================> DF-SCS-MP2 Energies <==================
	-----------------------------------------------------------
	 SCS Same-Spin Scale       =       0.3333333333333333 [-]
	 SCS Opposite-Spin Scale   =       1.2000000000000000 [-]
	 SCS Same-Spin Energy      =      -0.0851283239119829 [Eh]
	 SCS Opposite-Spin Energy  =      -1.1447231419936932 [Eh]
	 SCS Correlation Energy    =      -1.2298514659056761 [Eh]
	 SCS Total Energy          =    -236.6775770800690850 [Eh]
	-----------------------------------------------------------

  Dipole Moment: [D]
     X:    -0.0409      Y:     0.0233      Z:    -0.0037     Total:     0.0472

*** Psi4 exiting successfully. Buy a developer a beer!
