                               Psi4 1.3.2 release

  ==> Input File <==

--------------------------------------------------------------------------
#psi4
#
memory 32 gb

molecule  {
0 1
  C       -0.4605626     0.0458635    -0.0000564
  C        0.8671890     0.8245510    -0.0008470
  C       -0.5186390    -0.8803510    -1.2490450
  C       -1.6124710     0.9760830    -0.0007580
  C       -0.5183990    -0.8781140     1.2506300
  C        2.1754120     0.0349960    -0.0000500
  H        0.8502280     1.4838230    -0.8795210
  H        0.8502290     1.4855890     0.8765000
  H        0.2706380    -1.6377050    -1.2666100
  H       -0.4322060    -0.2762080    -2.1593560
  H       -1.4806460    -1.4035230    -1.2819340
  H       -1.5874350     1.6202330     0.8851840
  H       -1.5876340     1.6186070    -0.8878840
  H       -2.5658430     0.4362680    -0.0001590
  H        0.2708010    -1.6355150     1.2692820
  H       -1.4804630    -1.4011040     1.2847180
  H       -0.4316200    -0.2723440     2.1598230
  H        2.2659520    -0.6017660    -0.8839470
  H        3.0286720     0.7201300    -0.0010770
  H        2.2662480    -0.5994780     0.8854570
units angstrom
no_reorient  #important for SAPT in psi4, default
symmetry c1  #important for SAPT in psi4, default
}

set PROPERTIES_ORIGIN ["COM"]
properties('MP2/aug-cc-pvtz', properties = ['dipole'])
--------------------------------------------------------------------------

    Molecular point group: c1
  Charge       = 0
  Multiplicity = 1
  Basis Set: AUG-CC-PVTZ
    Blend: AUG-CC-PVTZ
  Basis Set: (AUG-CC-PVTZ AUX)
    Blend: AUG-CC-PVTZ-JKFIT

    Orbital Energies [Eh]
    ---------------------

    Doubly Occupied:

       1A    -11.227621     2A    -11.213919     3A    -11.209952
       4A    -11.207226     5A    -11.207209     6A    -11.206188
       7A     -1.110217     8A     -0.997086     9A     -0.929841
      10A     -0.922962    11A     -0.850260    12A     -0.720645
      13A     -0.623516    14A     -0.623401    15A     -0.596262
      16A     -0.582942    17A     -0.550431    18A     -0.529429
      19A     -0.522146    20A     -0.508382    21A     -0.501081
      22A     -0.482544    23A     -0.460405    24A     -0.435705
      25A     -0.434152

  @DF-RHF Final Energy:  -235.44467469480821

   => Energetics <=

    Nuclear Repulsion Energy =            266.4306246455080895
    One-Electron Energy =                -844.4435525282189019
    Two-Electron Energy =                 342.5682531879025419
    Total Energy =                       -235.4446746948082136
  Basis Set: (AUG-CC-PVTZ AUX)
    Blend: AUG-CC-PVTZ-RI
    Molecular point group: c1

    Geometry (in Angstrom), charge = 0, multiplicity = 1:

       Center              X                  Y                   Z               Mass
    ------------   -----------------  -----------------  -----------------  -----------------
         C           -0.453932995240     0.034137436404    -0.000044356327    12.000000000000
         C            0.873818604760     0.812824936404    -0.000834956327    12.000000000000
         C           -0.512009395240    -0.892077063596    -1.249032956327    12.000000000000
         C           -1.605841395240     0.964356936404    -0.000745956327    12.000000000000
         C           -0.511769395240    -0.889840063596     1.250642043673    12.000000000000
         C            2.182041604760     0.023269936404    -0.000037956327    12.000000000000
         H            0.856857604760     1.472096936404    -0.879508956327     1.007825032230
         H            0.856858604760     1.473862936404     0.876512043673     1.007825032230
         H            0.277267604760    -1.649431063596    -1.266597956327     1.007825032230
         H           -0.425576395240    -0.287934063596    -2.159343956327     1.007825032230
         H           -1.474016395240    -1.415249063596    -1.281921956327     1.007825032230
         H           -1.580805395240     1.608506936404     0.885196043673     1.007825032230
         H           -1.581004395240     1.606880936404    -0.887871956327     1.007825032230
         H           -2.559213395240     0.424541936404    -0.000146956327     1.007825032230
         H            0.277430604760    -1.647241063596     1.269294043673     1.007825032230
         H           -1.473833395240    -1.412830063596     1.284730043673     1.007825032230
         H           -0.424990395240    -0.284070063596     2.159835043673     1.007825032230
         H            2.272581604760    -0.613492063596    -0.883934956327     1.007825032230
         H            3.035301604760     0.708403936404    -0.001064956327     1.007825032230
         H            2.272877604760    -0.611204063596     0.885469043673     1.007825032230

  Basis Set: AUG-CC-PVTZ
    Blend: AUG-CC-PVTZ
  Basis Set: (AUG-CC-PVTZ AUX)
    Blend: AUG-CC-PVTZ-JKFIT
	 Reference Energy          =    -235.4446746948082136 [Eh]
	 Singles Energy            =      -0.0000000000000000 [Eh]
	 Same-Spin Energy          =      -0.2555219999021009 [Eh]
	 Opposite-Spin Energy      =      -0.9542802486986207 [Eh]
	 Correlation Energy        =      -1.2098022486007216 [Eh]
	 Total Energy              =    -236.6544769434089233 [Eh]

	 ================> DF-SCS-MP2 Energies <==================
	-----------------------------------------------------------
	 SCS Same-Spin Scale       =       0.3333333333333333 [-]
	 SCS Opposite-Spin Scale   =       1.2000000000000000 [-]
	 SCS Same-Spin Energy      =      -0.0851739999673670 [Eh]
	 SCS Opposite-Spin Energy  =      -1.1451362984383449 [Eh]
	 SCS Correlation Energy    =      -1.2303102984057119 [Eh]
	 SCS Total Energy          =    -236.6749849932139114 [Eh]
	-----------------------------------------------------------

  Dipole Moment: [D]
     X:     0.0459      Y:     0.0485      Z:    -0.0001     Total:     0.0667

*** Psi4 exiting successfully. Buy a developer a beer!
