                               Psi4 1.3.2 release

  ==> Input File <==

--------------------------------------------------------------------------
#psi4
#
memory 32 gb

molecule  {
0 1
  C       -0.4325780     0.0000000    -0.0000100
  C        0.8671890     0.8245510    -0.0008470
  C       -0.5099539    -0.7914914    -1.3077053
  C       -1.6124710     0.9760830    -0.0007580
  C       -0.5183990    -0.8781140     1.2506300
  C        2.1754120     0.0349960    -0.0000500
  H        0.8502280     1.4838230    -0.8795210
  H        0.8502290     1.4855890     0.8765000
  H        0.2706380    -1.6377050    -1.2666100
  H       -0.4322060    -0.2762080    -2.1593560
  H       -1.4806460    -1.4035230    -1.2819340
  H       -1.5874350     1.6202330     0.8851840
  H       -1.5876340     1.6186070    -0.8878840
  H       -2.5658430     0.4362680    -0.0001590
  H        0.2708010    -1.6355150     1.2692820
  H       -1.4804630    -1.4011040     1.2847180
  H       -0.4316200    -0.2723440     2.1598230
  H        2.2659520    -0.6017660    -0.8839470
  H        3.0286720     0.7201300    -0.0010770
  H        2.2662480    -0.5994780     0.8854570
units angstrom
no_reorient  #important for SAPT in psi4, default
symmetry c1  #important for SAPT in psi4, default
}

set PROPERTIES_ORIGIN ["COM"]
properties('MP2/aug-cc-pvtz', properties = ['dipole'])
--------------------------------------------------------------------------

    Molecular point group: c1
  Charge       = 0
  Multiplicity = 1
  Basis Set: AUG-CC-PVTZ
    Blend: AUG-CC-PVTZ
  Basis Set: (AUG-CC-PVTZ AUX)
    Blend: AUG-CC-PVTZ-JKFIT

    Orbital Energies [Eh]
    ---------------------

    Doubly Occupied:

       1A    -11.228203     2A    -11.213185     3A    -11.209256
       4A    -11.208781     5A    -11.208234     6A    -11.206178
       7A     -1.110188     8A     -0.995307     9A     -0.932403
      10A     -0.924297    11A     -0.848212    12A     -0.724373
      13A     -0.622176    14A     -0.621225    15A     -0.607048
      16A     -0.578981    17A     -0.552746    18A     -0.528202
      19A     -0.525433    20A     -0.504458    21A     -0.492328
      22A     -0.488879    23A     -0.454936    24A     -0.437542
      25A     -0.432672

  @DF-RHF Final Energy:  -235.43389987897109

   => Energetics <=

    Nuclear Repulsion Energy =            266.5432134942541325
    One-Electron Energy =                -844.6437377181197235
    Two-Electron Energy =                 342.6666243448945011
    Total Energy =                       -235.4338998789710899
  Basis Set: (AUG-CC-PVTZ AUX)
    Blend: AUG-CC-PVTZ-RI
    Molecular point group: c1

    Geometry (in Angstrom), charge = 0, multiplicity = 1:

       Center              X                  Y                   Z               Mass
    ------------   -----------------  -----------------  -----------------  -----------------
         C           -0.431058587985    -0.017717886772     0.008170322294    12.000000000000
         C            0.868708412015     0.806833113228     0.007333322294    12.000000000000
         C           -0.508434487985    -0.809209286772    -1.299524977706    12.000000000000
         C           -1.610951587985     0.958365113228     0.007422322294    12.000000000000
         C           -0.516879587985    -0.895831886772     1.258810322294    12.000000000000
         C            2.176931412015     0.017278113228     0.008130322294    12.000000000000
         H            0.851747412015     1.466105113228    -0.871340677706     1.007825032230
         H            0.851748412015     1.467871113228     0.884680322294     1.007825032230
         H            0.272157412015    -1.655422886772    -1.258429677706     1.007825032230
         H           -0.430686587985    -0.293925886772    -2.151175677706     1.007825032230
         H           -1.479126587985    -1.421240886772    -1.273753677706     1.007825032230
         H           -1.585915587985     1.602515113228     0.893364322294     1.007825032230
         H           -1.586114587985     1.600889113228    -0.879703677706     1.007825032230
         H           -2.564323587985     0.418550113228     0.008021322294     1.007825032230
         H            0.272320412015    -1.653232886772     1.277462322294     1.007825032230
         H           -1.478943587985    -1.418821886772     1.292898322294     1.007825032230
         H           -0.430100587985    -0.290061886772     2.168003322294     1.007825032230
         H            2.267471412015    -0.619483886772    -0.875766677706     1.007825032230
         H            3.030191412015     0.702412113228     0.007103322294     1.007825032230
         H            2.267767412015    -0.617195886772     0.893637322294     1.007825032230

  Basis Set: AUG-CC-PVTZ
    Blend: AUG-CC-PVTZ
  Basis Set: (AUG-CC-PVTZ AUX)
    Blend: AUG-CC-PVTZ-JKFIT
	 Reference Energy          =    -235.4338998789710899 [Eh]
	 Singles Energy            =      -0.0000000000000000 [Eh]
	 Same-Spin Energy          =      -0.2556556044449504 [Eh]
	 Opposite-Spin Energy      =      -0.9547648242921571 [Eh]
	 Correlation Energy        =      -1.2104204287371076 [Eh]
	 Total Energy              =    -236.6443203077081989 [Eh]

	 ================> DF-SCS-MP2 Energies <==================
	-----------------------------------------------------------
	 SCS Same-Spin Scale       =       0.3333333333333333 [-]
	 SCS Opposite-Spin Scale   =       1.2000000000000000 [-]
	 SCS Same-Spin Energy      =      -0.0852185348149835 [Eh]
	 SCS Opposite-Spin Energy  =      -1.1457177891505885 [Eh]
	 SCS Correlation Energy    =      -1.2309363239655720 [Eh]
	 SCS Total Energy          =    -236.6648362029366695 [Eh]
	-----------------------------------------------------------

  Dipole Moment: [D]
     X:     0.0540      Y:     0.0541      Z:     0.0055     Total:     0.0766

*** Psi4 exiting successfully. Buy a developer a beer!
