                               Psi4 1.4a3.dev225

  ==> Input File <==

--------------------------------------------------------------------------
#psi4
#
memory 32 gb

molecule  {
0 1
  C        0.4325650     0.0000100    -0.0000020
  C       -0.8671790     0.8245630    -0.0000540
  C        0.5185540    -0.8790830     1.2499350
  C        1.6124760     0.9760580    -0.0001380
  C        0.5212898    -0.9080845    -1.2905731
  C       -2.1754120     0.0349770     0.0000010
  H       -0.8502370     1.4847800     0.8779110
  H       -0.8502460     1.4846590    -0.8781100
  H       -0.2707110    -1.6364310     1.2681610
  H        0.4320040    -0.2740170     2.1596200
  H        1.4805750    -1.4021870     1.2834330
  H        1.5875310     1.6192780    -0.8867600
  H        1.5875470     1.6195060     0.8863170
  H        2.5658350     0.4362190    -0.0000780
  H       -0.2707460    -1.6367490    -1.2677310
  H        1.4805270    -1.4024220    -1.2832170
  H        0.4318210    -0.2745040    -2.1595630
  H       -2.2660690    -0.6006200     0.8847210
  H       -3.0286490     0.7201330     0.0000090
  H       -2.2661130    -0.6006550    -0.8846890
units angstrom
no_reorient  #important for SAPT in psi4, default
symmetry c1  #important for SAPT in psi4, default
}

set PROPERTIES_ORIGIN ["COM"]
properties('MP2/aug-cc-pvtz', properties = ['dipole'])
--------------------------------------------------------------------------

    Molecular point group: c1
  Charge       = 0
  Multiplicity = 1
  Basis Set: AUG-CC-PVTZ
    Blend: AUG-CC-PVTZ
  Basis Set: (AUG-CC-PVTZ AUX)
    Blend: AUG-CC-PVTZ-JKFIT

    Orbital Energies [Eh]
    ---------------------

    Doubly Occupied:

       1A    -11.229613     2A    -11.213753     3A    -11.208930
       4A    -11.206852     5A    -11.206798     6A    -11.204725
       7A     -1.104770     8A     -0.995014     9A     -0.928023
      10A     -0.926137    11A     -0.848642    12A     -0.719307
      13A     -0.623355    14A     -0.621359    15A     -0.596170
      16A     -0.580821    17A     -0.551108    18A     -0.532458
      19A     -0.526339    20A     -0.512259    21A     -0.500290
      22A     -0.484810    23A     -0.446982    24A     -0.441626
      25A     -0.433407

  @DF-RHF Final Energy:  -235.44625518748694

   => Energetics <=

    Nuclear Repulsion Energy =            265.7018202600359587
    One-Electron Energy =                -843.0090522927042684
    Two-Electron Energy =                 341.8609768451813125
    Total Energy =                       -235.4462551874869405
  Basis Set: (AUG-CC-PVTZ AUX)
    Blend: AUG-CC-PVTZ-RI
    Molecular point group: c1

    Geometry (in Angstrom), charge = 0, multiplicity = 1:

       Center              X                  Y                   Z               Mass
    ------------   -----------------  -----------------  -----------------  -----------------
         C            0.429444084772    -0.001321477533     0.005687833586    12.000000000000
         C           -0.870299915228     0.823231522467     0.005635833586    12.000000000000
         C            0.515433084772    -0.880414477533     1.255624833586    12.000000000000
         C            1.609355084772     0.974726522467     0.005551833586    12.000000000000
         C            0.518168884772    -0.909415977533    -1.284883266414    12.000000000000
         C           -2.178532915228     0.033645522467     0.005690833586    12.000000000000
         H           -0.853357915228     1.483448522467     0.883600833586     1.007825032230
         H           -0.853366915228     1.483327522467    -0.872420166414     1.007825032230
         H           -0.273831915228    -1.637762477533     1.273850833586     1.007825032230
         H            0.428883084772    -0.275348477533     2.165309833586     1.007825032230
         H            1.477454084772    -1.403518477533     1.289122833586     1.007825032230
         H            1.584410084772     1.617946522467    -0.881070166414     1.007825032230
         H            1.584426084772     1.618174522467     0.892006833586     1.007825032230
         H            2.562714084772     0.434887522467     0.005611833586     1.007825032230
         H           -0.273866915228    -1.638080477533    -1.262041166414     1.007825032230
         H            1.477406084772    -1.403753477533    -1.277527166414     1.007825032230
         H            0.428700084772    -0.275835477533    -2.153873166414     1.007825032230
         H           -2.269189915228    -0.601951477533     0.890410833586     1.007825032230
         H           -3.031769915228     0.718801522467     0.005698833586     1.007825032230
         H           -2.269233915228    -0.601986477533    -0.878999166414     1.007825032230

  Basis Set: AUG-CC-PVTZ
    Blend: AUG-CC-PVTZ
  Basis Set: (AUG-CC-PVTZ AUX)
    Blend: AUG-CC-PVTZ-JKFIT
	 Reference Energy          =    -235.4462551874869405 [Eh]
	 Singles Energy            =      -0.0000000000000000 [Eh]
	 Same-Spin Energy          =      -0.2550720518718793 [Eh]
	 Opposite-Spin Energy      =      -0.9538322198801413 [Eh]
	 Correlation Energy        =      -1.2089042717520206 [Eh]
	 Total Energy              =    -236.6551594592389733 [Eh]

	 ================> DF-SCS-MP2 Energies <==================
	-----------------------------------------------------------
	 SCS Same-Spin Scale       =       0.3333333333333333 [-]
	 SCS Opposite-Spin Scale   =       1.2000000000000000 [-]
	 SCS Same-Spin Energy      =      -0.0850240172906264 [Eh]
	 SCS Opposite-Spin Energy  =      -1.1445986638561696 [Eh]
	 SCS Correlation Energy    =      -1.2296226811467961 [Eh]
	 SCS Total Energy          =    -236.6758778686337337 [Eh]
	-----------------------------------------------------------

  Dipole Moment: [D]
     X:    -0.0542      Y:     0.0396      Z:     0.0088     Total:     0.0676

*** Psi4 exiting successfully. Buy a developer a beer!
