                               Psi4 1.3.2 release

  ==> Input File <==

--------------------------------------------------------------------------
#psi4
#
memory 32 gb

molecule  {
0 1
  C       -0.4325780     0.0000000    -0.0000100
  C        0.8671890     0.8245510    -0.0008470
  C       -0.5186390    -0.8803510    -1.2490450
  C       -1.6124710     0.9760830    -0.0007580
  C       -0.5183990    -0.8781140     1.2506300
  C        2.1754120     0.0349960    -0.0000500
  H        0.8486842     1.5438314    -0.9594998
  H        0.8502290     1.4855890     0.8765000
  H        0.2706380    -1.6377050    -1.2666100
  H       -0.4322060    -0.2762080    -2.1593560
  H       -1.4806460    -1.4035230    -1.2819340
  H       -1.5874350     1.6202330     0.8851840
  H       -1.5876340     1.6186070    -0.8878840
  H       -2.5658430     0.4362680    -0.0001590
  H        0.2708010    -1.6355150     1.2692820
  H       -1.4804630    -1.4011040     1.2847180
  H       -0.4316200    -0.2723440     2.1598230
  H        2.2659520    -0.6017660    -0.8839470
  H        3.0286720     0.7201300    -0.0010770
  H        2.2662480    -0.5994780     0.8854570
units angstrom
no_reorient  #important for SAPT in psi4, default
symmetry c1  #important for SAPT in psi4, default
}

set PROPERTIES_ORIGIN ["COM"]
properties('MP2/aug-cc-pvtz', properties = ['dipole'])
--------------------------------------------------------------------------

    Molecular point group: c1
  Charge       = 0
  Multiplicity = 1
  Basis Set: AUG-CC-PVTZ
    Blend: AUG-CC-PVTZ
  Basis Set: (AUG-CC-PVTZ AUX)
    Blend: AUG-CC-PVTZ-JKFIT

    Orbital Energies [Eh]
    ---------------------

    Doubly Occupied:

       1A    -11.228520     2A    -11.226148     3A    -11.210180
       4A    -11.208149     5A    -11.206979     6A    -11.206844
       7A     -1.109017     8A     -0.994401     9A     -0.927510
      10A     -0.926521    11A     -0.845018    12A     -0.718624
      13A     -0.624503    14A     -0.616774    15A     -0.596962
      16A     -0.580273    17A     -0.550245    18A     -0.530044
      19A     -0.524020    20A     -0.507950    21A     -0.499048
      22A     -0.478929    23A     -0.446707    24A     -0.443784
      25A     -0.437728

  @DF-RHF Final Energy:  -235.44130026260461

   => Energetics <=

    Nuclear Repulsion Energy =            266.0566935249790959
    One-Electron Energy =                -843.7062289958079191
    Two-Electron Energy =                 342.2082352082242096
    Total Energy =                       -235.4413002626046136
  Basis Set: (AUG-CC-PVTZ AUX)
    Blend: AUG-CC-PVTZ-RI
    Molecular point group: c1

    Geometry (in Angstrom), charge = 0, multiplicity = 1:

       Center              X                  Y                   Z               Mass
    ------------   -----------------  -----------------  -----------------  -----------------
         C           -0.429830186725    -0.006036984629     0.000931648302    12.000000000000
         C            0.869936813275     0.818514015371     0.000094648302    12.000000000000
         C           -0.515891186725    -0.886387984629    -1.248103351698    12.000000000000
         C           -1.609723186725     0.970046015371     0.000183648302    12.000000000000
         C           -0.515651186725    -0.884150984629     1.251571648302    12.000000000000
         C            2.178159813275     0.028959015371     0.000891648302    12.000000000000
         H            0.851432013275     1.537794415371    -0.958558151698     1.007825032230
         H            0.852976813275     1.479552015371     0.877441648302     1.007825032230
         H            0.273385813275    -1.643741984629    -1.265668351698     1.007825032230
         H           -0.429458186725    -0.282244984629    -2.158414351698     1.007825032230
         H           -1.477898186725    -1.409559984629    -1.280992351698     1.007825032230
         H           -1.584687186725     1.614196015371     0.886125648302     1.007825032230
         H           -1.584886186725     1.612570015371    -0.886942351698     1.007825032230
         H           -2.563095186725     0.430231015371     0.000782648302     1.007825032230
         H            0.273548813275    -1.641551984629     1.270223648302     1.007825032230
         H           -1.477715186725    -1.407140984629     1.285659648302     1.007825032230
         H           -0.428872186725    -0.278380984629     2.160764648302     1.007825032230
         H            2.268699813275    -0.607802984629    -0.883005351698     1.007825032230
         H            3.031419813275     0.714093015371    -0.000135351698     1.007825032230
         H            2.268995813275    -0.605514984629     0.886398648302     1.007825032230

  Basis Set: AUG-CC-PVTZ
    Blend: AUG-CC-PVTZ
  Basis Set: (AUG-CC-PVTZ AUX)
    Blend: AUG-CC-PVTZ-JKFIT
	 Reference Energy          =    -235.4413002626046136 [Eh]
	 Singles Energy            =      -0.0000000000000000 [Eh]
	 Same-Spin Energy          =      -0.2554601470233285 [Eh]
	 Opposite-Spin Energy      =      -0.9548800162488751 [Eh]
	 Correlation Energy        =      -1.2103401632722035 [Eh]
	 Total Energy              =    -236.6516404258768205 [Eh]

	 ================> DF-SCS-MP2 Energies <==================
	-----------------------------------------------------------
	 SCS Same-Spin Scale       =       0.3333333333333333 [-]
	 SCS Opposite-Spin Scale   =       1.2000000000000000 [-]
	 SCS Same-Spin Energy      =      -0.0851533823411095 [Eh]
	 SCS Opposite-Spin Energy  =      -1.1458560194986500 [Eh]
	 SCS Correlation Energy    =      -1.2310094018397595 [Eh]
	 SCS Total Energy          =    -236.6723096644443842 [Eh]
	-----------------------------------------------------------

  Dipole Moment: [D]
     X:     0.0534      Y:    -0.0374      Z:     0.0659     Total:     0.0927

*** Psi4 exiting successfully. Buy a developer a beer!
