                               Psi4 1.3.2 release

  ==> Input File <==

--------------------------------------------------------------------------
#psi4
#
memory 32 gb

molecule  {
0 1
  C       -0.4325780     0.0000000    -0.0000100
  C        0.8671890     0.8245510    -0.0008470
  C       -0.5186390    -0.8803510    -1.2490450
  C       -1.6124710     0.9760830    -0.0007580
  C       -0.5071845    -0.7633683     1.0872052
  C        2.1754120     0.0349960    -0.0000500
  H        0.8502280     1.4838230    -0.8795210
  H        0.8502290     1.4855890     0.8765000
  H        0.2706380    -1.6377050    -1.2666100
  H       -0.4322060    -0.2762080    -2.1593560
  H       -1.4806460    -1.4035230    -1.2819340
  H       -1.5874350     1.6202330     0.8851840
  H       -1.5876340     1.6186070    -0.8878840
  H       -2.5658430     0.4362680    -0.0001590
  H        0.2708010    -1.6355150     1.2692820
  H       -1.4804630    -1.4011040     1.2847180
  H       -0.4316200    -0.2723440     2.1598230
  H        2.2659520    -0.6017660    -0.8839470
  H        3.0286720     0.7201300    -0.0010770
  H        2.2662480    -0.5994780     0.8854570
units angstrom
no_reorient  #important for SAPT in psi4, default
symmetry c1  #important for SAPT in psi4, default
}

set PROPERTIES_ORIGIN ["COM"]
properties('MP2/aug-cc-pvtz', properties = ['dipole'])
--------------------------------------------------------------------------

    Molecular point group: c1
  Charge       = 0
  Multiplicity = 1
  Basis Set: AUG-CC-PVTZ
    Blend: AUG-CC-PVTZ
  Basis Set: (AUG-CC-PVTZ AUX)
    Blend: AUG-CC-PVTZ-JKFIT

    Orbital Energies [Eh]
    ---------------------

    Doubly Occupied:

       1A    -11.221575     2A    -11.216308     3A    -11.215720
       4A    -11.209195     5A    -11.209161     6A    -11.209004
       7A     -1.140552     8A     -1.001646     9A     -0.931124
      10A     -0.926619    11A     -0.849539    12A     -0.730447
      13A     -0.631983    14A     -0.628467    15A     -0.602875
      16A     -0.583633    17A     -0.549489    18A     -0.531414
      19A     -0.517386    20A     -0.504054    21A     -0.486697
      22A     -0.482129    23A     -0.470964    24A     -0.427419
      25A     -0.423707

  @DF-RHF Final Energy:  -235.39738944028988

   => Energetics <=

    Nuclear Repulsion Energy =            269.9829482384130870
    One-Electron Energy =                -851.3584625772870140
    Two-Electron Energy =                 345.9781248985840421
    Total Energy =                       -235.3973894402898850
  Basis Set: (AUG-CC-PVTZ AUX)
    Blend: AUG-CC-PVTZ-RI
    Molecular point group: c1

    Geometry (in Angstrom), charge = 0, multiplicity = 1:

       Center              X                  Y                   Z               Mass
    ------------   -----------------  -----------------  -----------------  -----------------
         C           -0.431411078503    -0.021325305442     0.022770026896    12.000000000000
         C            0.868355921497     0.803225694558     0.021933026896    12.000000000000
         C           -0.517472078503    -0.901676305442    -1.226264973104    12.000000000000
         C           -1.611304078503     0.954757694558     0.022022026896    12.000000000000
         C           -0.506017578503    -0.784693605442     1.109985226896    12.000000000000
         C            2.176578921497     0.013670694558     0.022730026896    12.000000000000
         H            0.851394921497     1.462497694558    -0.856740973104     1.007825032230
         H            0.851395921497     1.464263694558     0.899280026896     1.007825032230
         H            0.271804921497    -1.659030305442    -1.243829973104     1.007825032230
         H           -0.431039078503    -0.297533305442    -2.136575973104     1.007825032230
         H           -1.479479078503    -1.424848305442    -1.259153973104     1.007825032230
         H           -1.586268078503     1.598907694558     0.907964026896     1.007825032230
         H           -1.586467078503     1.597281694558    -0.865103973104     1.007825032230
         H           -2.564676078503     0.414942694558     0.022621026896     1.007825032230
         H            0.271967921497    -1.656840305442     1.292062026896     1.007825032230
         H           -1.479296078503    -1.422429305442     1.307498026896     1.007825032230
         H           -0.430453078503    -0.293669305442     2.182603026896     1.007825032230
         H            2.267118921497    -0.623091305442    -0.861166973104     1.007825032230
         H            3.029838921497     0.698804694558     0.021703026896     1.007825032230
         H            2.267414921497    -0.620803305442     0.908237026896     1.007825032230

  Basis Set: AUG-CC-PVTZ
    Blend: AUG-CC-PVTZ
  Basis Set: (AUG-CC-PVTZ AUX)
    Blend: AUG-CC-PVTZ-JKFIT
	 Reference Energy          =    -235.3973894402898850 [Eh]
	 Singles Energy            =      -0.0000000000000000 [Eh]
	 Same-Spin Energy          =      -0.2589016037566920 [Eh]
	 Opposite-Spin Energy      =      -0.9588160707266198 [Eh]
	 Correlation Energy        =      -1.2177176744833118 [Eh]
	 Total Energy              =    -236.6151071147731955 [Eh]

	 ================> DF-SCS-MP2 Energies <==================
	-----------------------------------------------------------
	 SCS Same-Spin Scale       =       0.3333333333333333 [-]
	 SCS Opposite-Spin Scale   =       1.2000000000000000 [-]
	 SCS Same-Spin Energy      =      -0.0863005345855640 [Eh]
	 SCS Opposite-Spin Energy  =      -1.1505792848719436 [Eh]
	 SCS Correlation Energy    =      -1.2368798194575077 [Eh]
	 SCS Total Energy          =    -236.6342692597473842 [Eh]
	-----------------------------------------------------------

  Dipole Moment: [D]
     X:     0.0634      Y:     0.0798      Z:    -0.0815     Total:     0.1305

*** Psi4 exiting successfully. Buy a developer a beer!
