                               Psi4 1.3.2 release

  ==> Input File <==

--------------------------------------------------------------------------
#psi4
#
memory 32 gb

molecule  {
0 1
  C       -0.3392686    -0.1313456     0.0001228
  C        0.8671890     0.8245510    -0.0008470
  C       -0.5186390    -0.8803510    -1.2490450
  C       -1.6124710     0.9760830    -0.0007580
  C       -0.5183990    -0.8781140     1.2506300
  C        2.1754120     0.0349960    -0.0000500
  H        0.8502280     1.4838230    -0.8795210
  H        0.8502290     1.4855890     0.8765000
  H        0.2706380    -1.6377050    -1.2666100
  H       -0.4322060    -0.2762080    -2.1593560
  H       -1.4806460    -1.4035230    -1.2819340
  H       -1.5874350     1.6202330     0.8851840
  H       -1.5876340     1.6186070    -0.8878840
  H       -2.5658430     0.4362680    -0.0001590
  H        0.2708010    -1.6355150     1.2692820
  H       -1.4804630    -1.4011040     1.2847180
  H       -0.4316200    -0.2723440     2.1598230
  H        2.2659520    -0.6017660    -0.8839470
  H        3.0286720     0.7201300    -0.0010770
  H        2.2662480    -0.5994780     0.8854570
units angstrom
no_reorient  #important for SAPT in psi4, default
symmetry c1  #important for SAPT in psi4, default
}

set PROPERTIES_ORIGIN ["COM"]
properties('MP2/aug-cc-pvtz', properties = ['dipole'])
--------------------------------------------------------------------------

    Molecular point group: c1
  Charge       = 0
  Multiplicity = 1
  Basis Set: AUG-CC-PVTZ
    Blend: AUG-CC-PVTZ
  Basis Set: (AUG-CC-PVTZ AUX)
    Blend: AUG-CC-PVTZ-JKFIT

    Orbital Energies [Eh]
    ---------------------

    Doubly Occupied:

       1A    -11.230526     2A    -11.215984     3A    -11.207646
       4A    -11.207620     5A    -11.206769     6A    -11.206066
       7A     -1.113405     8A     -0.997198     9A     -0.939958
      10A     -0.914879    11A     -0.845457    12A     -0.725294
      13A     -0.626652    14A     -0.622697    15A     -0.600485
      16A     -0.574263    17A     -0.549339    18A     -0.531003
      19A     -0.529466    20A     -0.509615    21A     -0.496973
      22A     -0.495654    23A     -0.469008    24A     -0.448574
      25A     -0.389906

  @DF-RHF Final Energy:  -235.42419855202186

   => Energetics <=

    Nuclear Repulsion Energy =            266.6956010518067046
    One-Electron Energy =                -844.9307215489960754
    Two-Electron Energy =                 342.8109219451675926
    Total Energy =                       -235.4241985520218350
  Basis Set: (AUG-CC-PVTZ AUX)
    Blend: AUG-CC-PVTZ-RI
    Molecular point group: c1

    Geometry (in Angstrom), charge = 0, multiplicity = 1:

       Center              X                  Y                   Z               Mass
    ------------   -----------------  -----------------  -----------------  -----------------
         C           -0.349542207397    -0.118376270474     0.000109870833    12.000000000000
         C            0.856915392603     0.837520329526    -0.000859929167    12.000000000000
         C           -0.528912607397    -0.867381670474    -1.249057929167    12.000000000000
         C           -1.622744607397     0.989052329526    -0.000770929167    12.000000000000
         C           -0.528672607397    -0.865144670474     1.250617070833    12.000000000000
         C            2.165138392603     0.047965329526    -0.000062929167    12.000000000000
         H            0.839954392603     1.496792329526    -0.879533929167     1.007825032230
         H            0.839955392603     1.498558329526     0.876487070833     1.007825032230
         H            0.260364392603    -1.624735670474    -1.266622929167     1.007825032230
         H           -0.442479607397    -0.263238670474    -2.159368929167     1.007825032230
         H           -1.490919607397    -1.390553670474    -1.281946929167     1.007825032230
         H           -1.597708607397     1.633202329526     0.885171070833     1.007825032230
         H           -1.597907607397     1.631576329526    -0.887896929167     1.007825032230
         H           -2.576116607397     0.449237329526    -0.000171929167     1.007825032230
         H            0.260527392603    -1.622545670474     1.269269070833     1.007825032230
         H           -1.490736607397    -1.388134670474     1.284705070833     1.007825032230
         H           -0.441893607397    -0.259374670474     2.159810070833     1.007825032230
         H            2.255678392603    -0.588796670474    -0.883959929167     1.007825032230
         H            3.018398392603     0.733099329526    -0.001089929167     1.007825032230
         H            2.255974392603    -0.586508670474     0.885444070833     1.007825032230

  Basis Set: AUG-CC-PVTZ
    Blend: AUG-CC-PVTZ
  Basis Set: (AUG-CC-PVTZ AUX)
    Blend: AUG-CC-PVTZ-JKFIT
	 Reference Energy          =    -235.4241985520218634 [Eh]
	 Singles Energy            =      -0.0000000000000000 [Eh]
	 Same-Spin Energy          =      -0.2564337708012794 [Eh]
	 Opposite-Spin Energy      =      -0.9561498100959003 [Eh]
	 Correlation Energy        =      -1.2125835808971797 [Eh]
	 Total Energy              =    -236.6367821329190519 [Eh]

	 ================> DF-SCS-MP2 Energies <==================
	-----------------------------------------------------------
	 SCS Same-Spin Scale       =       0.3333333333333333 [-]
	 SCS Opposite-Spin Scale   =       1.2000000000000000 [-]
	 SCS Same-Spin Energy      =      -0.0854779236004265 [Eh]
	 SCS Opposite-Spin Energy  =      -1.1473797721150802 [Eh]
	 SCS Correlation Energy    =      -1.2328576957155066 [Eh]
	 SCS Total Energy          =    -236.6570562477373585 [Eh]
	-----------------------------------------------------------

  Dipole Moment: [D]
     X:     0.1105      Y:    -0.0271      Z:     0.0000     Total:     0.1137

*** Psi4 exiting successfully. Buy a developer a beer!
