                               Psi4 1.3.2 release

  ==> Input File <==

--------------------------------------------------------------------------
#psi4
#
memory 32 gb

molecule  {
0 1
  C       -0.4325780     0.0000000    -0.0000100
  C        0.8671890     0.8245510    -0.0008470
  C       -0.5186390    -0.8803510    -1.2490450
  C       -1.6124710     0.9760830    -0.0007580
  C       -0.5183990    -0.8781140     1.2506300
  C        2.1598650     0.0109919    -0.0450694
  H        0.8502280     1.4838230    -0.8795210
  H        0.8502290     1.4855890     0.8765000
  H        0.2706380    -1.6377050    -1.2666100
  H       -0.4322060    -0.2762080    -2.1593560
  H       -1.4806460    -1.4035230    -1.2819340
  H       -1.5874350     1.6202330     0.8851840
  H       -1.5876340     1.6186070    -0.8878840
  H       -2.5658430     0.4362680    -0.0001590
  H        0.2708010    -1.6355150     1.2692820
  H       -1.4804630    -1.4011040     1.2847180
  H       -0.4316200    -0.2723440     2.1598230
  H        2.2659520    -0.6017660    -0.8839470
  H        3.0286720     0.7201300    -0.0010770
  H        2.2662480    -0.5994780     0.8854570
units angstrom
no_reorient  #important for SAPT in psi4, default
symmetry c1  #important for SAPT in psi4, default
}

set PROPERTIES_ORIGIN ["COM"]
properties('MP2/aug-cc-pvtz', properties = ['dipole'])
--------------------------------------------------------------------------

    Molecular point group: c1
  Charge       = 0
  Multiplicity = 1
  Basis Set: AUG-CC-PVTZ
    Blend: AUG-CC-PVTZ
  Basis Set: (AUG-CC-PVTZ AUX)
    Blend: AUG-CC-PVTZ-JKFIT

    Orbital Energies [Eh]
    ---------------------

    Doubly Occupied:

       1A    -11.226777     2A    -11.214238     3A    -11.209420
       4A    -11.207179     5A    -11.206676     6A    -11.206630
       7A     -1.109758     8A     -0.995840     9A     -0.927105
      10A     -0.926509    11A     -0.849334    12A     -0.721816
      13A     -0.625276    14A     -0.621898    15A     -0.596282
      16A     -0.583414    17A     -0.547760    18A     -0.529560
      19A     -0.521193    20A     -0.508045    21A     -0.502684
      22A     -0.484508    23A     -0.449164    24A     -0.443990
      25A     -0.435120

  @DF-RHF Final Energy:  -235.44437941417689

   => Energetics <=

    Nuclear Repulsion Energy =            266.6606738077841214
    One-Electron Energy =                -844.9097501660278340
    Two-Electron Energy =                 342.8046969440667908
    Total Energy =                       -235.4443794141768649
  Basis Set: (AUG-CC-PVTZ AUX)
    Blend: AUG-CC-PVTZ-RI
    Molecular point group: c1

    Geometry (in Angstrom), charge = 0, multiplicity = 1:

       Center              X                  Y                   Z               Mass
    ------------   -----------------  -----------------  -----------------  -----------------
         C           -0.427681666396    -0.001989499004     0.006269362422    12.000000000000
         C            0.872085333604     0.822561500996     0.005432362422    12.000000000000
         C           -0.513742666396    -0.882340499004    -1.242765637578    12.000000000000
         C           -1.607574666396     0.974093500996     0.005521362422    12.000000000000
         C           -0.513502666396    -0.880103499004     1.256909362422    12.000000000000
         C            2.164761333604     0.009002400996    -0.038790037578    12.000000000000
         H            0.855124333604     1.481833500996    -0.873241637578     1.007825032230
         H            0.855125333604     1.483599500996     0.882779362422     1.007825032230
         H            0.275534333604    -1.639694499004    -1.260330637578     1.007825032230
         H           -0.427309666396    -0.278197499004    -2.153076637578     1.007825032230
         H           -1.475749666396    -1.405512499004    -1.275654637578     1.007825032230
         H           -1.582538666396     1.618243500996     0.891463362422     1.007825032230
         H           -1.582737666396     1.616617500996    -0.881604637578     1.007825032230
         H           -2.560946666396     0.434278500996     0.006120362422     1.007825032230
         H            0.275697333604    -1.637504499004     1.275561362422     1.007825032230
         H           -1.475566666396    -1.403093499004     1.290997362422     1.007825032230
         H           -0.426723666396    -0.274333499004     2.166102362422     1.007825032230
         H            2.270848333604    -0.603755499004    -0.877667637578     1.007825032230
         H            3.033568333604     0.718140500996     0.005202362422     1.007825032230
         H            2.271144333604    -0.601467499004     0.891736362422     1.007825032230

  Basis Set: AUG-CC-PVTZ
    Blend: AUG-CC-PVTZ
  Basis Set: (AUG-CC-PVTZ AUX)
    Blend: AUG-CC-PVTZ-JKFIT
	 Reference Energy          =    -235.4443794141768933 [Eh]
	 Singles Energy            =      -0.0000000000000000 [Eh]
	 Same-Spin Energy          =      -0.2554807259155463 [Eh]
	 Opposite-Spin Energy      =      -0.9542739160660791 [Eh]
	 Correlation Energy        =      -1.2097546419816254 [Eh]
	 Total Energy              =    -236.6541340561585116 [Eh]

	 ================> DF-SCS-MP2 Energies <==================
	-----------------------------------------------------------
	 SCS Same-Spin Scale       =       0.3333333333333333 [-]
	 SCS Opposite-Spin Scale   =       1.2000000000000000 [-]
	 SCS Same-Spin Energy      =      -0.0851602419718488 [Eh]
	 SCS Opposite-Spin Energy  =      -1.1451286992792948 [Eh]
	 SCS Correlation Energy    =      -1.2302889412511435 [Eh]
	 SCS Total Energy          =    -236.6746683554280253 [Eh]
	-----------------------------------------------------------

  Dipole Moment: [D]
     X:     0.0516      Y:     0.0267      Z:    -0.0169     Total:     0.0605

*** Psi4 exiting successfully. Buy a developer a beer!
