                               Psi4 1.3.2 release

  ==> Input File <==

--------------------------------------------------------------------------
#psi4
#
memory 32 gb

molecule  {
0 1
  C       -0.4325780     0.0000000    -0.0000100
  C        0.8671890     0.8245510    -0.0008470
  C       -0.5186390    -0.8803510    -1.2490450
  C       -1.6124710     0.9760830    -0.0007580
  C       -0.5183990    -0.8781140     1.2506300
  C        2.1754120     0.0349960    -0.0000500
  H        0.8502280     1.4838230    -0.8795210
  H        0.8502290     1.4855890     0.8765000
  H        0.2706380    -1.6377050    -1.2666100
  H       -0.4322060    -0.2762080    -2.1593560
  H       -1.4806460    -1.4035230    -1.2819340
  H       -1.5874350     1.6202330     0.8851840
  H       -1.5876340     1.6186070    -0.8878840
  H       -2.5658430     0.4362680    -0.0001590
  H        0.2708010    -1.6355150     1.2692820
  H       -1.4981702    -1.3493882     1.3855252
  H       -0.4316200    -0.2723440     2.1598230
  H        2.2659520    -0.6017660    -0.8839470
  H        3.0286720     0.7201300    -0.0010770
  H        2.2662480    -0.5994780     0.8854570
units angstrom
no_reorient  #important for SAPT in psi4, default
symmetry c1  #important for SAPT in psi4, default
}

set PROPERTIES_ORIGIN ["COM"]
properties('MP2/aug-cc-pvtz', properties = ['dipole'])
--------------------------------------------------------------------------

    Molecular point group: c1
  Charge       = 0
  Multiplicity = 1
  Basis Set: AUG-CC-PVTZ
    Blend: AUG-CC-PVTZ
  Basis Set: (AUG-CC-PVTZ AUX)
    Blend: AUG-CC-PVTZ-JKFIT

    Orbital Energies [Eh]
    ---------------------

    Doubly Occupied:

       1A    -11.227947     2A    -11.214164     3A    -11.209045
       4A    -11.206938     5A    -11.206750     6A    -11.206731
       7A     -1.109370     8A     -0.995945     9A     -0.927604
      10A     -0.926316    11A     -0.848899    12A     -0.722814
      13A     -0.623444    14A     -0.622451    15A     -0.596220
      16A     -0.581132    17A     -0.550097    18A     -0.528590
      19A     -0.521720    20A     -0.509113    21A     -0.500028
      22A     -0.482752    23A     -0.448542    24A     -0.444973
      25A     -0.438252

  @DF-RHF Final Energy:  -235.44653832185301

   => Energetics <=

    Nuclear Repulsion Energy =            266.4134066120013813
    One-Electron Energy =                -844.4202203484326219
    Two-Electron Energy =                 342.5602754145782001
    Total Energy =                       -235.4465383218530405
  Basis Set: (AUG-CC-PVTZ AUX)
    Blend: AUG-CC-PVTZ-RI
    Molecular point group: c1

    Geometry (in Angstrom), charge = 0, multiplicity = 1:

       Center              X                  Y                   Z               Mass
    ------------   -----------------  -----------------  -----------------  -----------------
         C           -0.429641010507    -0.005939928149    -0.001184268635    12.000000000000
         C            0.870125989493     0.818611071851    -0.002021268635    12.000000000000
         C           -0.515702010507    -0.886290928149    -1.250219268635    12.000000000000
         C           -1.609534010507     0.970143071851    -0.001932268635    12.000000000000
         C           -0.515462010507    -0.884053928149     1.249455731365    12.000000000000
         C            2.178348989493     0.029056071851    -0.001224268635    12.000000000000
         H            0.853164989493     1.477883071851    -0.880695268635     1.007825032230
         H            0.853165989493     1.479649071851     0.875325731365     1.007825032230
         H            0.273574989493    -1.643644928149    -1.267784268635     1.007825032230
         H           -0.429269010507    -0.282147928149    -2.160530268635     1.007825032230
         H           -1.477709010507    -1.409462928149    -1.283108268635     1.007825032230
         H           -1.584498010507     1.614293071851     0.884009731365     1.007825032230
         H           -1.584697010507     1.612667071851    -0.889058268635     1.007825032230
         H           -2.562906010507     0.430328071851    -0.001333268635     1.007825032230
         H            0.273737989493    -1.641454928149     1.268107731365     1.007825032230
         H           -1.495233210507    -1.355328128149     1.384350931365     1.007825032230
         H           -0.428683010507    -0.278283928149     2.158648731365     1.007825032230
         H            2.268888989493    -0.607705928149    -0.885121268635     1.007825032230
         H            3.031608989493     0.714190071851    -0.002251268635     1.007825032230
         H            2.269184989493    -0.605417928149     0.884282731365     1.007825032230

  Basis Set: AUG-CC-PVTZ
    Blend: AUG-CC-PVTZ
  Basis Set: (AUG-CC-PVTZ AUX)
    Blend: AUG-CC-PVTZ-JKFIT
	 Reference Energy          =    -235.4465383218530121 [Eh]
	 Singles Energy            =      -0.0000000000000000 [Eh]
	 Same-Spin Energy          =      -0.2553871353214775 [Eh]
	 Opposite-Spin Energy      =      -0.9540611792528209 [Eh]
	 Correlation Energy        =      -1.2094483145742982 [Eh]
	 Total Energy              =    -236.6559866364273148 [Eh]

	 ================> DF-SCS-MP2 Energies <==================
	-----------------------------------------------------------
	 SCS Same-Spin Scale       =       0.3333333333333333 [-]
	 SCS Opposite-Spin Scale   =       1.2000000000000000 [-]
	 SCS Same-Spin Energy      =      -0.0851290451071592 [Eh]
	 SCS Opposite-Spin Energy  =      -1.1448734151033850 [Eh]
	 SCS Correlation Energy    =      -1.2300024602105442 [Eh]
	 SCS Total Energy          =    -236.6765407820635687 [Eh]
	-----------------------------------------------------------

  Dipole Moment: [D]
     X:     0.0401      Y:     0.0478      Z:     0.0258     Total:     0.0675

*** Psi4 exiting successfully. Buy a developer a beer!
