                               Psi4 1.4a3.dev225

  ==> Input File <==

--------------------------------------------------------------------------
#psi4
#
memory 32 gb

molecule  {
0 1
  C        0.4325650     0.0000100    -0.0000020
  C       -0.9093997     0.8513476    -0.0000557
  C        0.5185540    -0.8790830     1.2499350
  C        1.6124760     0.9760580    -0.0001380
  C        0.5184830    -0.8793570    -1.2497460
  C       -2.1754120     0.0349770     0.0000010
  H       -0.8502370     1.4847800     0.8779110
  H       -0.8502460     1.4846590    -0.8781100
  H       -0.2707110    -1.6364310     1.2681610
  H        0.4320040    -0.2740170     2.1596200
  H        1.4805750    -1.4021870     1.2834330
  H        1.5875310     1.6192780    -0.8867600
  H        1.5875470     1.6195060     0.8863170
  H        2.5658350     0.4362190    -0.0000780
  H       -0.2707460    -1.6367490    -1.2677310
  H        1.4805270    -1.4024220    -1.2832170
  H        0.4318210    -0.2745040    -2.1595630
  H       -2.2660690    -0.6006200     0.8847210
  H       -3.0286490     0.7201330     0.0000090
  H       -2.2661130    -0.6006550    -0.8846890
units angstrom
no_reorient  #important for SAPT in psi4, default
symmetry c1  #important for SAPT in psi4, default
}

set PROPERTIES_ORIGIN ["COM"]
properties('MP2/aug-cc-pvtz', properties = ['dipole'])
--------------------------------------------------------------------------

    Molecular point group: c1
  Charge       = 0
  Multiplicity = 1
  Basis Set: AUG-CC-PVTZ
    Blend: AUG-CC-PVTZ
  Basis Set: (AUG-CC-PVTZ AUX)
    Blend: AUG-CC-PVTZ-JKFIT

    Orbital Energies [Eh]
    ---------------------

    Doubly Occupied:

       1A    -11.228854     2A    -11.212591     3A    -11.208049
       4A    -11.206653     5A    -11.206591     6A    -11.206570
       7A     -1.104652     8A     -1.000782     9A     -0.926160
      10A     -0.925814    11A     -0.845715    12A     -0.720778
      13A     -0.624069    14A     -0.622300    15A     -0.595068
      16A     -0.582024    17A     -0.549954    18A     -0.530782
      19A     -0.523716    20A     -0.508025    21A     -0.505186
      22A     -0.486025    23A     -0.450390    24A     -0.448191
      25A     -0.423540

  @DF-RHF Final Energy:  -235.44596062833475

   => Energetics <=

    Nuclear Repulsion Energy =            265.9257335974705256
    One-Electron Energy =                -843.4584302858521596
    Two-Electron Energy =                 342.0867360600468601
    Total Energy =                       -235.4459606283347739
  Basis Set: (AUG-CC-PVTZ AUX)
    Blend: AUG-CC-PVTZ-RI
    Molecular point group: c1

    Geometry (in Angstrom), charge = 0, multiplicity = 1:

       Center              X                  Y                   Z               Mass
    ------------   -----------------  -----------------  -----------------  -----------------
         C            0.435718998497    -0.009057497481    -0.000001486559    12.000000000000
         C           -0.906245701503     0.842280102519    -0.000055186559    12.000000000000
         C            0.521707998497    -0.888150497481     1.249935513441    12.000000000000
         C            1.615629998497     0.966990502519    -0.000137486559    12.000000000000
         C            0.521636998497    -0.888424497481    -1.249745486559    12.000000000000
         C           -2.172258001503     0.025909502519     0.000001513441    12.000000000000
         H           -0.847083001503     1.475712502519     0.877911513441     1.007825032230
         H           -0.847092001503     1.475591502519    -0.878109486559     1.007825032230
         H           -0.267557001503    -1.645498497481     1.268161513441     1.007825032230
         H            0.435157998497    -0.283084497481     2.159620513441     1.007825032230
         H            1.483728998497    -1.411254497481     1.283433513441     1.007825032230
         H            1.590684998497     1.610210502519    -0.886759486559     1.007825032230
         H            1.590700998497     1.610438502519     0.886317513441     1.007825032230
         H            2.568988998497     0.427151502519    -0.000077486559     1.007825032230
         H           -0.267592001503    -1.645816497481    -1.267730486559     1.007825032230
         H            1.483680998497    -1.411489497481    -1.283216486559     1.007825032230
         H            0.434974998497    -0.283571497481    -2.159562486559     1.007825032230
         H           -2.262915001503    -0.609687497481     0.884721513441     1.007825032230
         H           -3.025495001503     0.711065502519     0.000009513441     1.007825032230
         H           -2.262959001503    -0.609722497481    -0.884688486559     1.007825032230

  Basis Set: AUG-CC-PVTZ
    Blend: AUG-CC-PVTZ
  Basis Set: (AUG-CC-PVTZ AUX)
    Blend: AUG-CC-PVTZ-JKFIT
	 Reference Energy          =    -235.4459606283347455 [Eh]
	 Singles Energy            =      -0.0000000000000000 [Eh]
	 Same-Spin Energy          =      -0.2552724044000618 [Eh]
	 Opposite-Spin Energy      =      -0.9539386168304318 [Eh]
	 Correlation Energy        =      -1.2092110212304936 [Eh]
	 Total Energy              =    -236.6551716495652329 [Eh]

	 ================> DF-SCS-MP2 Energies <==================
	-----------------------------------------------------------
	 SCS Same-Spin Scale       =       0.3333333333333333 [-]
	 SCS Opposite-Spin Scale   =       1.2000000000000000 [-]
	 SCS Same-Spin Energy      =      -0.0850908014666873 [Eh]
	 SCS Opposite-Spin Energy  =      -1.1447263401965182 [Eh]
	 SCS Correlation Energy    =      -1.2298171416632055 [Eh]
	 SCS Total Energy          =    -236.6757777699979499 [Eh]
	-----------------------------------------------------------

  Dipole Moment: [D]
     X:    -0.0725      Y:     0.0403      Z:    -0.0000     Total:     0.0829

*** Psi4 exiting successfully. Buy a developer a beer!
