                               Psi4 1.3.2 release

  ==> Input File <==

--------------------------------------------------------------------------
#psi4
#
memory 32 gb

molecule  {
0 1
  C       -0.4325780     0.0000000    -0.0000100
  C        0.8671890     0.8245510    -0.0008470
  C       -0.5186390    -0.8803510    -1.2490450
  C       -1.6124710     0.9760830    -0.0007580
  C       -0.5183990    -0.8781140     1.2506300
  C        2.2124239     0.1126572     0.1347829
  H        0.8502280     1.4838230    -0.8795210
  H        0.8502290     1.4855890     0.8765000
  H        0.2706380    -1.6377050    -1.2666100
  H       -0.4322060    -0.2762080    -2.1593560
  H       -1.4806460    -1.4035230    -1.2819340
  H       -1.5874350     1.6202330     0.8851840
  H       -1.5876340     1.6186070    -0.8878840
  H       -2.5658430     0.4362680    -0.0001590
  H        0.2708010    -1.6355150     1.2692820
  H       -1.4804630    -1.4011040     1.2847180
  H       -0.4316200    -0.2723440     2.1598230
  H        2.2659520    -0.6017660    -0.8839470
  H        3.0286720     0.7201300    -0.0010770
  H        2.2662480    -0.5994780     0.8854570
units angstrom
no_reorient  #important for SAPT in psi4, default
symmetry c1  #important for SAPT in psi4, default
}

set PROPERTIES_ORIGIN ["COM"]
properties('MP2/aug-cc-pvtz', properties = ['dipole'])
--------------------------------------------------------------------------

    Molecular point group: c1
  Charge       = 0
  Multiplicity = 1
  Basis Set: AUG-CC-PVTZ
    Blend: AUG-CC-PVTZ
  Basis Set: (AUG-CC-PVTZ AUX)
    Blend: AUG-CC-PVTZ-JKFIT

    Orbital Energies [Eh]
    ---------------------

    Doubly Occupied:

       1A    -11.229453     2A    -11.215420     3A    -11.213282
       4A    -11.208180     5A    -11.207861     6A    -11.206431
       7A     -1.109899     8A     -0.998956     9A     -0.927863
      10A     -0.926617    11A     -0.851629    12A     -0.722758
      13A     -0.633259    14A     -0.619168    15A     -0.599142
      16A     -0.581670    17A     -0.557633    18A     -0.540153
      19A     -0.517694    20A     -0.508788    21A     -0.503431
      22A     -0.466588    23A     -0.450690    24A     -0.446267
      25A     -0.425624

  @DF-RHF Final Energy:  -235.42461984614093

   => Energetics <=

    Nuclear Repulsion Energy =            266.0602007670561306
    One-Electron Energy =                -843.6327321577672365
    Two-Electron Energy =                 342.1479115445701495
    Total Energy =                       -235.4246198461409563
  Basis Set: (AUG-CC-PVTZ AUX)
    Blend: AUG-CC-PVTZ-RI
    Molecular point group: c1

    Geometry (in Angstrom), charge = 0, multiplicity = 1:

       Center              X                  Y                   Z               Mass
    ------------   -----------------  -----------------  -----------------  -----------------
         C           -0.435006136175    -0.016157307262    -0.018794380086    12.000000000000
         C            0.864760863825     0.808393692738    -0.019631380086    12.000000000000
         C           -0.521067136175    -0.896508307262    -1.267829380086    12.000000000000
         C           -1.614899136175     0.959925692738    -0.019542380086    12.000000000000
         C           -0.520827136175    -0.894271307262     1.231845619914    12.000000000000
         C            2.209995763825     0.096499892738     0.115998519914    12.000000000000
         H            0.847799863825     1.467665692738    -0.898305380086     1.007825032230
         H            0.847800863825     1.469431692738     0.857715619914     1.007825032230
         H            0.268209863825    -1.653862307262    -1.285394380086     1.007825032230
         H           -0.434634136175    -0.292365307262    -2.178140380086     1.007825032230
         H           -1.483074136175    -1.419680307262    -1.300718380086     1.007825032230
         H           -1.589863136175     1.604075692738     0.866399619914     1.007825032230
         H           -1.590062136175     1.602449692738    -0.906668380086     1.007825032230
         H           -2.568271136175     0.420110692738    -0.018943380086     1.007825032230
         H            0.268372863825    -1.651672307262     1.250497619914     1.007825032230
         H           -1.482891136175    -1.417261307262     1.265933619914     1.007825032230
         H           -0.434048136175    -0.288501307262     2.141038619914     1.007825032230
         H            2.263523863825    -0.617923307262    -0.902731380086     1.007825032230
         H            3.026243863825     0.703972692738    -0.019861380086     1.007825032230
         H            2.263819863825    -0.615635307262     0.866672619914     1.007825032230

  Basis Set: AUG-CC-PVTZ
    Blend: AUG-CC-PVTZ
  Basis Set: (AUG-CC-PVTZ AUX)
    Blend: AUG-CC-PVTZ-JKFIT
	 Reference Energy          =    -235.4246198461409278 [Eh]
	 Singles Energy            =      -0.0000000000000000 [Eh]
	 Same-Spin Energy          =      -0.2556567407100210 [Eh]
	 Opposite-Spin Energy      =      -0.9550636465467149 [Eh]
	 Correlation Energy        =      -1.2107203872567360 [Eh]
	 Total Energy              =    -236.6353402333976703 [Eh]

	 ================> DF-SCS-MP2 Energies <==================
	-----------------------------------------------------------
	 SCS Same-Spin Scale       =       0.3333333333333333 [-]
	 SCS Opposite-Spin Scale   =       1.2000000000000000 [-]
	 SCS Same-Spin Energy      =      -0.0852189135700070 [Eh]
	 SCS Opposite-Spin Energy  =      -1.1460763758560579 [Eh]
	 SCS Correlation Energy    =      -1.2312952894260649 [Eh]
	 SCS Total Energy          =    -236.6559151355669997 [Eh]
	-----------------------------------------------------------

  Dipole Moment: [D]
     X:     0.0073      Y:     0.0799      Z:     0.0764     Total:     0.1108

*** Psi4 exiting successfully. Buy a developer a beer!
