                               Psi4 1.3.2 release

  ==> Input File <==

--------------------------------------------------------------------------
#psi4
#
memory 32 gb

molecule  {
0 1
  C       -0.4473879     0.0251415     0.0451029
  C        0.8671890     0.8245510    -0.0008470
  C       -0.5186390    -0.8803510    -1.2490450
  C       -1.6124710     0.9760830    -0.0007580
  C       -0.5183990    -0.8781140     1.2506300
  C        2.1754120     0.0349960    -0.0000500
  H        0.8502280     1.4838230    -0.8795210
  H        0.8502290     1.4855890     0.8765000
  H        0.2706380    -1.6377050    -1.2666100
  H       -0.4322060    -0.2762080    -2.1593560
  H       -1.4806460    -1.4035230    -1.2819340
  H       -1.5874350     1.6202330     0.8851840
  H       -1.5876340     1.6186070    -0.8878840
  H       -2.5658430     0.4362680    -0.0001590
  H        0.2708010    -1.6355150     1.2692820
  H       -1.4804630    -1.4011040     1.2847180
  H       -0.4316200    -0.2723440     2.1598230
  H        2.2659520    -0.6017660    -0.8839470
  H        3.0286720     0.7201300    -0.0010770
  H        2.2662480    -0.5994780     0.8854570
units angstrom
no_reorient  #important for SAPT in psi4, default
symmetry c1  #important for SAPT in psi4, default
}

set PROPERTIES_ORIGIN ["COM"]
properties('MP2/aug-cc-pvtz', properties = ['dipole'])
--------------------------------------------------------------------------

    Molecular point group: c1
  Charge       = 0
  Multiplicity = 1
  Basis Set: AUG-CC-PVTZ
    Blend: AUG-CC-PVTZ
  Basis Set: (AUG-CC-PVTZ AUX)
    Blend: AUG-CC-PVTZ-JKFIT

    Orbital Energies [Eh]
    ---------------------

    Doubly Occupied:

       1A    -11.227645     2A    -11.213978     3A    -11.209470
       4A    -11.207081     5A    -11.206901     6A    -11.206706
       7A     -1.110110     8A     -0.996648     9A     -0.931109
      10A     -0.922138    11A     -0.849616    12A     -0.721078
      13A     -0.624185    14A     -0.622808    15A     -0.596354
      16A     -0.581712    17A     -0.550249    18A     -0.530509
      19A     -0.522271    20A     -0.508353    21A     -0.500565
      22A     -0.483305    23A     -0.456821    24A     -0.445318
      25A     -0.427381

  @DF-RHF Final Energy:  -235.44486189587514

   => Energetics <=

    Nuclear Repulsion Energy =            266.4599017749207519
    One-Electron Energy =                -844.5049060179680964
    Two-Electron Energy =                 342.6001423471721523
    Total Energy =                       -235.4448618958751354
  Basis Set: (AUG-CC-PVTZ AUX)
    Blend: AUG-CC-PVTZ-RI
    Molecular point group: c1

    Geometry (in Angstrom), charge = 0, multiplicity = 1:

       Center              X                  Y                   Z               Mass
    ------------   -----------------  -----------------  -----------------  -----------------
         C           -0.442594286709     0.016303199709     0.038821662647    12.000000000000
         C            0.871982613291     0.815712699709    -0.007128237353    12.000000000000
         C           -0.513845386709    -0.889189300291    -1.255326237353    12.000000000000
         C           -1.607677386709     0.967244699709    -0.007039237353    12.000000000000
         C           -0.513605386709    -0.886952300291     1.244348762647    12.000000000000
         C            2.180205613291     0.026157699709    -0.006331237353    12.000000000000
         H            0.855021613291     1.474984699709    -0.885802237353     1.007825032230
         H            0.855022613291     1.476750699709     0.870218762647     1.007825032230
         H            0.275431613291    -1.646543300291    -1.272891237353     1.007825032230
         H           -0.427412386709    -0.285046300291    -2.165637237353     1.007825032230
         H           -1.475852386709    -1.412361300291    -1.288215237353     1.007825032230
         H           -1.582641386709     1.611394699709     0.878902762647     1.007825032230
         H           -1.582840386709     1.609768699709    -0.894165237353     1.007825032230
         H           -2.561049386709     0.427429699709    -0.006440237353     1.007825032230
         H            0.275594613291    -1.644353300291     1.263000762647     1.007825032230
         H           -1.475669386709    -1.409942300291     1.278436762647     1.007825032230
         H           -0.426826386709    -0.281182300291     2.153541762647     1.007825032230
         H            2.270745613291    -0.610604300291    -0.890228237353     1.007825032230
         H            3.033465613291     0.711291699709    -0.007358237353     1.007825032230
         H            2.271041613291    -0.608316300291     0.879175762647     1.007825032230

  Basis Set: AUG-CC-PVTZ
    Blend: AUG-CC-PVTZ
  Basis Set: (AUG-CC-PVTZ AUX)
    Blend: AUG-CC-PVTZ-JKFIT
	 Reference Energy          =    -235.4448618958751354 [Eh]
	 Singles Energy            =      -0.0000000000000000 [Eh]
	 Same-Spin Energy          =      -0.2555140328771152 [Eh]
	 Opposite-Spin Energy      =      -0.9542813293945314 [Eh]
	 Correlation Energy        =      -1.2097953622716466 [Eh]
	 Total Energy              =    -236.6546572581467842 [Eh]

	 ================> DF-SCS-MP2 Energies <==================
	-----------------------------------------------------------
	 SCS Same-Spin Scale       =       0.3333333333333333 [-]
	 SCS Opposite-Spin Scale   =       1.2000000000000000 [-]
	 SCS Same-Spin Energy      =      -0.0851713442923717 [Eh]
	 SCS Opposite-Spin Energy  =      -1.1451375952734375 [Eh]
	 SCS Correlation Energy    =      -1.2303089395658093 [Eh]
	 SCS Total Energy          =    -236.6751708354409516 [Eh]
	-----------------------------------------------------------

  Dipole Moment: [D]
     X:     0.0495      Y:     0.0418      Z:     0.0231     Total:     0.0688

*** Psi4 exiting successfully. Buy a developer a beer!
