                               Psi4 1.3.2 release

  ==> Input File <==

--------------------------------------------------------------------------
#psi4
#
memory 32 gb

molecule  {
0 1
  C       -0.4325780     0.0000000    -0.0000100
  C        0.8671890     0.8245510    -0.0008470
  C       -0.5186390    -0.8803510    -1.2490450
  C       -1.6124710     0.9760830    -0.0007580
  C       -0.5183990    -0.8781140     1.2506300
  C        2.1754120     0.0349960    -0.0000500
  H        0.8502280     1.4838230    -0.8795210
  H        0.8502290     1.4855890     0.8765000
  H        0.2706380    -1.6377050    -1.2666100
  H       -0.4322060    -0.2762080    -2.1593560
  H       -1.4806460    -1.4035230    -1.2819340
  H       -1.5874350     1.6202330     0.8851840
  H       -1.5876340     1.6186070    -0.8878840
  H       -2.5658430     0.4362680    -0.0001590
  H        0.2708010    -1.6355150     1.2692820
  H       -1.4841529    -1.3928681     1.3015751
  H       -0.4316200    -0.2723440     2.1598230
  H        2.2659520    -0.6017660    -0.8839470
  H        3.0286720     0.7201300    -0.0010770
  H        2.2662480    -0.5994780     0.8854570
units angstrom
no_reorient  #important for SAPT in psi4, default
symmetry c1  #important for SAPT in psi4, default
}

set PROPERTIES_ORIGIN ["COM"]
properties('MP2/aug-cc-pvtz', properties = ['dipole'])
--------------------------------------------------------------------------

    Molecular point group: c1
  Charge       = 0
  Multiplicity = 1
  Basis Set: AUG-CC-PVTZ
    Blend: AUG-CC-PVTZ
  Basis Set: (AUG-CC-PVTZ AUX)
    Blend: AUG-CC-PVTZ-JKFIT

    Orbital Energies [Eh]
    ---------------------

    Doubly Occupied:

       1A    -11.227384     2A    -11.213893     3A    -11.208910
       4A    -11.206906     5A    -11.206895     6A    -11.206864
       7A     -1.109493     8A     -0.995952     9A     -0.927078
      10A     -0.926558    11A     -0.848767    12A     -0.721699
      13A     -0.623856    14A     -0.622486    15A     -0.596278
      16A     -0.580836    17A     -0.549879    18A     -0.529407
      19A     -0.523387    20A     -0.508276    21A     -0.499809
      22A     -0.483949    23A     -0.447932    24A     -0.444882
      25A     -0.438199

  @DF-RHF Final Energy:  -235.44767969277225

   => Energetics <=

    Nuclear Repulsion Energy =            266.4821738806748499
    One-Electron Energy =                -844.5605563267719162
    Two-Electron Energy =                 342.6307027533247833
    Total Energy =                       -235.4476796927722830
  Basis Set: (AUG-CC-PVTZ AUX)
    Blend: AUG-CC-PVTZ-RI
    Molecular point group: c1

    Geometry (in Angstrom), charge = 0, multiplicity = 1:

       Center              X                  Y                   Z               Mass
    ------------   -----------------  -----------------  -----------------  -----------------
         C           -0.429805068799    -0.005431039979    -0.000201717783    12.000000000000
         C            0.869961931201     0.819119960021    -0.001038717783    12.000000000000
         C           -0.515866068799    -0.885782039979    -1.249236717783    12.000000000000
         C           -1.609698068799     0.970651960021    -0.000949717783    12.000000000000
         C           -0.515626068799    -0.883545039979     1.250438282217    12.000000000000
         C            2.178184931201     0.029564960021    -0.000241717783    12.000000000000
         H            0.853000931201     1.478391960021    -0.879712717783     1.007825032230
         H            0.853001931201     1.480157960021     0.876308282217     1.007825032230
         H            0.273410931201    -1.643136039979    -1.266801717783     1.007825032230
         H           -0.429433068799    -0.281639039979    -2.159547717783     1.007825032230
         H           -1.477873068799    -1.408954039979    -1.282125717783     1.007825032230
         H           -1.584662068799     1.614801960021     0.884992282217     1.007825032230
         H           -1.584861068799     1.613175960021    -0.888075717783     1.007825032230
         H           -2.563070068799     0.430836960021    -0.000350717783     1.007825032230
         H            0.273573931201    -1.640946039979     1.269090282217     1.007825032230
         H           -1.481379968799    -1.398299139979     1.301383382217     1.007825032230
         H           -0.428847068799    -0.277775039979     2.159631282217     1.007825032230
         H            2.268724931201    -0.607197039979    -0.884138717783     1.007825032230
         H            3.031444931201     0.714698960021    -0.001268717783     1.007825032230
         H            2.269020931201    -0.604909039979     0.885265282217     1.007825032230

  Basis Set: AUG-CC-PVTZ
    Blend: AUG-CC-PVTZ
  Basis Set: (AUG-CC-PVTZ AUX)
    Blend: AUG-CC-PVTZ-JKFIT
	 Reference Energy          =    -235.4476796927722546 [Eh]
	 Singles Energy            =      -0.0000000000000000 [Eh]
	 Same-Spin Energy          =      -0.2553787377189121 [Eh]
	 Opposite-Spin Energy      =      -0.9540500600637074 [Eh]
	 Correlation Energy        =      -1.2094287977826195 [Eh]
	 Total Energy              =    -236.6571084905548616 [Eh]

	 ================> DF-SCS-MP2 Energies <==================
	-----------------------------------------------------------
	 SCS Same-Spin Scale       =       0.3333333333333333 [-]
	 SCS Opposite-Spin Scale   =       1.2000000000000000 [-]
	 SCS Same-Spin Energy      =      -0.0851262459063040 [Eh]
	 SCS Opposite-Spin Energy  =      -1.1448600720764488 [Eh]
	 SCS Correlation Energy    =      -1.2299863179827528 [Eh]
	 SCS Total Energy          =    -236.6776660107550185 [Eh]
	-----------------------------------------------------------

  Dipole Moment: [D]
     X:     0.0509      Y:     0.0340      Z:     0.0040     Total:     0.0613

*** Psi4 exiting successfully. Buy a developer a beer!
