                               Psi4 1.3.2 release

  ==> Input File <==

--------------------------------------------------------------------------
#psi4
#
memory 32 gb

molecule  {
0 1
  C       -0.4325780     0.0000000    -0.0000100
  C        0.8671890     0.8245510    -0.0008470
  C       -0.5186390    -0.8803510    -1.2490450
  C       -1.6124710     0.9760830    -0.0007580
  C       -0.5183990    -0.8781140     1.2506300
  C        2.1427430    -0.0120210    -0.0900348
  H        0.8502280     1.4838230    -0.8795210
  H        0.8502290     1.4855890     0.8765000
  H        0.2706380    -1.6377050    -1.2666100
  H       -0.4322060    -0.2762080    -2.1593560
  H       -1.4806460    -1.4035230    -1.2819340
  H       -1.5874350     1.6202330     0.8851840
  H       -1.5876340     1.6186070    -0.8878840
  H       -2.5658430     0.4362680    -0.0001590
  H        0.2708010    -1.6355150     1.2692820
  H       -1.4804630    -1.4011040     1.2847180
  H       -0.4316200    -0.2723440     2.1598230
  H        2.2659520    -0.6017660    -0.8839470
  H        3.0286720     0.7201300    -0.0010770
  H        2.2662480    -0.5994780     0.8854570
units angstrom
no_reorient  #important for SAPT in psi4, default
symmetry c1  #important for SAPT in psi4, default
}

set PROPERTIES_ORIGIN ["COM"]
properties('MP2/aug-cc-pvtz', properties = ['dipole'])
--------------------------------------------------------------------------

    Molecular point group: c1
  Charge       = 0
  Multiplicity = 1
  Basis Set: AUG-CC-PVTZ
    Blend: AUG-CC-PVTZ
  Basis Set: (AUG-CC-PVTZ AUX)
    Blend: AUG-CC-PVTZ-JKFIT

    Orbital Energies [Eh]
    ---------------------

    Doubly Occupied:

       1A    -11.226401     2A    -11.215149     3A    -11.210921
       4A    -11.207473     5A    -11.206568     6A    -11.206400
       7A     -1.110181     8A     -0.996244     9A     -0.927366
      10A     -0.926409    11A     -0.851169    12A     -0.722622
      13A     -0.627985    14A     -0.620901    15A     -0.597581
      16A     -0.585710    17A     -0.547533    18A     -0.532405
      19A     -0.516260    20A     -0.508326    21A     -0.505744
      22A     -0.481395    23A     -0.450600    24A     -0.441951
      25A     -0.431450

  @DF-RHF Final Energy:  -235.43400462574482

   => Energetics <=

    Nuclear Repulsion Energy =            266.8381639162089982
    One-Electron Energy =                -845.2348463274736332
    Two-Electron Energy =                 342.9626777855198725
    Total Energy =                       -235.4340046257448194
  Basis Set: (AUG-CC-PVTZ AUX)
    Blend: AUG-CC-PVTZ-RI
    Molecular point group: c1

    Geometry (in Angstrom), charge = 0, multiplicity = 1:

       Center              X                  Y                   Z               Mass
    ------------   -----------------  -----------------  -----------------  -----------------
         C           -0.425295589602     0.001217518087     0.012535622055    12.000000000000
         C            0.874471410398     0.825768518087     0.011698622055    12.000000000000
         C           -0.511356589602    -0.879133481913    -1.236499377945    12.000000000000
         C           -1.605188589602     0.977300518087     0.011787622055    12.000000000000
         C           -0.511116589602    -0.876896481913     1.263175622055    12.000000000000
         C            2.150025410398    -0.010803481913    -0.077489177945    12.000000000000
         H            0.857510410398     1.485040518087    -0.866975377945     1.007825032230
         H            0.857511410398     1.486806518087     0.889045622055     1.007825032230
         H            0.277920410398    -1.636487481913    -1.254064377945     1.007825032230
         H           -0.424923589602    -0.274990481913    -2.146810377945     1.007825032230
         H           -1.473363589602    -1.402305481913    -1.269388377945     1.007825032230
         H           -1.580152589602     1.621450518087     0.897729622055     1.007825032230
         H           -1.580351589602     1.619824518087    -0.875338377945     1.007825032230
         H           -2.558560589602     0.437485518087     0.012386622055     1.007825032230
         H            0.278083410398    -1.634297481913     1.281827622055     1.007825032230
         H           -1.473180589602    -1.399886481913     1.297263622055     1.007825032230
         H           -0.424337589602    -0.271126481913     2.172368622055     1.007825032230
         H            2.273234410398    -0.600548481913    -0.871401377945     1.007825032230
         H            3.035954410398     0.721347518087     0.011468622055     1.007825032230
         H            2.273530410398    -0.598260481913     0.898002622055     1.007825032230

  Basis Set: AUG-CC-PVTZ
    Blend: AUG-CC-PVTZ
  Basis Set: (AUG-CC-PVTZ AUX)
    Blend: AUG-CC-PVTZ-JKFIT
	 Reference Energy          =    -235.4340046257448194 [Eh]
	 Singles Energy            =      -0.0000000000000000 [Eh]
	 Same-Spin Energy          =      -0.2556730713109540 [Eh]
	 Opposite-Spin Energy      =      -0.9547942212053295 [Eh]
	 Correlation Energy        =      -1.2104672925162836 [Eh]
	 Total Energy              =    -236.6444719182611038 [Eh]

	 ================> DF-SCS-MP2 Energies <==================
	-----------------------------------------------------------
	 SCS Same-Spin Scale       =       0.3333333333333333 [-]
	 SCS Opposite-Spin Scale   =       1.2000000000000000 [-]
	 SCS Same-Spin Energy      =      -0.0852243571036513 [Eh]
	 SCS Opposite-Spin Energy  =      -1.1457530654463954 [Eh]
	 SCS Correlation Energy    =      -1.2309774225500467 [Eh]
	 SCS Total Energy          =    -236.6649820482948599 [Eh]
	-----------------------------------------------------------

  Dipole Moment: [D]
     X:     0.0402      Y:     0.0279      Z:    -0.0288     Total:     0.0568

*** Psi4 exiting successfully. Buy a developer a beer!
