                               Psi4 1.3.2 release

  ==> Input File <==

--------------------------------------------------------------------------
#psi4
#
memory 32 gb

molecule  {
0 1
  C       -0.4325780     0.0000000    -0.0000100
  C        0.8671890     0.8245510    -0.0008470
  C       -0.5186390    -0.8803510    -1.2490450
  C       -1.6124710     0.9760830    -0.0007580
  C       -0.5183990    -0.8781140     1.2506300
  C        2.1754120     0.0349960    -0.0000500
  H        0.8502280     1.4838230    -0.8795210
  H        0.8502290     1.4855890     0.8765000
  H        0.2706380    -1.6377050    -1.2666100
  H       -0.4322060    -0.2762080    -2.1593560
  H       -1.4806460    -1.4035230    -1.2819340
  H       -1.5874350     1.6202330     0.8851840
  H       -1.5876340     1.6186070    -0.8878840
  H       -2.5658430     0.4362680    -0.0001590
  H        0.2708010    -1.6355150     1.2692820
  H       -1.4722053    -1.4170955     1.2509778
  H       -0.4316200    -0.2723440     2.1598230
  H        2.2659520    -0.6017660    -0.8839470
  H        3.0286720     0.7201300    -0.0010770
  H        2.2662480    -0.5994780     0.8854570
units angstrom
no_reorient  #important for SAPT in psi4, default
symmetry c1  #important for SAPT in psi4, default
}

set PROPERTIES_ORIGIN ["COM"]
properties('MP2/aug-cc-pvtz', properties = ['dipole'])
--------------------------------------------------------------------------

    Molecular point group: c1
  Charge       = 0
  Multiplicity = 1
  Basis Set: AUG-CC-PVTZ
    Blend: AUG-CC-PVTZ
  Basis Set: (AUG-CC-PVTZ AUX)
    Blend: AUG-CC-PVTZ-JKFIT

    Orbital Energies [Eh]
    ---------------------

    Doubly Occupied:

       1A    -11.227077     2A    -11.213706     3A    -11.208814
       4A    -11.207017     5A    -11.206996     6A    -11.206844
       7A     -1.109605     8A     -0.995964     9A     -0.926855
      10A     -0.926762    11A     -0.848684    12A     -0.721094
      13A     -0.624261    14A     -0.622550    15A     -0.596529
      16A     -0.580680    17A     -0.550138    18A     -0.529931
      19A     -0.524087    20A     -0.507413    21A     -0.499580
      22A     -0.484429    23A     -0.447663    24A     -0.444844
      25A     -0.437792

  @DF-RHF Final Energy:  -235.44752024172629

   => Energetics <=

    Nuclear Repulsion Energy =            266.5286656030218069
    One-Electron Energy =                -844.6537482284134057
    Two-Electron Energy =                 342.6775623836652471
    Total Energy =                       -235.4475202417262949
  Basis Set: (AUG-CC-PVTZ AUX)
    Blend: AUG-CC-PVTZ-RI
    Molecular point group: c1

    Geometry (in Angstrom), charge = 0, multiplicity = 1:

       Center              X                  Y                   Z               Mass
    ------------   -----------------  -----------------  -----------------  -----------------
         C           -0.429944903351    -0.005147482811     0.000390472343    12.000000000000
         C            0.869822096649     0.819403517189    -0.000446527657    12.000000000000
         C           -0.516005903351    -0.885498482811    -1.248644527657    12.000000000000
         C           -1.609837903351     0.970935517189    -0.000357527657    12.000000000000
         C           -0.515765903351    -0.883261482811     1.251030472343    12.000000000000
         C            2.178045096649     0.029848517189     0.000350472343    12.000000000000
         H            0.852861096649     1.478675517189    -0.879120527657     1.007825032230
         H            0.852862096649     1.480441517189     0.876900472343     1.007825032230
         H            0.273271096649    -1.642852482811    -1.266209527657     1.007825032230
         H           -0.429572903351    -0.281355482811    -2.158955527657     1.007825032230
         H           -1.478012903351    -1.408670482811    -1.281533527657     1.007825032230
         H           -1.584801903351     1.615085517189     0.885584472343     1.007825032230
         H           -1.585000903351     1.613459517189    -0.887483527657     1.007825032230
         H           -2.563209903351     0.431120517189     0.000241472343     1.007825032230
         H            0.273434096649    -1.640662482811     1.269682472343     1.007825032230
         H           -1.469572203351    -1.422242982811     1.251378272343     1.007825032230
         H           -0.428986903351    -0.277491482811     2.160223472343     1.007825032230
         H            2.268585096649    -0.606913482811    -0.883546527657     1.007825032230
         H            3.031305096649     0.714982517189    -0.000676527657     1.007825032230
         H            2.268881096649    -0.604625482811     0.885857472343     1.007825032230

  Basis Set: AUG-CC-PVTZ
    Blend: AUG-CC-PVTZ
  Basis Set: (AUG-CC-PVTZ AUX)
    Blend: AUG-CC-PVTZ-JKFIT
	 Reference Energy          =    -235.4475202417262949 [Eh]
	 Singles Energy            =      -0.0000000000000000 [Eh]
	 Same-Spin Energy          =      -0.2554181769509062 [Eh]
	 Opposite-Spin Energy      =      -0.9541107657108007 [Eh]
	 Correlation Energy        =      -1.2095289426617069 [Eh]
	 Total Energy              =    -236.6570491843880006 [Eh]

	 ================> DF-SCS-MP2 Energies <==================
	-----------------------------------------------------------
	 SCS Same-Spin Scale       =       0.3333333333333333 [-]
	 SCS Opposite-Spin Scale   =       1.2000000000000000 [-]
	 SCS Same-Spin Energy      =      -0.0851393923169687 [Eh]
	 SCS Opposite-Spin Energy  =      -1.1449329188529607 [Eh]
	 SCS Correlation Energy    =      -1.2300723111699294 [Eh]
	 SCS Total Energy          =    -236.6775925528962148 [Eh]
	-----------------------------------------------------------

  Dipole Moment: [D]
     X:     0.0582      Y:     0.0275      Z:    -0.0080     Total:     0.0648

*** Psi4 exiting successfully. Buy a developer a beer!
