                               Psi4 1.3.2 release

  ==> Input File <==

--------------------------------------------------------------------------
#psi4
#
memory 32 gb

molecule  {
0 1
  C       -0.2864940     0.0425389     0.0501434
  C        0.8671890     0.8245510    -0.0008470
  C       -0.5186390    -0.8803510    -1.2490450
  C       -1.6124710     0.9760830    -0.0007580
  C       -0.5183990    -0.8781140     1.2506300
  C        2.1754120     0.0349960    -0.0000500
  H        0.8502280     1.4838230    -0.8795210
  H        0.8502290     1.4855890     0.8765000
  H        0.2706380    -1.6377050    -1.2666100
  H       -0.4322060    -0.2762080    -2.1593560
  H       -1.4806460    -1.4035230    -1.2819340
  H       -1.5874350     1.6202330     0.8851840
  H       -1.5876340     1.6186070    -0.8878840
  H       -2.5658430     0.4362680    -0.0001590
  H        0.2708010    -1.6355150     1.2692820
  H       -1.4804630    -1.4011040     1.2847180
  H       -0.4316200    -0.2723440     2.1598230
  H        2.2659520    -0.6017660    -0.8839470
  H        3.0286720     0.7201300    -0.0010770
  H        2.2662480    -0.5994780     0.8854570
units angstrom
no_reorient  #important for SAPT in psi4, default
symmetry c1  #important for SAPT in psi4, default
}

set PROPERTIES_ORIGIN ["COM"]
properties('MP2/aug-cc-pvtz', properties = ['dipole'])
--------------------------------------------------------------------------

    Molecular point group: c1
  Charge       = 0
  Multiplicity = 1
  Basis Set: AUG-CC-PVTZ
    Blend: AUG-CC-PVTZ
  Basis Set: (AUG-CC-PVTZ AUX)
    Blend: AUG-CC-PVTZ-JKFIT

    Orbital Energies [Eh]
    ---------------------

    Doubly Occupied:

       1A    -11.230576     2A    -11.210886     3A    -11.210265
       4A    -11.208936     5A    -11.208364     6A    -11.208322
       7A     -1.119004     8A     -0.994395     9A     -0.923928
      10A     -0.915792    11A     -0.868521    12A     -0.720882
      13A     -0.631655    14A     -0.620585    15A     -0.594230
      16A     -0.573402    17A     -0.551379    18A     -0.535880
      19A     -0.524973    20A     -0.505789    21A     -0.501320
      22A     -0.488999    23A     -0.482948    24A     -0.428284
      25A     -0.404378

  @DF-RHF Final Energy:  -235.42004620639452

   => Energetics <=

    Nuclear Repulsion Energy =            266.9184348893065248
    One-Electron Energy =                -845.3495739524231567
    Two-Electron Energy =                 343.0110928567222004
    Total Energy =                       -235.4200462063944883
  Basis Set: (AUG-CC-PVTZ AUX)
    Blend: AUG-CC-PVTZ-RI
    Molecular point group: c1

    Geometry (in Angstrom), charge = 0, multiplicity = 1:

       Center              X                  Y                   Z               Mass
    ------------   -----------------  -----------------  -----------------  -----------------
         C           -0.304122136560     0.031276143897     0.043159731852    12.000000000000
         C            0.849560863440     0.813288243897    -0.007830668148    12.000000000000
         C           -0.536267136560    -0.891613756103    -1.256028668148    12.000000000000
         C           -1.630099136560     0.964820243897    -0.007741668148    12.000000000000
         C           -0.536027136560    -0.889376756103     1.243646331852    12.000000000000
         C            2.157783863440     0.023733243897    -0.007033668148    12.000000000000
         H            0.832599863440     1.472560243897    -0.886504668148     1.007825032230
         H            0.832600863440     1.474326243897     0.869516331852     1.007825032230
         H            0.253009863440    -1.648967756103    -1.273593668148     1.007825032230
         H           -0.449834136560    -0.287470756103    -2.166339668148     1.007825032230
         H           -1.498274136560    -1.414785756103    -1.288917668148     1.007825032230
         H           -1.605063136560     1.608970243897     0.878200331852     1.007825032230
         H           -1.605262136560     1.607344243897    -0.894867668148     1.007825032230
         H           -2.583471136560     0.425005243897    -0.007142668148     1.007825032230
         H            0.253172863440    -1.646777756103     1.262298331852     1.007825032230
         H           -1.498091136560    -1.412366756103     1.277734331852     1.007825032230
         H           -0.449248136560    -0.283606756103     2.152839331852     1.007825032230
         H            2.248323863440    -0.613028756103    -0.890930668148     1.007825032230
         H            3.011043863440     0.708867243897    -0.008060668148     1.007825032230
         H            2.248619863440    -0.610740756103     0.878473331852     1.007825032230

  Basis Set: AUG-CC-PVTZ
    Blend: AUG-CC-PVTZ
  Basis Set: (AUG-CC-PVTZ AUX)
    Blend: AUG-CC-PVTZ-JKFIT
	 Reference Energy          =    -235.4200462063945167 [Eh]
	 Singles Energy            =      -0.0000000000000000 [Eh]
	 Same-Spin Energy          =      -0.2565479420299329 [Eh]
	 Opposite-Spin Energy      =      -0.9563454079471718 [Eh]
	 Correlation Energy        =      -1.2128933499771049 [Eh]
	 Total Energy              =    -236.6329395563716105 [Eh]

	 ================> DF-SCS-MP2 Energies <==================
	-----------------------------------------------------------
	 SCS Same-Spin Scale       =       0.3333333333333333 [-]
	 SCS Opposite-Spin Scale   =       1.2000000000000000 [-]
	 SCS Same-Spin Energy      =      -0.0855159806766443 [Eh]
	 SCS Opposite-Spin Energy  =      -1.1476144895366061 [Eh]
	 SCS Correlation Energy    =      -1.2331304702132504 [Eh]
	 SCS Total Energy          =    -236.6531766766077567 [Eh]
	-----------------------------------------------------------

  Dipole Moment: [D]
     X:     0.1253      Y:     0.0261      Z:     0.0289     Total:     0.1312

*** Psi4 exiting successfully. Buy a developer a beer!
