                               Psi4 1.3.2 release

  ==> Input File <==

--------------------------------------------------------------------------
#psi4
#
memory 32 gb

molecule  {
0 1
  C       -0.4325780     0.0000000    -0.0000100
  C        0.8671890     0.8245510    -0.0008470
  C       -0.5186390    -0.8803510    -1.2490450
  C       -1.6124710     0.9760830    -0.0007580
  C       -0.5183990    -0.8781140     1.2506300
  C        2.2610276    -0.0166758     0.0000022
  H        0.8502280     1.4838230    -0.8795210
  H        0.8502290     1.4855890     0.8765000
  H        0.2706380    -1.6377050    -1.2666100
  H       -0.4322060    -0.2762080    -2.1593560
  H       -1.4806460    -1.4035230    -1.2819340
  H       -1.5874350     1.6202330     0.8851840
  H       -1.5876340     1.6186070    -0.8878840
  H       -2.5658430     0.4362680    -0.0001590
  H        0.2708010    -1.6355150     1.2692820
  H       -1.4804630    -1.4011040     1.2847180
  H       -0.4316200    -0.2723440     2.1598230
  H        2.2659520    -0.6017660    -0.8839470
  H        3.0286720     0.7201300    -0.0010770
  H        2.2662480    -0.5994780     0.8854570
units angstrom
no_reorient  #important for SAPT in psi4, default
symmetry c1  #important for SAPT in psi4, default
}

set PROPERTIES_ORIGIN ["COM"]
properties('MP2/aug-cc-pvtz', properties = ['dipole'])
--------------------------------------------------------------------------

    Molecular point group: c1
  Charge       = 0
  Multiplicity = 1
  Basis Set: AUG-CC-PVTZ
    Blend: AUG-CC-PVTZ
  Basis Set: (AUG-CC-PVTZ AUX)
    Blend: AUG-CC-PVTZ-JKFIT

    Orbital Energies [Eh]
    ---------------------

    Doubly Occupied:

       1A    -11.227243     2A    -11.217619     3A    -11.207028
       4A    -11.207010     5A    -11.206836     6A    -11.205497
       7A     -1.106045     8A     -0.985388     9A     -0.926932
      10A     -0.926543    11A     -0.855737    12A     -0.720009
      13A     -0.623395    14A     -0.620937    15A     -0.593128
      16A     -0.585211    17A     -0.552021    18A     -0.536133
      19A     -0.527519    20A     -0.507889    21A     -0.493494
      22A     -0.485583    23A     -0.449195    24A     -0.442983
      25A     -0.430954

  @DF-RHF Final Energy:  -235.44052690902851

   => Energetics <=

    Nuclear Repulsion Energy =            265.1741162046715203
    One-Electron Energy =                -841.9486205555788274
    Two-Electron Energy =                 341.3339774418788579
    Total Energy =                       -235.4405269090285060
  Basis Set: (AUG-CC-PVTZ AUX)
    Blend: AUG-CC-PVTZ-RI
    Molecular point group: c1

    Geometry (in Angstrom), charge = 0, multiplicity = 1:

       Center              X                  Y                   Z               Mass
    ------------   -----------------  -----------------  -----------------  -----------------
         C           -0.441779419707     0.001866198747    -0.000011696963    12.000000000000
         C            0.857987580293     0.826417198747    -0.000848696963    12.000000000000
         C           -0.527840419707    -0.878484801253    -1.249046696963    12.000000000000
         C           -1.621672419707     0.977949198747    -0.000759696963    12.000000000000
         C           -0.527600419707    -0.876247801253     1.250628303037    12.000000000000
         C            2.251826180293    -0.014809601253     0.000000503037    12.000000000000
         H            0.841026580293     1.485689198747    -0.879522696963     1.007825032230
         H            0.841027580293     1.487455198747     0.876498303037     1.007825032230
         H            0.261436580293    -1.635838801253    -1.266611696963     1.007825032230
         H           -0.441407419707    -0.274341801253    -2.159357696963     1.007825032230
         H           -1.489847419707    -1.401656801253    -1.281935696963     1.007825032230
         H           -1.596636419707     1.622099198747     0.885182303037     1.007825032230
         H           -1.596835419707     1.620473198747    -0.887885696963     1.007825032230
         H           -2.575044419707     0.438134198747    -0.000160696963     1.007825032230
         H            0.261599580293    -1.633648801253     1.269280303037     1.007825032230
         H           -1.489664419707    -1.399237801253     1.284716303037     1.007825032230
         H           -0.440821419707    -0.270477801253     2.159821303037     1.007825032230
         H            2.256750580293    -0.599899801253    -0.883948696963     1.007825032230
         H            3.019470580293     0.721996198747    -0.001078696963     1.007825032230
         H            2.257046580293    -0.597611801253     0.885455303037     1.007825032230

  Basis Set: AUG-CC-PVTZ
    Blend: AUG-CC-PVTZ
  Basis Set: (AUG-CC-PVTZ AUX)
    Blend: AUG-CC-PVTZ-JKFIT
	 Reference Energy          =    -235.4405269090285060 [Eh]
	 Singles Energy            =      -0.0000000000000000 [Eh]
	 Same-Spin Energy          =      -0.2550593415020036 [Eh]
	 Opposite-Spin Energy      =      -0.9541337331510116 [Eh]
	 Correlation Energy        =      -1.2091930746530153 [Eh]
	 Total Energy              =    -236.6497199836815071 [Eh]

	 ================> DF-SCS-MP2 Energies <==================
	-----------------------------------------------------------
	 SCS Same-Spin Scale       =       0.3333333333333333 [-]
	 SCS Opposite-Spin Scale   =       1.2000000000000000 [-]
	 SCS Same-Spin Energy      =      -0.0850197805006679 [Eh]
	 SCS Opposite-Spin Energy  =      -1.1449604797812138 [Eh]
	 SCS Correlation Energy    =      -1.2299802602818817 [Eh]
	 SCS Total Energy          =    -236.6705071693103832 [Eh]
	-----------------------------------------------------------

  Dipole Moment: [D]
     X:     0.0201      Y:     0.0408      Z:    -0.0001     Total:     0.0454

*** Psi4 exiting successfully. Buy a developer a beer!
