                               Psi4 1.3.2 release

  ==> Input File <==

--------------------------------------------------------------------------
#psi4
#
memory 32 gb

molecule  {
0 1
  C       -0.4325780     0.0000000    -0.0000100
  C        0.8671890     0.8245510    -0.0008470
  C       -0.5186390    -0.8803510    -1.2490450
  C       -1.6124710     0.9760830    -0.0007580
  C       -0.5183990    -0.8781140     1.2506300
  C        2.0897964     0.0866678    -0.0001022
  H        0.8502280     1.4838230    -0.8795210
  H        0.8502290     1.4855890     0.8765000
  H        0.2706380    -1.6377050    -1.2666100
  H       -0.4322060    -0.2762080    -2.1593560
  H       -1.4806460    -1.4035230    -1.2819340
  H       -1.5874350     1.6202330     0.8851840
  H       -1.5876340     1.6186070    -0.8878840
  H       -2.5658430     0.4362680    -0.0001590
  H        0.2708010    -1.6355150     1.2692820
  H       -1.4804630    -1.4011040     1.2847180
  H       -0.4316200    -0.2723440     2.1598230
  H        2.2659520    -0.6017660    -0.8839470
  H        3.0286720     0.7201300    -0.0010770
  H        2.2662480    -0.5994780     0.8854570
units angstrom
no_reorient  #important for SAPT in psi4, default
symmetry c1  #important for SAPT in psi4, default
}

set PROPERTIES_ORIGIN ["COM"]
properties('MP2/aug-cc-pvtz', properties = ['dipole'])
--------------------------------------------------------------------------

    Molecular point group: c1
  Charge       = 0
  Multiplicity = 1
  Basis Set: AUG-CC-PVTZ
    Blend: AUG-CC-PVTZ
  Basis Set: (AUG-CC-PVTZ AUX)
    Blend: AUG-CC-PVTZ-JKFIT

    Orbital Energies [Eh]
    ---------------------

    Doubly Occupied:

       1A    -11.227772     2A    -11.215241     3A    -11.209305
       4A    -11.207121     5A    -11.206974     6A    -11.206954
       7A     -1.115515     8A     -1.010372     9A     -0.927213
      10A     -0.926887    11A     -0.840009    12A     -0.723598
      13A     -0.625958    14A     -0.625677    15A     -0.602871
      16A     -0.578660    17A     -0.557801    18A     -0.521876
      19A     -0.519848    20A     -0.511146    21A     -0.508261
      22A     -0.471615    23A     -0.450699    24A     -0.443597
      25A     -0.431528

  @DF-RHF Final Energy:  -235.43601903393287

   => Energetics <=

    Nuclear Repulsion Energy =            267.9103506241953596
    One-Electron Energy =                -847.3597466977412296
    Two-Electron Energy =                 344.0133770396129194
    Total Energy =                       -235.4360190339328938
  Basis Set: (AUG-CC-PVTZ AUX)
    Blend: AUG-CC-PVTZ-RI
    Molecular point group: c1

    Geometry (in Angstrom), charge = 0, multiplicity = 1:

       Center              X                  Y                   Z               Mass
    ------------   -----------------  -----------------  -----------------  -----------------
         C           -0.417917090973    -0.012535492976     0.000002851946    12.000000000000
         C            0.881849909027     0.812015507024    -0.000834148054    12.000000000000
         C           -0.503978090973    -0.892886492976    -1.249032148054    12.000000000000
         C           -1.597810090973     0.963547507024    -0.000745148054    12.000000000000
         C           -0.503738090973    -0.890649492976     1.250642851946    12.000000000000
         C            2.104457309027     0.074132307024    -0.000089348054    12.000000000000
         H            0.864888909027     1.471287507024    -0.879508148054     1.007825032230
         H            0.864889909027     1.473053507024     0.876512851946     1.007825032230
         H            0.285298909027    -1.650240492976    -1.266597148054     1.007825032230
         H           -0.417545090973    -0.288743492976    -2.159343148054     1.007825032230
         H           -1.465985090973    -1.416058492976    -1.281921148054     1.007825032230
         H           -1.572774090973     1.607697507024     0.885196851946     1.007825032230
         H           -1.572973090973     1.606071507024    -0.887871148054     1.007825032230
         H           -2.551182090973     0.423732507024    -0.000146148054     1.007825032230
         H            0.285461909027    -1.648050492976     1.269294851946     1.007825032230
         H           -1.465802090973    -1.413639492976     1.284730851946     1.007825032230
         H           -0.416959090973    -0.284879492976     2.159835851946     1.007825032230
         H            2.280612909027    -0.614301492976    -0.883934148054     1.007825032230
         H            3.043332909027     0.707594507024    -0.001064148054     1.007825032230
         H            2.280908909027    -0.612013492976     0.885469851946     1.007825032230

  Basis Set: AUG-CC-PVTZ
    Blend: AUG-CC-PVTZ
  Basis Set: (AUG-CC-PVTZ AUX)
    Blend: AUG-CC-PVTZ-JKFIT
	 Reference Energy          =    -235.4360190339328653 [Eh]
	 Singles Energy            =      -0.0000000000000000 [Eh]
	 Same-Spin Energy          =      -0.2564472935325430 [Eh]
	 Opposite-Spin Energy      =      -0.9553025973532785 [Eh]
	 Correlation Energy        =      -1.2117498908858215 [Eh]
	 Total Energy              =    -236.6477689248186778 [Eh]

	 ================> DF-SCS-MP2 Energies <==================
	-----------------------------------------------------------
	 SCS Same-Spin Scale       =       0.3333333333333333 [-]
	 SCS Opposite-Spin Scale   =       1.2000000000000000 [-]
	 SCS Same-Spin Energy      =      -0.0854824311775143 [Eh]
	 SCS Opposite-Spin Energy  =      -1.1463631168239341 [Eh]
	 SCS Correlation Energy    =      -1.2318455480014485 [Eh]
	 SCS Total Energy          =    -236.6678645819343103 [Eh]
	-----------------------------------------------------------

  Dipole Moment: [D]
     X:     0.0510      Y:     0.0386      Z:    -0.0001     Total:     0.0640

*** Psi4 exiting successfully. Buy a developer a beer!
