                               Psi4 1.3.2 release

  ==> Input File <==

--------------------------------------------------------------------------
#psi4
#
memory 32 gb

molecule  {
0 1
  C       -0.4325780     0.0000000    -0.0000100
  C        0.8671890     0.8245510    -0.0008470
  C       -0.5186390    -0.8803510    -1.2490450
  C       -1.6124710     0.9760830    -0.0007580
  C       -0.5183990    -0.8781140     1.2506300
  C        2.1754120     0.0349960    -0.0000500
  H        0.8502280     1.4838230    -0.8795210
  H        0.8502290     1.4855890     0.8765000
  H        0.2706380    -1.6377050    -1.2666100
  H       -0.4322060    -0.2762080    -2.1593560
  H       -1.4806460    -1.4035230    -1.2819340
  H       -1.5874350     1.6202330     0.8851840
  H       -1.5876340     1.6186070    -0.8878840
  H       -2.5658430     0.4362680    -0.0001590
  H        0.2708010    -1.6355150     1.2692820
  H       -1.3048331    -1.3056294     1.2784951
  H       -0.4316200    -0.2723440     2.1598230
  H        2.2659520    -0.6017660    -0.8839470
  H        3.0286720     0.7201300    -0.0010770
  H        2.2662480    -0.5994780     0.8854570
units angstrom
no_reorient  #important for SAPT in psi4, default
symmetry c1  #important for SAPT in psi4, default
}

set PROPERTIES_ORIGIN ["COM"]
properties('MP2/aug-cc-pvtz', properties = ['dipole'])
--------------------------------------------------------------------------

    Molecular point group: c1
  Charge       = 0
  Multiplicity = 1
  Basis Set: AUG-CC-PVTZ
    Blend: AUG-CC-PVTZ
  Basis Set: (AUG-CC-PVTZ AUX)
    Blend: AUG-CC-PVTZ-JKFIT

    Orbital Energies [Eh]
    ---------------------

    Doubly Occupied:

       1A    -11.225676     2A    -11.212133     3A    -11.207729
       4A    -11.206910     5A    -11.206890     6A    -11.181615
       7A     -1.111495     8A     -0.997960     9A     -0.947165
      10A     -0.926661    11A     -0.849196    12A     -0.726787
      13A     -0.635923    14A     -0.622187    15A     -0.595322
      16A     -0.580265    17A     -0.552030    18A     -0.547447
      19A     -0.527099    20A     -0.507836    21A     -0.499857
      22A     -0.483277    23A     -0.446485    24A     -0.443873
      25A     -0.439133

  @DF-RHF Final Energy:  -235.41411458273512

   => Energetics <=

    Nuclear Repulsion Energy =            267.5038270275471746
    One-Electron Energy =                -846.4739824758551094
    Two-Electron Energy =                 343.5560408655727542
    Total Energy =                       -235.4141145827351238
  Basis Set: (AUG-CC-PVTZ AUX)
    Blend: AUG-CC-PVTZ-RI
    Molecular point group: c1

    Geometry (in Angstrom), charge = 0, multiplicity = 1:

       Center              X                  Y                   Z               Mass
    ------------   -----------------  -----------------  -----------------  -----------------
         C           -0.431903825351    -0.006452080562     0.000068410230    12.000000000000
         C            0.867863174649     0.818098919438    -0.000768589770    12.000000000000
         C           -0.517964825351    -0.886803080562    -1.248966589770    12.000000000000
         C           -1.611796825351     0.969630919438    -0.000679589770    12.000000000000
         C           -0.517724825351    -0.884566080562     1.250708410230    12.000000000000
         C            2.176086174649     0.028543919438     0.000028410230    12.000000000000
         H            0.850902174649     1.477370919438    -0.879442589770     1.007825032230
         H            0.850903174649     1.479136919438     0.876578410230     1.007825032230
         H            0.271312174649    -1.644157080562    -1.266531589770     1.007825032230
         H           -0.431531825351    -0.282660080562    -2.159277589770     1.007825032230
         H           -1.479971825351    -1.409975080562    -1.281855589770     1.007825032230
         H           -1.586760825351     1.613780919438     0.885262410230     1.007825032230
         H           -1.586959825351     1.612154919438    -0.887805589770     1.007825032230
         H           -2.565168825351     0.429815919438    -0.000080589770     1.007825032230
         H            0.271475174649    -1.641967080562     1.269360410230     1.007825032230
         H           -1.304158925351    -1.312081480562     1.278573510230     1.007825032230
         H           -0.430945825351    -0.278796080562     2.159901410230     1.007825032230
         H            2.266626174649    -0.608218080562    -0.883868589770     1.007825032230
         H            3.029346174649     0.713677919438    -0.000998589770     1.007825032230
         H            2.266922174649    -0.605930080562     0.885535410230     1.007825032230

  Basis Set: AUG-CC-PVTZ
    Blend: AUG-CC-PVTZ
  Basis Set: (AUG-CC-PVTZ AUX)
    Blend: AUG-CC-PVTZ-JKFIT
	 Reference Energy          =    -235.4141145827351238 [Eh]
	 Singles Energy            =      -0.0000000000000000 [Eh]
	 Same-Spin Energy          =      -0.2554349742501890 [Eh]
	 Opposite-Spin Energy      =      -0.9533585061751697 [Eh]
	 Correlation Energy        =      -1.2087934804253586 [Eh]
	 Total Energy              =    -236.6229080631604802 [Eh]

	 ================> DF-SCS-MP2 Energies <==================
	-----------------------------------------------------------
	 SCS Same-Spin Scale       =       0.3333333333333333 [-]
	 SCS Opposite-Spin Scale   =       1.2000000000000000 [-]
	 SCS Same-Spin Energy      =      -0.0851449914167297 [Eh]
	 SCS Opposite-Spin Energy  =      -1.1440302074102036 [Eh]
	 SCS Correlation Energy    =      -1.2291751988269333 [Eh]
	 SCS Total Energy          =    -236.6432897815620606 [Eh]
	-----------------------------------------------------------

  Dipole Moment: [D]
     X:    -0.0440      Y:    -0.0349      Z:     0.0303     Total:     0.0638

*** Psi4 exiting successfully. Buy a developer a beer!
