                               Psi4 1.3.2 release

  ==> Input File <==

--------------------------------------------------------------------------
#psi4
#
memory 32 gb

molecule  {
0 1
  C       -0.4325780     0.0000000    -0.0000100
  C        0.8671890     0.8245510    -0.0008470
  C       -0.5186390    -0.8803510    -1.2490450
  C       -1.6124710     0.9760830    -0.0007580
  C       -0.5183990    -0.8781140     1.2506300
  C        2.1754120     0.0349960    -0.0000500
  H        0.8502280     1.4838230    -0.8795210
  H        0.8502290     1.4855890     0.8765000
  H        0.2706380    -1.6377050    -1.2666100
  H       -0.4322060    -0.2762080    -2.1593560
  H       -1.4806460    -1.4035230    -1.2819340
  H       -1.5874350     1.6202330     0.8851840
  H       -1.5876340     1.6186070    -0.8878840
  H       -2.5658430     0.4362680    -0.0001590
  H        0.2708010    -1.6355150     1.2692820
  H       -1.4522152    -1.4470898     1.1835373
  H       -0.4316200    -0.2723440     2.1598230
  H        2.2659520    -0.6017660    -0.8839470
  H        3.0286720     0.7201300    -0.0010770
  H        2.2662480    -0.5994780     0.8854570
units angstrom
no_reorient  #important for SAPT in psi4, default
symmetry c1  #important for SAPT in psi4, default
}

set PROPERTIES_ORIGIN ["COM"]
properties('MP2/aug-cc-pvtz', properties = ['dipole'])
--------------------------------------------------------------------------

    Molecular point group: c1
  Charge       = 0
  Multiplicity = 1
  Basis Set: AUG-CC-PVTZ
    Blend: AUG-CC-PVTZ
  Basis Set: (AUG-CC-PVTZ AUX)
    Blend: AUG-CC-PVTZ-JKFIT

    Orbital Energies [Eh]
    ---------------------

    Doubly Occupied:

       1A    -11.226711     2A    -11.213433     3A    -11.208670
       4A    -11.207198     5A    -11.207146     6A    -11.206823
       7A     -1.109806     8A     -0.995991     9A     -0.927127
      10A     -0.926633    11A     -0.848571    12A     -0.720358
      13A     -0.625041    14A     -0.622651    15A     -0.597098
      16A     -0.580509    17A     -0.550952    18A     -0.530440
      19A     -0.524655    20A     -0.506061    21A     -0.499102
      22A     -0.484851    23A     -0.447423    24A     -0.444818
      25A     -0.436815

  @DF-RHF Final Energy:  -235.44631769401838

   => Energetics <=

    Nuclear Repulsion Energy =            266.5968333963717214
    One-Electron Energy =                -844.7885414212423711
    Two-Electron Energy =                 342.7453903308522740
    Total Energy =                       -235.4463176940183757
  Basis Set: (AUG-CC-PVTZ AUX)
    Blend: AUG-CC-PVTZ-RI
    Molecular point group: c1

    Geometry (in Angstrom), charge = 0, multiplicity = 1:

       Center              X                  Y                   Z               Mass
    ------------   -----------------  -----------------  -----------------  -----------------
         C           -0.430178867215    -0.004796429924     0.001179795057    12.000000000000
         C            0.869588132785     0.819754570076     0.000342795057    12.000000000000
         C           -0.516239867215    -0.885147429924    -1.247855204943    12.000000000000
         C           -1.610071867215     0.971286570076     0.000431795057    12.000000000000
         C           -0.515999867215    -0.882910429924     1.251819795057    12.000000000000
         C            2.177811132785     0.030199570076     0.001139795057    12.000000000000
         H            0.852627132785     1.479026570076    -0.878331204943     1.007825032230
         H            0.852628132785     1.480792570076     0.877689795057     1.007825032230
         H            0.273037132785    -1.642501429924    -1.265420204943     1.007825032230
         H           -0.429806867215    -0.281004429924    -2.158166204943     1.007825032230
         H           -1.478246867215    -1.408319429924    -1.280744204943     1.007825032230
         H           -1.585035867215     1.615436570076     0.886373795057     1.007825032230
         H           -1.585234867215     1.613810570076    -0.886694204943     1.007825032230
         H           -2.563443867215     0.431471570076     0.001030795057     1.007825032230
         H            0.273200132785    -1.640311429924     1.270471795057     1.007825032230
         H           -1.449816067215    -1.451886229924     1.184727095057     1.007825032230
         H           -0.429220867215    -0.277140429924     2.161012795057     1.007825032230
         H            2.268351132785    -0.606562429924    -0.882757204943     1.007825032230
         H            3.031071132785     0.715333570076     0.000112795057     1.007825032230
         H            2.268647132785    -0.604274429924     0.886646795057     1.007825032230

  Basis Set: AUG-CC-PVTZ
    Blend: AUG-CC-PVTZ
  Basis Set: (AUG-CC-PVTZ AUX)
    Blend: AUG-CC-PVTZ-JKFIT
	 Reference Energy          =    -235.4463176940183757 [Eh]
	 Singles Energy            =      -0.0000000000000000 [Eh]
	 Same-Spin Energy          =      -0.2555225204930645 [Eh]
	 Opposite-Spin Energy      =      -0.9542684237394992 [Eh]
	 Correlation Energy        =      -1.2097909442325636 [Eh]
	 Total Energy              =    -236.6561086382509416 [Eh]

	 ================> DF-SCS-MP2 Energies <==================
	-----------------------------------------------------------
	 SCS Same-Spin Scale       =       0.3333333333333333 [-]
	 SCS Opposite-Spin Scale   =       1.2000000000000000 [-]
	 SCS Same-Spin Energy      =      -0.0851741734976881 [Eh]
	 SCS Opposite-Spin Energy  =      -1.1451221084873990 [Eh]
	 SCS Correlation Energy    =      -1.2302962819850871 [Eh]
	 SCS Total Energy          =    -236.6766139760034662 [Eh]
	-----------------------------------------------------------

  Dipole Moment: [D]
     X:     0.0688      Y:     0.0206      Z:    -0.0235     Total:     0.0756

*** Psi4 exiting successfully. Buy a developer a beer!
