                               Psi4 1.3.2 release

  ==> Input File <==

--------------------------------------------------------------------------
#psi4
#
memory 32 gb

molecule  {
0 1
  C       -0.4721868     0.0783147     0.1351058
  C        0.8671890     0.8245510    -0.0008470
  C       -0.5186390    -0.8803510    -1.2490450
  C       -1.6124710     0.9760830    -0.0007580
  C       -0.5183990    -0.8781140     1.2506300
  C        2.1754120     0.0349960    -0.0000500
  H        0.8502280     1.4838230    -0.8795210
  H        0.8502290     1.4855890     0.8765000
  H        0.2706380    -1.6377050    -1.2666100
  H       -0.4322060    -0.2762080    -2.1593560
  H       -1.4806460    -1.4035230    -1.2819340
  H       -1.5874350     1.6202330     0.8851840
  H       -1.5876340     1.6186070    -0.8878840
  H       -2.5658430     0.4362680    -0.0001590
  H        0.2708010    -1.6355150     1.2692820
  H       -1.4804630    -1.4011040     1.2847180
  H       -0.4316200    -0.2723440     2.1598230
  H        2.2659520    -0.6017660    -0.8839470
  H        3.0286720     0.7201300    -0.0010770
  H        2.2662480    -0.5994780     0.8854570
units angstrom
no_reorient  #important for SAPT in psi4, default
symmetry c1  #important for SAPT in psi4, default
}

set PROPERTIES_ORIGIN ["COM"]
properties('MP2/aug-cc-pvtz', properties = ['dipole'])
--------------------------------------------------------------------------

    Molecular point group: c1
  Charge       = 0
  Multiplicity = 1
  Basis Set: AUG-CC-PVTZ
    Blend: AUG-CC-PVTZ
  Basis Set: (AUG-CC-PVTZ AUX)
    Blend: AUG-CC-PVTZ-JKFIT

    Orbital Energies [Eh]
    ---------------------

    Doubly Occupied:

       1A    -11.230753     2A    -11.215531     3A    -11.210967
       4A    -11.207868     5A    -11.207248     6A    -11.205737
       7A     -1.113976     8A     -0.999419     9A     -0.940460
      10A     -0.912360    11A     -0.852095    12A     -0.720969
      13A     -0.626596    14A     -0.623941    15A     -0.597909
      16A     -0.582523    17A     -0.551554    18A     -0.535461
      19A     -0.518754    20A     -0.511278    21A     -0.501922
      22A     -0.484292    23A     -0.473024    24A     -0.449707
      25A     -0.392032

  @DF-RHF Final Energy:  -235.42387873329605

   => Energetics <=

    Nuclear Repulsion Energy =            266.3698037672972987
    One-Electron Energy =                -844.2546113327530293
    Two-Electron Energy =                 342.4609288321597091
    Total Energy =                       -235.4238787332960214
  Basis Set: (AUG-CC-PVTZ AUX)
    Blend: AUG-CC-PVTZ-RI
    Molecular point group: c1

    Geometry (in Angstrom), charge = 0, multiplicity = 1:

       Center              X                  Y                   Z               Mass
    ------------   -----------------  -----------------  -----------------  -----------------
         C           -0.463937277365     0.062066322700     0.116281995716    12.000000000000
         C            0.875438522635     0.808302622700    -0.019670804284    12.000000000000
         C           -0.510389477365    -0.896599377300    -1.267868804284    12.000000000000
         C           -1.604221477365     0.959834622700    -0.019581804284    12.000000000000
         C           -0.510149477365    -0.894362377300     1.231806195716    12.000000000000
         C            2.183661522635     0.018747622700    -0.018873804284    12.000000000000
         H            0.858477522635     1.467574622700    -0.898344804284     1.007825032230
         H            0.858478522635     1.469340622700     0.857676195716     1.007825032230
         H            0.278887522635    -1.653953377300    -1.285433804284     1.007825032230
         H           -0.423956477365    -0.292456377300    -2.178179804284     1.007825032230
         H           -1.472396477365    -1.419771377300    -1.300757804284     1.007825032230
         H           -1.579185477365     1.603984622700     0.866360195716     1.007825032230
         H           -1.579384477365     1.602358622700    -0.906707804284     1.007825032230
         H           -2.557593477365     0.420019622700    -0.018982804284     1.007825032230
         H            0.279050522635    -1.651763377300     1.250458195716     1.007825032230
         H           -1.472213477365    -1.417352377300     1.265894195716     1.007825032230
         H           -0.423370477365    -0.288592377300     2.140999195716     1.007825032230
         H            2.274201522635    -0.618014377300    -0.902770804284     1.007825032230
         H            3.036921522635     0.703881622700    -0.019900804284     1.007825032230
         H            2.274497522635    -0.615726377300     0.866633195716     1.007825032230

  Basis Set: AUG-CC-PVTZ
    Blend: AUG-CC-PVTZ
  Basis Set: (AUG-CC-PVTZ AUX)
    Blend: AUG-CC-PVTZ-JKFIT
	 Reference Energy          =    -235.4238787332960499 [Eh]
	 Singles Energy            =      -0.0000000000000000 [Eh]
	 Same-Spin Energy          =      -0.2564564404142584 [Eh]
	 Opposite-Spin Energy      =      -0.9560071290970940 [Eh]
	 Correlation Energy        =      -1.2124635695113524 [Eh]
	 Total Energy              =    -236.6363423028074067 [Eh]

	 ================> DF-SCS-MP2 Energies <==================
	-----------------------------------------------------------
	 SCS Same-Spin Scale       =       0.3333333333333333 [-]
	 SCS Opposite-Spin Scale   =       1.2000000000000000 [-]
	 SCS Same-Spin Energy      =      -0.0854854801380861 [Eh]
	 SCS Opposite-Spin Energy  =      -1.1472085549165127 [Eh]
	 SCS Correlation Energy    =      -1.2326940350545990 [Eh]
	 SCS Total Energy          =    -236.6565727683506566 [Eh]
	-----------------------------------------------------------

  Dipole Moment: [D]
     X:     0.0495      Y:     0.0716      Z:     0.0823     Total:     0.1198

*** Psi4 exiting successfully. Buy a developer a beer!
