                               Psi4 1.3.2 release

  ==> Input File <==

--------------------------------------------------------------------------
#psi4
#
memory 32 gb

molecule  {
0 1
  C       -0.4325780     0.0000000    -0.0000100
  C        0.8671890     0.8245510    -0.0008470
  C       -0.5186390    -0.8803510    -1.2490450
  C       -1.6124710     0.9760830    -0.0007580
  C       -0.5183990    -0.8781140     1.2506300
  C        2.1754120     0.0349960    -0.0000500
  H        0.8494514     1.5140766    -0.8559699
  H        0.8502290     1.4855890     0.8765000
  H        0.2706380    -1.6377050    -1.2666100
  H       -0.4322060    -0.2762080    -2.1593560
  H       -1.4806460    -1.4035230    -1.2819340
  H       -1.5874350     1.6202330     0.8851840
  H       -1.5876340     1.6186070    -0.8878840
  H       -2.5658430     0.4362680    -0.0001590
  H        0.2708010    -1.6355150     1.2692820
  H       -1.4804630    -1.4011040     1.2847180
  H       -0.4316200    -0.2723440     2.1598230
  H        2.2659520    -0.6017660    -0.8839470
  H        3.0286720     0.7201300    -0.0010770
  H        2.2662480    -0.5994780     0.8854570
units angstrom
no_reorient  #important for SAPT in psi4, default
symmetry c1  #important for SAPT in psi4, default
}

set PROPERTIES_ORIGIN ["COM"]
properties('MP2/aug-cc-pvtz', properties = ['dipole'])
--------------------------------------------------------------------------

    Molecular point group: c1
  Charge       = 0
  Multiplicity = 1
  Basis Set: AUG-CC-PVTZ
    Blend: AUG-CC-PVTZ
  Basis Set: (AUG-CC-PVTZ AUX)
    Blend: AUG-CC-PVTZ-JKFIT

    Orbital Energies [Eh]
    ---------------------

    Doubly Occupied:

       1A    -11.227464     2A    -11.213724     3A    -11.209087
       4A    -11.207012     5A    -11.206874     6A    -11.206845
       7A     -1.109399     8A     -0.995873     9A     -0.926934
      10A     -0.926672    11A     -0.849027    12A     -0.722157
      13A     -0.624414    14A     -0.620816    15A     -0.596301
      16A     -0.580497    17A     -0.550249    18A     -0.529698
      19A     -0.523599    20A     -0.507853    21A     -0.500743
      22A     -0.482912    23A     -0.447122    24A     -0.445305
      25A     -0.438687

  @DF-RHF Final Energy:  -235.44757004652578

   => Energetics <=

    Nuclear Repulsion Energy =            266.4659464485454805
    One-Electron Energy =                -844.5285035500523918
    Two-Electron Energy =                 342.6149870549810430
    Total Energy =                       -235.4475700465258114
  Basis Set: (AUG-CC-PVTZ AUX)
    Blend: AUG-CC-PVTZ-RI
    Molecular point group: c1

    Geometry (in Angstrom), charge = 0, multiplicity = 1:

       Center              X                  Y                   Z               Mass
    ------------   -----------------  -----------------  -----------------  -----------------
         C           -0.429839166024    -0.005688734846    -0.000280064269    12.000000000000
         C            0.869927833976     0.818862265154    -0.001117064269    12.000000000000
         C           -0.515900166024    -0.886039734846    -1.249315064269    12.000000000000
         C           -1.609732166024     0.970394265154    -0.001028064269    12.000000000000
         C           -0.515660166024    -0.883802734846     1.250359935731    12.000000000000
         C            2.178150833976     0.029307265154    -0.000320064269    12.000000000000
         H            0.852190233976     1.508387865154    -0.856239964269     1.007825032230
         H            0.852967833976     1.479900265154     0.876229935731     1.007825032230
         H            0.273376833976    -1.643393734846    -1.266880064269     1.007825032230
         H           -0.429467166024    -0.281896734846    -2.159626064269     1.007825032230
         H           -1.477907166024    -1.409211734846    -1.282204064269     1.007825032230
         H           -1.584696166024     1.614544265154     0.884913935731     1.007825032230
         H           -1.584895166024     1.612918265154    -0.888154064269     1.007825032230
         H           -2.563104166024     0.430579265154    -0.000429064269     1.007825032230
         H            0.273539833976    -1.641203734846     1.269011935731     1.007825032230
         H           -1.477724166024    -1.406792734846     1.284447935731     1.007825032230
         H           -0.428881166024    -0.278032734846     2.159552935731     1.007825032230
         H            2.268690833976    -0.607454734846    -0.884217064269     1.007825032230
         H            3.031410833976     0.714441265154    -0.001347064269     1.007825032230
         H            2.268986833976    -0.605166734846     0.885186935731     1.007825032230

  Basis Set: AUG-CC-PVTZ
    Blend: AUG-CC-PVTZ
  Basis Set: (AUG-CC-PVTZ AUX)
    Blend: AUG-CC-PVTZ-JKFIT
	 Reference Energy          =    -235.4475700465257830 [Eh]
	 Singles Energy            =      -0.0000000000000000 [Eh]
	 Same-Spin Energy          =      -0.2553793902135666 [Eh]
	 Opposite-Spin Energy      =      -0.9540390629386610 [Eh]
	 Correlation Energy        =      -1.2094184531522276 [Eh]
	 Total Energy              =    -236.6569884996780218 [Eh]

	 ================> DF-SCS-MP2 Energies <==================
	-----------------------------------------------------------
	 SCS Same-Spin Scale       =       0.3333333333333333 [-]
	 SCS Opposite-Spin Scale   =       1.2000000000000000 [-]
	 SCS Same-Spin Energy      =      -0.0851264634045222 [Eh]
	 SCS Opposite-Spin Energy  =      -1.1448468755263932 [Eh]
	 SCS Correlation Energy    =      -1.2299733389309153 [Eh]
	 SCS Total Energy          =    -236.6775433854566870 [Eh]
	-----------------------------------------------------------

  Dipole Moment: [D]
     X:     0.0547      Y:     0.0401      Z:     0.0044     Total:     0.0679

*** Psi4 exiting successfully. Buy a developer a beer!
