                               Psi4 1.3.2 release

  ==> Input File <==

--------------------------------------------------------------------------
#psi4
#
memory 32 gb

molecule  {
0 1
  C       -0.4325780     0.0000000    -0.0000100
  C        0.8671890     0.8245510    -0.0008470
  C       -0.5186390    -0.8803510    -1.2490450
  C       -1.6124710     0.9760830    -0.0007580
  C       -0.5183990    -0.8781140     1.2506300
  C        2.1754120     0.0349960    -0.0000500
  H        0.8526780     1.3883952    -0.9436430
  H        0.8502290     1.4855890     0.8765000
  H        0.2706380    -1.6377050    -1.2666100
  H       -0.4322060    -0.2762080    -2.1593560
  H       -1.4806460    -1.4035230    -1.2819340
  H       -1.5874350     1.6202330     0.8851840
  H       -1.5876340     1.6186070    -0.8878840
  H       -2.5658430     0.4362680    -0.0001590
  H        0.2708010    -1.6355150     1.2692820
  H       -1.4804630    -1.4011040     1.2847180
  H       -0.4316200    -0.2723440     2.1598230
  H        2.2659520    -0.6017660    -0.8839470
  H        3.0286720     0.7201300    -0.0010770
  H        2.2662480    -0.5994780     0.8854570
units angstrom
no_reorient  #important for SAPT in psi4, default
symmetry c1  #important for SAPT in psi4, default
}

set PROPERTIES_ORIGIN ["COM"]
properties('MP2/aug-cc-pvtz', properties = ['dipole'])
--------------------------------------------------------------------------

    Molecular point group: c1
  Charge       = 0
  Multiplicity = 1
  Basis Set: AUG-CC-PVTZ
    Blend: AUG-CC-PVTZ
  Basis Set: (AUG-CC-PVTZ AUX)
    Blend: AUG-CC-PVTZ-JKFIT

    Orbital Energies [Eh]
    ---------------------

    Doubly Occupied:

       1A    -11.226785     2A    -11.214150     3A    -11.208309
       4A    -11.207218     5A    -11.206863     6A    -11.206653
       7A     -1.110014     8A     -0.996321     9A     -0.927240
      10A     -0.926472    11A     -0.848013    12A     -0.719633
      13A     -0.627944    14A     -0.622656    15A     -0.596498
      16A     -0.581598    17A     -0.549128    18A     -0.529309
      19A     -0.523813    20A     -0.508565    21A     -0.497153
      22A     -0.486978    23A     -0.449619    24A     -0.443775
      25A     -0.435384

  @DF-RHF Final Energy:  -235.44629424588948

   => Energetics <=

    Nuclear Repulsion Energy =            266.6016319575502393
    One-Electron Energy =                -844.7956738619540147
    Two-Electron Energy =                 342.7477476585142995
    Total Energy =                       -235.4462942458894759
  Basis Set: (AUG-CC-PVTZ AUX)
    Blend: AUG-CC-PVTZ-RI
    Molecular point group: c1

    Geometry (in Angstrom), charge = 0, multiplicity = 1:

       Center              X                  Y                   Z               Mass
    ------------   -----------------  -----------------  -----------------  -----------------
         C           -0.429876930107    -0.004217761414     0.000746060526    12.000000000000
         C            0.869890069893     0.820333238586    -0.000090939474    12.000000000000
         C           -0.515937930107    -0.884568761414    -1.248288939474    12.000000000000
         C           -1.609769930107     0.971865238586    -0.000001939474    12.000000000000
         C           -0.515697930107    -0.882331761414     1.251386060526    12.000000000000
         C            2.178113069893     0.030778238586     0.000706060526    12.000000000000
         H            0.855379069893     1.384177438586    -0.942886939474     1.007825032230
         H            0.852930069893     1.481371238586     0.877256060526     1.007825032230
         H            0.273339069893    -1.641922761414    -1.265853939474     1.007825032230
         H           -0.429504930107    -0.280425761414    -2.158599939474     1.007825032230
         H           -1.477944930107    -1.407740761414    -1.281177939474     1.007825032230
         H           -1.584733930107     1.616015238586     0.885940060526     1.007825032230
         H           -1.584932930107     1.614389238586    -0.887127939474     1.007825032230
         H           -2.563141930107     0.432050238586     0.000597060526     1.007825032230
         H            0.273502069893    -1.639732761414     1.270038060526     1.007825032230
         H           -1.477761930107    -1.405321761414     1.285474060526     1.007825032230
         H           -0.428918930107    -0.276561761414     2.160579060526     1.007825032230
         H            2.268653069893    -0.605983761414    -0.883190939474     1.007825032230
         H            3.031373069893     0.715912238586    -0.000320939474     1.007825032230
         H            2.268949069893    -0.603695761414     0.886213060526     1.007825032230

  Basis Set: AUG-CC-PVTZ
    Blend: AUG-CC-PVTZ
  Basis Set: (AUG-CC-PVTZ AUX)
    Blend: AUG-CC-PVTZ-JKFIT
	 Reference Energy          =    -235.4462942458894759 [Eh]
	 Singles Energy            =      -0.0000000000000000 [Eh]
	 Same-Spin Energy          =      -0.2555066341962478 [Eh]
	 Opposite-Spin Energy      =      -0.9543005867222505 [Eh]
	 Correlation Energy        =      -1.2098072209184982 [Eh]
	 Total Energy              =    -236.6561014668079679 [Eh]

	 ================> DF-SCS-MP2 Energies <==================
	-----------------------------------------------------------
	 SCS Same-Spin Scale       =       0.3333333333333333 [-]
	 SCS Opposite-Spin Scale   =       1.2000000000000000 [-]
	 SCS Same-Spin Energy      =      -0.0851688780654159 [Eh]
	 SCS Opposite-Spin Energy  =      -1.1451607040667005 [Eh]
	 SCS Correlation Energy    =      -1.2303295821321163 [Eh]
	 SCS Total Energy          =    -236.6766238280216044 [Eh]
	-----------------------------------------------------------

  Dipole Moment: [D]
     X:     0.0479      Y:     0.0071      Z:    -0.0095     Total:     0.0493

*** Psi4 exiting successfully. Buy a developer a beer!
