                               Psi4 1.3.2 release

  ==> Input File <==

--------------------------------------------------------------------------
#psi4
#
memory 32 gb

molecule  {
0 1
  C       -0.4325780     0.0000000    -0.0000100
  C        0.8671890     0.8245510    -0.0008470
  C       -0.5186390    -0.8803510    -1.2490450
  C       -1.6124710     0.9760830    -0.0007580
  C       -0.5183990    -0.8781140     1.2506300
  C        2.1754120     0.0349960    -0.0000500
  H        0.8502280     1.4838230    -0.8795210
  H        0.8502290     1.4855890     0.8765000
  H        0.2706380    -1.6377050    -1.2666100
  H       -0.4322060    -0.2762080    -2.1593560
  H       -1.4806460    -1.4035230    -1.2819340
  H       -1.5874350     1.6202330     0.8851840
  H       -1.5876340     1.6186070    -0.8878840
  H       -2.5658430     0.4362680    -0.0001590
  H        0.2708010    -1.6355150     1.2692820
  H       -1.4875486    -1.3844753     1.3184166
  H       -0.4316200    -0.2723440     2.1598230
  H        2.2659520    -0.6017660    -0.8839470
  H        3.0286720     0.7201300    -0.0010770
  H        2.2662480    -0.5994780     0.8854570
units angstrom
no_reorient  #important for SAPT in psi4, default
symmetry c1  #important for SAPT in psi4, default
}

set PROPERTIES_ORIGIN ["COM"]
properties('MP2/aug-cc-pvtz', properties = ['dipole'])
--------------------------------------------------------------------------

    Molecular point group: c1
  Charge       = 0
  Multiplicity = 1
  Basis Set: AUG-CC-PVTZ
    Blend: AUG-CC-PVTZ
  Basis Set: (AUG-CC-PVTZ AUX)
    Blend: AUG-CC-PVTZ-JKFIT

    Orbital Energies [Eh]
    ---------------------

    Doubly Occupied:

       1A    -11.227492     2A    -11.213951     3A    -11.208940
       4A    -11.206889     5A    -11.206872     6A    -11.206848
       7A     -1.109463     8A     -0.995950     9A     -0.927168
      10A     -0.926500    11A     -0.848794    12A     -0.721911
      13A     -0.623751    14A     -0.622470    15A     -0.596230
      16A     -0.580892    17A     -0.549861    18A     -0.529228
      19A     -0.523096    20A     -0.508515    21A     -0.499867
      22A     -0.483752    23A     -0.448039    24A     -0.444898
      25A     -0.438272

  @DF-RHF Final Energy:  -235.44759192391763

   => Energetics <=

    Nuclear Repulsion Energy =            266.4675520710835031
    One-Electron Energy =                -844.5309933696166809
    Two-Electron Energy =                 342.6158493746156068
    Total Energy =                       -235.4475919239176278
  Basis Set: (AUG-CC-PVTZ AUX)
    Blend: AUG-CC-PVTZ-RI
    Molecular point group: c1

    Geometry (in Angstrom), charge = 0, multiplicity = 1:

       Center              X                  Y                   Z               Mass
    ------------   -----------------  -----------------  -----------------  -----------------
         C           -0.429765325572    -0.005529269198    -0.000398830474    12.000000000000
         C            0.870001674428     0.819021730802    -0.001235830474    12.000000000000
         C           -0.515826325572    -0.885880269198    -1.249433830474    12.000000000000
         C           -1.609658325572     0.970553730802    -0.001146830474    12.000000000000
         C           -0.515586325572    -0.883643269198     1.250241169526    12.000000000000
         C            2.178224674428     0.029466730802    -0.000438830474    12.000000000000
         H            0.853040674428     1.478293730802    -0.879909830474     1.007825032230
         H            0.853041674428     1.480059730802     0.876111169526     1.007825032230
         H            0.273450674428    -1.643234269198    -1.266998830474     1.007825032230
         H           -0.429393325572    -0.281737269198    -2.159744830474     1.007825032230
         H           -1.477833325572    -1.409052269198    -1.282322830474     1.007825032230
         H           -1.584622325572     1.614703730802     0.884795169526     1.007825032230
         H           -1.584821325572     1.613077730802    -0.888272830474     1.007825032230
         H           -2.563030325572     0.430738730802    -0.000547830474     1.007825032230
         H            0.273613674428    -1.641044269198     1.268893169526     1.007825032230
         H           -1.484735925572    -1.390004569198     1.318027769526     1.007825032230
         H           -0.428807325572    -0.277873269198     2.159434169526     1.007825032230
         H            2.268764674428    -0.607295269198    -0.884335830474     1.007825032230
         H            3.031484674428     0.714600730802    -0.001465830474     1.007825032230
         H            2.269060674428    -0.605007269198     0.885068169526     1.007825032230

  Basis Set: AUG-CC-PVTZ
    Blend: AUG-CC-PVTZ
  Basis Set: (AUG-CC-PVTZ AUX)
    Blend: AUG-CC-PVTZ-JKFIT
	 Reference Energy          =    -235.4475919239176278 [Eh]
	 Singles Energy            =      -0.0000000000000000 [Eh]
	 Same-Spin Energy          =      -0.2553729856629534 [Eh]
	 Opposite-Spin Energy      =      -0.9540409647435234 [Eh]
	 Correlation Energy        =      -1.2094139504064767 [Eh]
	 Total Energy              =    -236.6570058743241134 [Eh]

	 ================> DF-SCS-MP2 Energies <==================
	-----------------------------------------------------------
	 SCS Same-Spin Scale       =       0.3333333333333333 [-]
	 SCS Opposite-Spin Scale   =       1.2000000000000000 [-]
	 SCS Same-Spin Energy      =      -0.0851243285543178 [Eh]
	 SCS Opposite-Spin Energy  =      -1.1448491576922279 [Eh]
	 SCS Correlation Energy    =      -1.2299734862465457 [Eh]
	 SCS Total Energy          =    -236.6775654101641635 [Eh]
	-----------------------------------------------------------

  Dipole Moment: [D]
     X:     0.0486      Y:     0.0365      Z:     0.0082     Total:     0.0613

*** Psi4 exiting successfully. Buy a developer a beer!
