                               Psi4 1.4a3.dev225

  ==> Input File <==

--------------------------------------------------------------------------
#psi4
#
memory 32 gb

molecule  {
0 1
  O       -1.2892700     0.0000060    -0.8145290
  O       -0.5960130    -0.0000230     1.3422680
  O       -2.6196050     0.0000040    -0.2122050
  C        1.0437460     0.0000040    -0.4660030
  C        1.7813420     1.2673450    -0.0261740
  C        1.7813650    -1.2673310    -0.0262020
  C       -0.3290300    -0.0000080     0.1485520
  H        0.9245400     0.0000150    -1.5545560
  H        1.8622080     1.2945800     1.0634230
  H        1.2577770     2.1678420    -0.3590640
  H        2.7877650     1.2776000    -0.4534740
  H        1.8622170    -1.2945980     1.0633950
  H        2.7877950    -1.2775480    -0.4534850
  H        1.2817667    -2.1266584    -0.3439047
  H       -2.3655580    -0.0000240     0.7475810
units angstrom
no_reorient  #important for SAPT in psi4, default
symmetry c1  #important for SAPT in psi4, default
}

set PROPERTIES_ORIGIN ["COM"]
properties('MP2/aug-cc-pvtz', properties = ['dipole'])
--------------------------------------------------------------------------

    Molecular point group: c1
  Charge       = 0
  Multiplicity = 1
  Basis Set: AUG-CC-PVTZ
    Blend: AUG-CC-PVTZ
  Basis Set: (AUG-CC-PVTZ AUX)
    Blend: AUG-CC-PVTZ-JKFIT

    Orbital Energies [Eh]
    ---------------------

    Doubly Occupied:

       1A    -20.673211     2A    -20.646767     3A    -20.573711
       4A    -11.405080     5A    -11.267295     6A    -11.238587
       7A    -11.232853     8A     -1.526998     9A     -1.401133
      10A     -1.263353    11A     -1.105506    12A     -0.959149
      13A     -0.893667    14A     -0.807933    15A     -0.737885
      16A     -0.687339    17A     -0.686434    18A     -0.644749
      19A     -0.612664    20A     -0.596445    21A     -0.591210
      22A     -0.564087    23A     -0.542091    24A     -0.539286
      25A     -0.505240    26A     -0.502566    27A     -0.474290
      28A     -0.472130

  @DF-RHF Final Energy:  -380.77477515907549

   => Energetics <=

    Nuclear Repulsion Energy =            321.3991768449720894
    One-Electron Energy =               -1158.0445806305938277
    Two-Electron Energy =                 455.8706286265462495
    Total Energy =                       -380.7747751590754888
  Basis Set: (AUG-CC-PVTZ AUX)
    Blend: AUG-CC-PVTZ-RI
    Molecular point group: c1

    Geometry (in Angstrom), charge = 0, multiplicity = 1:

       Center              X                  Y                   Z               Mass
    ------------   -----------------  -----------------  -----------------  -----------------
         O           -1.190792296063    -0.000392310260    -0.817572429605    15.994914619570
         O           -0.497535296063    -0.000421310260     1.339224570395    15.994914619570
         O           -2.521127296063    -0.000394310260    -0.215248429605    15.994914619570
         C            1.142223703937    -0.000394310260    -0.469046429605    12.000000000000
         C            1.879819703937     1.266946689740    -0.029217429605    12.000000000000
         C            1.879842703937    -1.267729310260    -0.029245429605    12.000000000000
         C           -0.230552296063    -0.000406310260     0.145508570395    12.000000000000
         H            1.023017703937    -0.000383310260    -1.557599429605     1.007825032230
         H            1.960685703937     1.294181689740     1.060379570395     1.007825032230
         H            1.356254703937     2.167443689740    -0.362107429605     1.007825032230
         H            2.886242703937     1.277201689740    -0.456517429605     1.007825032230
         H            1.960694703937    -1.294996310260     1.060351570395     1.007825032230
         H            2.886272703937    -1.277946310260    -0.456528429605     1.007825032230
         H            1.380244403937    -2.127056710260    -0.346948129605     1.007825032230
         H           -2.267080296063    -0.000422310260     0.744537570395     1.007825032230

  Basis Set: AUG-CC-PVTZ
    Blend: AUG-CC-PVTZ
  Basis Set: (AUG-CC-PVTZ AUX)
    Blend: AUG-CC-PVTZ-JKFIT
	 Reference Energy          =    -380.7747751590754888 [Eh]
	 Singles Energy            =      -0.0000000000000000 [Eh]
	 Same-Spin Energy          =      -0.3702258622506833 [Eh]
	 Opposite-Spin Energy      =      -1.1765997600758524 [Eh]
	 Correlation Energy        =      -1.5468256223265358 [Eh]
	 Total Energy              =    -382.3216007814020259 [Eh]

	 ================> DF-SCS-MP2 Energies <==================
	-----------------------------------------------------------
	 SCS Same-Spin Scale       =       0.3333333333333333 [-]
	 SCS Opposite-Spin Scale   =       1.2000000000000000 [-]
	 SCS Same-Spin Energy      =      -0.1234086207502278 [Eh]
	 SCS Opposite-Spin Energy  =      -1.4119197120910230 [Eh]
	 SCS Correlation Energy    =      -1.5353283328412508 [Eh]
	 SCS Total Energy          =    -382.3101034919167205 [Eh]
	-----------------------------------------------------------

  Dipole Moment: [D]
     X:     2.6191      Y:    -0.0248      Z:    -0.4354     Total:     2.6551

*** Psi4 exiting successfully. Buy a developer a beer!
