                               Psi4 1.4a3.dev225

  ==> Input File <==

--------------------------------------------------------------------------
#psi4
#
memory 32 gb

molecule  {
0 1
  O       -1.2892700     0.0000060    -0.8145290
  O       -0.5960130    -0.0000230     1.3422680
  O       -2.6196050     0.0000040    -0.2122050
  C        1.0437460     0.0000040    -0.4660030
  C        1.7813420     1.2673450    -0.0261740
  C        1.9053586    -1.2152725    -0.1133397
  C       -0.3290300    -0.0000080     0.1485520
  H        0.9245400     0.0000150    -1.5545560
  H        1.8622080     1.2945800     1.0634230
  H        1.2577770     2.1678420    -0.3590640
  H        2.7877650     1.2776000    -0.4534740
  H        1.8622170    -1.2945980     1.0633950
  H        2.7877950    -1.2775480    -0.4534850
  H        1.2578290    -2.1678320    -0.3591270
  H       -2.3655580    -0.0000240     0.7475810
units angstrom
no_reorient  #important for SAPT in psi4, default
symmetry c1  #important for SAPT in psi4, default
}

set PROPERTIES_ORIGIN ["COM"]
properties('MP2/aug-cc-pvtz', properties = ['dipole'])
--------------------------------------------------------------------------

    Molecular point group: c1
  Charge       = 0
  Multiplicity = 1
  Basis Set: AUG-CC-PVTZ
    Blend: AUG-CC-PVTZ
  Basis Set: (AUG-CC-PVTZ AUX)
    Blend: AUG-CC-PVTZ-JKFIT

    Orbital Energies [Eh]
    ---------------------

    Doubly Occupied:

       1A    -20.675260     2A    -20.648944     3A    -20.576516
       4A    -11.409130     5A    -11.268923     6A    -11.242345
       7A    -11.237982     8A     -1.528962     9A     -1.403230
      10A     -1.265246    11A     -1.105864    12A     -0.955695
      13A     -0.899009    14A     -0.810913    15A     -0.738226
      16A     -0.690588    17A     -0.686651    18A     -0.649367
      19A     -0.613821    20A     -0.604548    21A     -0.597520
      22A     -0.558300    23A     -0.550152    24A     -0.537905
      25A     -0.492697    26A     -0.480893    27A     -0.476908
      28A     -0.474298

  @DF-RHF Final Energy:  -380.74313022709612

   => Energetics <=

    Nuclear Repulsion Energy =            320.5521570207317836
    One-Electron Energy =               -1156.2307852177214045
    Two-Electron Energy =                 454.9354979698935040
    Total Energy =                       -380.7431302270961169
  Basis Set: (AUG-CC-PVTZ AUX)
    Blend: AUG-CC-PVTZ-RI
    Molecular point group: c1

    Geometry (in Angstrom), charge = 0, multiplicity = 1:

       Center              X                  Y                   Z               Mass
    ------------   -----------------  -----------------  -----------------  -----------------
         O           -1.204860874162    -0.005997510664    -0.807375208100    15.994914619570
         O           -0.511603874162    -0.006026510664     1.349421791900    15.994914619570
         O           -2.535195874162    -0.005999510664    -0.205051208100    15.994914619570
         C            1.128155125838    -0.005999510664    -0.458849208100    12.000000000000
         C            1.865751125838     1.261341489336    -0.019020208100    12.000000000000
         C            1.989767725838    -1.221276010664    -0.106185908100    12.000000000000
         C           -0.244620874162    -0.006011510664     0.155705791900    12.000000000000
         H            1.008949125838    -0.005988510664    -1.547402208100     1.007825032230
         H            1.946617125838     1.288576489336     1.070576791900     1.007825032230
         H            1.342186125838     2.161838489336    -0.351910208100     1.007825032230
         H            2.872174125838     1.271596489336    -0.446320208100     1.007825032230
         H            1.946626125838    -1.300601510664     1.070548791900     1.007825032230
         H            2.872204125838    -1.283551510664    -0.446331208100     1.007825032230
         H            1.342238125838    -2.173835510664    -0.351973208100     1.007825032230
         H           -2.281148874162    -0.006027510664     0.754734791900     1.007825032230

  Basis Set: AUG-CC-PVTZ
    Blend: AUG-CC-PVTZ
  Basis Set: (AUG-CC-PVTZ AUX)
    Blend: AUG-CC-PVTZ-JKFIT
	 Reference Energy          =    -380.7431302270961169 [Eh]
	 Singles Energy            =      -0.0000000000000000 [Eh]
	 Same-Spin Energy          =      -0.3705468788696589 [Eh]
	 Opposite-Spin Energy      =      -1.1783292384914104 [Eh]
	 Correlation Energy        =      -1.5488761173610692 [Eh]
	 Total Energy              =    -382.2920063444572065 [Eh]

	 ================> DF-SCS-MP2 Energies <==================
	-----------------------------------------------------------
	 SCS Same-Spin Scale       =       0.3333333333333333 [-]
	 SCS Opposite-Spin Scale   =       1.2000000000000000 [-]
	 SCS Same-Spin Energy      =      -0.1235156262898863 [Eh]
	 SCS Opposite-Spin Energy  =      -1.4139950861896924 [Eh]
	 SCS Correlation Energy    =      -1.5375107124795786 [Eh]
	 SCS Total Energy          =    -382.2806409395756759 [Eh]
	-----------------------------------------------------------

  Dipole Moment: [D]
     X:     2.5578      Y:     0.0381      Z:    -0.4373     Total:     2.5952

*** Psi4 exiting successfully. Buy a developer a beer!
