                               Psi4 1.4a3.dev225

  ==> Input File <==

--------------------------------------------------------------------------
#psi4
#
memory 32 gb

molecule  {
0 1
  O       -1.2892700     0.0000060    -0.8145290
  O       -0.5960130    -0.0000230     1.3422680
  O       -2.6196050     0.0000040    -0.2122050
  C        1.0322645    -0.0371339    -0.3105473
  C        1.7813420     1.2673450    -0.0261740
  C        1.7813650    -1.2673310    -0.0262020
  C       -0.3290300    -0.0000080     0.1485520
  H        0.9245400     0.0000150    -1.5545560
  H        1.8622080     1.2945800     1.0634230
  H        1.2577770     2.1678420    -0.3590640
  H        2.7877650     1.2776000    -0.4534740
  H        1.8622170    -1.2945980     1.0633950
  H        2.7877950    -1.2775480    -0.4534850
  H        1.2578290    -2.1678320    -0.3591270
  H       -2.3655580    -0.0000240     0.7475810
units angstrom
no_reorient  #important for SAPT in psi4, default
symmetry c1  #important for SAPT in psi4, default
}

set PROPERTIES_ORIGIN ["COM"]
properties('MP2/aug-cc-pvtz', properties = ['dipole'])
--------------------------------------------------------------------------

    Molecular point group: c1
  Charge       = 0
  Multiplicity = 1
  Basis Set: AUG-CC-PVTZ
    Blend: AUG-CC-PVTZ
  Basis Set: (AUG-CC-PVTZ AUX)
    Blend: AUG-CC-PVTZ-JKFIT

    Orbital Energies [Eh]
    ---------------------

    Doubly Occupied:

       1A    -20.676237     2A    -20.650296     3A    -20.572620
       4A    -11.404656     5A    -11.272982     6A    -11.242023
       7A    -11.238412     8A     -1.529539     9A     -1.404486
      10A     -1.265326    11A     -1.116704    12A     -0.963575
      13A     -0.905080    14A     -0.811272    15A     -0.727127
      16A     -0.691063    17A     -0.683468    18A     -0.645998
      19A     -0.615058    20A     -0.601433    21A     -0.597550
      22A     -0.562053    23A     -0.553103    24A     -0.539822
      25A     -0.514671    26A     -0.483554    27A     -0.475893
      28A     -0.450486

  @DF-RHF Final Energy:  -380.74833944297114

   => Energetics <=

    Nuclear Repulsion Energy =            322.5897078914272811
    One-Electron Energy =               -1160.2871243290946950
    Two-Electron Energy =                 456.9490769946963269
    Total Energy =                       -380.7483394429711439
  Basis Set: (AUG-CC-PVTZ AUX)
    Blend: AUG-CC-PVTZ-RI
    Molecular point group: c1

    Geometry (in Angstrom), charge = 0, multiplicity = 1:

       Center              X                  Y                   Z               Mass
    ------------   -----------------  -----------------  -----------------  -----------------
         O           -1.189236244684     0.004289698578    -0.835354017408    15.994914619570
         O           -0.495979244684     0.004260698578     1.321442982592    15.994914619570
         O           -2.519571244684     0.004287698578    -0.233030017408    15.994914619570
         C            1.132298255316    -0.032850201422    -0.331372317408    12.000000000000
         C            1.881375755316     1.271628698578    -0.046999017408    12.000000000000
         C            1.881398755316    -1.263047301422    -0.047027017408    12.000000000000
         C           -0.228996244684     0.004275698578     0.127726982592    12.000000000000
         H            1.024573755316     0.004298698578    -1.575381017408     1.007825032230
         H            1.962241755316     1.298863698578     1.042597982592     1.007825032230
         H            1.357810755316     2.172125698578    -0.379889017408     1.007825032230
         H            2.887798755316     1.281883698578    -0.474299017408     1.007825032230
         H            1.962250755316    -1.290314301422     1.042569982592     1.007825032230
         H            2.887828755316    -1.273264301422    -0.474310017408     1.007825032230
         H            1.357862755316    -2.163548301422    -0.379952017408     1.007825032230
         H           -2.265524244684     0.004259698578     0.726755982592     1.007825032230

  Basis Set: AUG-CC-PVTZ
    Blend: AUG-CC-PVTZ
  Basis Set: (AUG-CC-PVTZ AUX)
    Blend: AUG-CC-PVTZ-JKFIT
	 Reference Energy          =    -380.7483394429711439 [Eh]
	 Singles Energy            =      -0.0000000000000000 [Eh]
	 Same-Spin Energy          =      -0.3714658936014468 [Eh]
	 Opposite-Spin Energy      =      -1.1793390647931430 [Eh]
	 Correlation Energy        =      -1.5508049583945898 [Eh]
	 Total Energy              =    -382.2991444013657087 [Eh]

	 ================> DF-SCS-MP2 Energies <==================
	-----------------------------------------------------------
	 SCS Same-Spin Scale       =       0.3333333333333333 [-]
	 SCS Opposite-Spin Scale   =       1.2000000000000000 [-]
	 SCS Same-Spin Energy      =      -0.1238219645338156 [Eh]
	 SCS Opposite-Spin Energy  =      -1.4152068777517715 [Eh]
	 SCS Correlation Energy    =      -1.5390288422855871 [Eh]
	 SCS Total Energy          =    -382.2873682852567185 [Eh]
	-----------------------------------------------------------

  Dipole Moment: [D]
     X:     2.6227      Y:    -0.0149      Z:    -0.3546     Total:     2.6466

*** Psi4 exiting successfully. Buy a developer a beer!
