                               Psi4 1.4a3.dev225

  ==> Input File <==

--------------------------------------------------------------------------
#psi4
#
memory 32 gb

molecule  {
0 1
  O       -1.2892700     0.0000060    -0.8145290
  O       -0.5960130    -0.0000230     1.3422680
  O       -2.6196050     0.0000040    -0.2122050
  C        1.0559036    -0.0324967    -0.5670668
  C        1.7813420     1.2673450    -0.0261740
  C        1.7813650    -1.2673310    -0.0262020
  C       -0.3290300    -0.0000080     0.1485520
  H        0.9245400     0.0000150    -1.5545560
  H        1.8622080     1.2945800     1.0634230
  H        1.2577770     2.1678420    -0.3590640
  H        2.7877650     1.2776000    -0.4534740
  H        1.8622170    -1.2945980     1.0633950
  H        2.7877950    -1.2775480    -0.4534850
  H        1.2578290    -2.1678320    -0.3591270
  H       -2.3655580    -0.0000240     0.7475810
units angstrom
no_reorient  #important for SAPT in psi4, default
symmetry c1  #important for SAPT in psi4, default
}

set PROPERTIES_ORIGIN ["COM"]
properties('MP2/aug-cc-pvtz', properties = ['dipole'])
--------------------------------------------------------------------------

    Molecular point group: c1
  Charge       = 0
  Multiplicity = 1
  Basis Set: AUG-CC-PVTZ
    Blend: AUG-CC-PVTZ
  Basis Set: (AUG-CC-PVTZ AUX)
    Blend: AUG-CC-PVTZ-JKFIT

    Orbital Energies [Eh]
    ---------------------

    Doubly Occupied:

       1A    -20.671277     2A    -20.644014     3A    -20.574868
       4A    -11.406303     5A    -11.267785     6A    -11.240967
       7A    -11.238899     8A     -1.525188     9A     -1.399889
      10A     -1.261519    11A     -1.098563    12A     -0.951198
      13A     -0.887380    14A     -0.810193    15A     -0.745565
      16A     -0.688683    17A     -0.684906    18A     -0.639616
      19A     -0.607222    20A     -0.595514    21A     -0.586281
      22A     -0.566008    23A     -0.541822    24A     -0.537207
      25A     -0.526846    26A     -0.489155    27A     -0.473175
      28A     -0.461986

  @DF-RHF Final Energy:  -380.76238492349228

   => Energetics <=

    Nuclear Repulsion Energy =            320.1235404588938991
    One-Electron Energy =               -1155.5277949455989983
    Two-Electron Energy =                 454.6418695632128220
    Total Energy =                       -380.7623849234922773
  Basis Set: (AUG-CC-PVTZ AUX)
    Blend: AUG-CC-PVTZ-RI
    Molecular point group: c1

    Geometry (in Angstrom), charge = 0, multiplicity = 1:

       Center              X                  Y                   Z               Mass
    ------------   -----------------  -----------------  -----------------  -----------------
         O           -1.191962592025     0.003754880506    -0.805769081568    15.994914619570
         O           -0.498705592025     0.003725880506     1.351027918432    15.994914619570
         O           -2.522297592025     0.003752880506    -0.203445081568    15.994914619570
         C            1.153211007975    -0.028747819494    -0.558306881568    12.000000000000
         C            1.878649407975     1.271093880506    -0.017414081568    12.000000000000
         C            1.878672407975    -1.263582119494    -0.017442081568    12.000000000000
         C           -0.231722592025     0.003740880506     0.157311918432    12.000000000000
         H            1.021847407975     0.003763880506    -1.545796081568     1.007825032230
         H            1.959515407975     1.298328880506     1.072182918432     1.007825032230
         H            1.355084407975     2.171590880506    -0.350304081568     1.007825032230
         H            2.885072407975     1.281348880506    -0.444714081568     1.007825032230
         H            1.959524407975    -1.290849119494     1.072154918432     1.007825032230
         H            2.885102407975    -1.273799119494    -0.444725081568     1.007825032230
         H            1.355136407975    -2.164083119494    -0.350367081568     1.007825032230
         H           -2.268250592025     0.003724880506     0.756340918432     1.007825032230

  Basis Set: AUG-CC-PVTZ
    Blend: AUG-CC-PVTZ
  Basis Set: (AUG-CC-PVTZ AUX)
    Blend: AUG-CC-PVTZ-JKFIT
	 Reference Energy          =    -380.7623849234922773 [Eh]
	 Singles Energy            =      -0.0000000000000000 [Eh]
	 Same-Spin Energy          =      -0.3701204689298012 [Eh]
	 Opposite-Spin Energy      =      -1.1771759922286853 [Eh]
	 Correlation Energy        =      -1.5472964611584865 [Eh]
	 Total Energy              =    -382.3096813846507871 [Eh]

	 ================> DF-SCS-MP2 Energies <==================
	-----------------------------------------------------------
	 SCS Same-Spin Scale       =       0.3333333333333333 [-]
	 SCS Opposite-Spin Scale   =       1.2000000000000000 [-]
	 SCS Same-Spin Energy      =      -0.1233734896432671 [Eh]
	 SCS Opposite-Spin Energy  =      -1.4126111906744223 [Eh]
	 SCS Correlation Energy    =      -1.5359846803176893 [Eh]
	 SCS Total Energy          =    -382.2983696038099879 [Eh]
	-----------------------------------------------------------

  Dipole Moment: [D]
     X:     2.6411      Y:    -0.0170      Z:    -0.4371     Total:     2.6771

*** Psi4 exiting successfully. Buy a developer a beer!
