                               Psi4 1.4a3.dev225

  ==> Input File <==

--------------------------------------------------------------------------
#psi4
#
memory 32 gb

molecule  {
0 1
  O       -1.2892700     0.0000060    -0.8145290
  O       -0.5960130    -0.0000230     1.3422680
  O       -2.6196050     0.0000040    -0.2122050
  C        1.0437460     0.0000040    -0.4660030
  C        1.7813420     1.2673450    -0.0261740
  C        1.7813650    -1.2673310    -0.0262020
  C       -0.3290300    -0.0000080     0.1485520
  H        0.9245400     0.0000150    -1.5545560
  H        1.8622080     1.2945800     1.0634230
  H        1.2577770     2.1678420    -0.3590640
  H        2.7877650     1.2776000    -0.4534740
  H        1.8770124    -1.2995877     1.2627846
  H        2.7877950    -1.2775480    -0.4534850
  H        1.2578290    -2.1678320    -0.3591270
  H       -2.3655580    -0.0000240     0.7475810
units angstrom
no_reorient  #important for SAPT in psi4, default
symmetry c1  #important for SAPT in psi4, default
}

set PROPERTIES_ORIGIN ["COM"]
properties('MP2/aug-cc-pvtz', properties = ['dipole'])
--------------------------------------------------------------------------

    Molecular point group: c1
  Charge       = 0
  Multiplicity = 1
  Basis Set: AUG-CC-PVTZ
    Blend: AUG-CC-PVTZ
  Basis Set: (AUG-CC-PVTZ AUX)
    Blend: AUG-CC-PVTZ-JKFIT

    Orbital Energies [Eh]
    ---------------------

    Doubly Occupied:

       1A    -20.673576     2A    -20.647146     3A    -20.573601
       4A    -11.405534     5A    -11.270188     6A    -11.260669
       7A    -11.239241     8A     -1.527313     9A     -1.401022
      10A     -1.263754    11A     -1.103654    12A     -0.948974
      13A     -0.888849    14A     -0.806429    15A     -0.736052
      16A     -0.687672    17A     -0.684546    18A     -0.641454
      19A     -0.610931    20A     -0.596685    21A     -0.591087
      22A     -0.551013    23A     -0.539451    24A     -0.533298
      25A     -0.503593    26A     -0.487990    27A     -0.473726
      28A     -0.472693

  @DF-RHF Final Energy:  -380.75540604454108

   => Energetics <=

    Nuclear Repulsion Energy =            320.4482827383346262
    One-Electron Energy =               -1156.1671001193128632
    Two-Electron Energy =                 454.9634113364371046
    Total Energy =                       -380.7554060445410755
  Basis Set: (AUG-CC-PVTZ AUX)
    Blend: AUG-CC-PVTZ-RI
    Molecular point group: c1

    Geometry (in Angstrom), charge = 0, multiplicity = 1:

       Center              X                  Y                   Z               Mass
    ------------   -----------------  -----------------  -----------------  -----------------
         O           -1.190703741772     0.000054837427    -0.819356313823    15.994914619570
         O           -0.497446741772     0.000025837427     1.337440686177    15.994914619570
         O           -2.521038741772     0.000052837427    -0.217032313823    15.994914619570
         C            1.142312258228     0.000052837427    -0.470830313823    12.000000000000
         C            1.879908258228     1.267393837427    -0.031001313823    12.000000000000
         C            1.879931258228    -1.267282162573    -0.031029313823    12.000000000000
         C           -0.230463741772     0.000040837427     0.143724686177    12.000000000000
         H            1.023106258228     0.000063837427    -1.559383313823     1.007825032230
         H            1.960774258228     1.294628837427     1.058595686177     1.007825032230
         H            1.356343258228     2.167890837427    -0.363891313823     1.007825032230
         H            2.886331258228     1.277648837427    -0.458301313823     1.007825032230
         H            1.975578658228    -1.299538862573     1.257957286177     1.007825032230
         H            2.886361258228    -1.277499162573    -0.458312313823     1.007825032230
         H            1.356395258228    -2.167783162573    -0.363954313823     1.007825032230
         H           -2.266991741772     0.000024837427     0.742753686177     1.007825032230

  Basis Set: AUG-CC-PVTZ
    Blend: AUG-CC-PVTZ
  Basis Set: (AUG-CC-PVTZ AUX)
    Blend: AUG-CC-PVTZ-JKFIT
	 Reference Energy          =    -380.7554060445410755 [Eh]
	 Singles Energy            =      -0.0000000000000000 [Eh]
	 Same-Spin Energy          =      -0.3703380019927164 [Eh]
	 Opposite-Spin Energy      =      -1.1785877921592811 [Eh]
	 Correlation Energy        =      -1.5489257941519976 [Eh]
	 Total Energy              =    -382.3043318386930878 [Eh]

	 ================> DF-SCS-MP2 Energies <==================
	-----------------------------------------------------------
	 SCS Same-Spin Scale       =       0.3333333333333333 [-]
	 SCS Opposite-Spin Scale   =       1.2000000000000000 [-]
	 SCS Same-Spin Energy      =      -0.1234460006642388 [Eh]
	 SCS Opposite-Spin Energy  =      -1.4143053505911374 [Eh]
	 SCS Correlation Energy    =      -1.5377513512553762 [Eh]
	 SCS Total Energy          =    -382.2931573957964702 [Eh]
	-----------------------------------------------------------

  Dipole Moment: [D]
     X:     2.5869      Y:     0.0281      Z:    -0.5127     Total:     2.6373

*** Psi4 exiting successfully. Buy a developer a beer!
