                               Psi4 1.4a3.dev225

  ==> Input File <==

--------------------------------------------------------------------------
#psi4
#
memory 32 gb

molecule  {
0 1
  O       -1.2892700     0.0000060    -0.8145290
  O       -0.5960130    -0.0000230     1.3422680
  O       -2.6196050     0.0000040    -0.2122050
  C        1.0437460     0.0000040    -0.4660030
  C        1.7813420     1.2673450    -0.0261740
  C        1.7813650    -1.2673310    -0.0262020
  C       -0.3290300    -0.0000080     0.1485520
  H        0.9245400     0.0000150    -1.5545560
  H        1.8622080     1.2945800     1.0634230
  H        1.2577770     2.1678420    -0.3590640
  H        2.7877650     1.2776000    -0.4534740
  H        1.8622170    -1.2945980     1.0633950
  H        2.7877950    -1.2775480    -0.4534850
  H        1.2482539    -2.1843015    -0.3652159
  H       -2.3655580    -0.0000240     0.7475810
units angstrom
no_reorient  #important for SAPT in psi4, default
symmetry c1  #important for SAPT in psi4, default
}

set PROPERTIES_ORIGIN ["COM"]
properties('MP2/aug-cc-pvtz', properties = ['dipole'])
--------------------------------------------------------------------------

    Molecular point group: c1
  Charge       = 0
  Multiplicity = 1
  Basis Set: AUG-CC-PVTZ
    Blend: AUG-CC-PVTZ
  Basis Set: (AUG-CC-PVTZ AUX)
    Blend: AUG-CC-PVTZ-JKFIT

    Orbital Energies [Eh]
    ---------------------

    Doubly Occupied:

       1A    -20.673221     2A    -20.646787     3A    -20.573767
       4A    -11.405217     5A    -11.267937     6A    -11.241382
       7A    -11.239146     8A     -1.527007     9A     -1.401182
      10A     -1.263363    11A     -1.104783    12A     -0.954501
      13A     -0.892489    14A     -0.807398    15A     -0.737970
      16A     -0.687352    17A     -0.686019    18A     -0.641590
      19A     -0.608579    20A     -0.596484    21A     -0.590887
      22A     -0.563753    23A     -0.542384    24A     -0.537465
      25A     -0.504127    26A     -0.500575    27A     -0.474298
      28A     -0.472215

  @DF-RHF Final Energy:  -380.77528088534569

   => Energetics <=

    Nuclear Repulsion Energy =            321.0994154759859498
    One-Electron Energy =               -1157.4656391692660691
    Two-Electron Energy =                 455.5909428079343684
    Total Energy =                       -380.7752808853456941
  Basis Set: (AUG-CC-PVTZ AUX)
    Blend: AUG-CC-PVTZ-RI
    Molecular point group: c1

    Geometry (in Angstrom), charge = 0, multiplicity = 1:

       Center              X                  Y                   Z               Mass
    ------------   -----------------  -----------------  -----------------  -----------------
         O           -1.190467683849     0.000166033248    -0.817366004722    15.994914619570
         O           -0.497210683849     0.000137033248     1.339430995278    15.994914619570
         O           -2.520802683849     0.000164033248    -0.215042004722    15.994914619570
         C            1.142548316151     0.000164033248    -0.468840004722    12.000000000000
         C            1.880144316151     1.267505033248    -0.029011004722    12.000000000000
         C            1.880167316151    -1.267170966752    -0.029039004722    12.000000000000
         C           -0.230227683849     0.000152033248     0.145714995278    12.000000000000
         H            1.023342316151     0.000175033248    -1.557393004722     1.007825032230
         H            1.961010316151     1.294740033248     1.060585995278     1.007825032230
         H            1.356579316151     2.168002033248    -0.361901004722     1.007825032230
         H            2.886567316151     1.277760033248    -0.456311004722     1.007825032230
         H            1.961019316151    -1.294437966752     1.060557995278     1.007825032230
         H            2.886597316151    -1.277387966752    -0.456322004722     1.007825032230
         H            1.347056216151    -2.184141466752    -0.368052904722     1.007825032230
         H           -2.266755683849     0.000136033248     0.744743995278     1.007825032230

  Basis Set: AUG-CC-PVTZ
    Blend: AUG-CC-PVTZ
  Basis Set: (AUG-CC-PVTZ AUX)
    Blend: AUG-CC-PVTZ-JKFIT
	 Reference Energy          =    -380.7752808853456941 [Eh]
	 Singles Energy            =      -0.0000000000000000 [Eh]
	 Same-Spin Energy          =      -0.3701996833896549 [Eh]
	 Opposite-Spin Energy      =      -1.1769907737685370 [Eh]
	 Correlation Energy        =      -1.5471904571581918 [Eh]
	 Total Energy              =    -382.3224713425038885 [Eh]

	 ================> DF-SCS-MP2 Energies <==================
	-----------------------------------------------------------
	 SCS Same-Spin Scale       =       0.3333333333333333 [-]
	 SCS Opposite-Spin Scale   =       1.2000000000000000 [-]
	 SCS Same-Spin Energy      =      -0.1233998944632183 [Eh]
	 SCS Opposite-Spin Energy  =      -1.4123889285222444 [Eh]
	 SCS Correlation Energy    =      -1.5357888229854626 [Eh]
	 SCS Total Energy          =    -382.3110697083311607 [Eh]
	-----------------------------------------------------------

  Dipole Moment: [D]
     X:     2.6272      Y:     0.0109      Z:    -0.4287     Total:     2.6620

*** Psi4 exiting successfully. Buy a developer a beer!
