                               Psi4 1.4a3.dev225

  ==> Input File <==

--------------------------------------------------------------------------
#psi4
#
memory 32 gb

molecule  {
0 1
  O       -1.2892700     0.0000060    -0.8145290
  O       -0.5960130    -0.0000230     1.3422680
  O       -2.6196050     0.0000040    -0.2122050
  C        1.0437460     0.0000040    -0.4660030
  C        1.7813420     1.2673450    -0.0261740
  C        1.7381681    -1.2816221     0.0018188
  C       -0.3290300    -0.0000080     0.1485520
  H        0.9245400     0.0000150    -1.5545560
  H        1.8622080     1.2945800     1.0634230
  H        1.2577770     2.1678420    -0.3590640
  H        2.7877650     1.2776000    -0.4534740
  H        1.8622170    -1.2945980     1.0633950
  H        2.7877950    -1.2775480    -0.4534850
  H        1.2578290    -2.1678320    -0.3591270
  H       -2.3655580    -0.0000240     0.7475810
units angstrom
no_reorient  #important for SAPT in psi4, default
symmetry c1  #important for SAPT in psi4, default
}

set PROPERTIES_ORIGIN ["COM"]
properties('MP2/aug-cc-pvtz', properties = ['dipole'])
--------------------------------------------------------------------------

    Molecular point group: c1
  Charge       = 0
  Multiplicity = 1
  Basis Set: AUG-CC-PVTZ
    Blend: AUG-CC-PVTZ
  Basis Set: (AUG-CC-PVTZ AUX)
    Blend: AUG-CC-PVTZ-JKFIT

    Orbital Energies [Eh]
    ---------------------

    Doubly Occupied:

       1A    -20.672779     2A    -20.646284     3A    -20.573086
       4A    -11.404271     5A    -11.268301     6A    -11.239699
       7A    -11.239527     8A     -1.526600     9A     -1.400783
      10A     -1.262978    11A     -1.105336    12A     -0.957059
      13A     -0.891841    14A     -0.807226    15A     -0.738098
      16A     -0.686978    17A     -0.685935    18A     -0.645020
      19A     -0.609830    20A     -0.596030    21A     -0.590158
      22A     -0.567360    23A     -0.540686    24A     -0.529743
      25A     -0.508303    26A     -0.505149    27A     -0.474010
      28A     -0.468962

  @DF-RHF Final Energy:  -380.77277898464524

   => Energetics <=

    Nuclear Repulsion Energy =            321.4342079142080593
    One-Electron Energy =               -1158.1299100606725005
    Two-Electron Energy =                 455.9229231618191989
    Total Energy =                       -380.7727789846452424
  Basis Set: (AUG-CC-PVTZ AUX)
    Blend: AUG-CC-PVTZ-RI
    Molecular point group: c1

    Geometry (in Angstrom), charge = 0, multiplicity = 1:

       Center              X                  Y                   Z               Mass
    ------------   -----------------  -----------------  -----------------  -----------------
         O           -1.185578440602     0.001654728869    -0.820656681181    15.994914619570
         O           -0.492321440602     0.001625728869     1.336140318819    15.994914619570
         O           -2.515913440602     0.001652728869    -0.218332681181    15.994914619570
         C            1.147437559398     0.001652728869    -0.472130681181    12.000000000000
         C            1.885033559398     1.268993728869    -0.032301681181    12.000000000000
         C            1.841859659398    -1.279973371131    -0.004308881181    12.000000000000
         C           -0.225338440602     0.001640728869     0.142424318819    12.000000000000
         H            1.028231559398     0.001663728869    -1.560683681181     1.007825032230
         H            1.965899559398     1.296228728869     1.057295318819     1.007825032230
         H            1.361468559398     2.169490728869    -0.365191681181     1.007825032230
         H            2.891456559398     1.279248728869    -0.459601681181     1.007825032230
         H            1.965908559398    -1.292949271131     1.057267318819     1.007825032230
         H            2.891486559398    -1.275899271131    -0.459612681181     1.007825032230
         H            1.361520559398    -2.166183271131    -0.365254681181     1.007825032230
         H           -2.261866440602     0.001624728869     0.741453318819     1.007825032230

  Basis Set: AUG-CC-PVTZ
    Blend: AUG-CC-PVTZ
  Basis Set: (AUG-CC-PVTZ AUX)
    Blend: AUG-CC-PVTZ-JKFIT
	 Reference Energy          =    -380.7727789846452424 [Eh]
	 Singles Energy            =      -0.0000000000000000 [Eh]
	 Same-Spin Energy          =      -0.3703081916622173 [Eh]
	 Opposite-Spin Energy      =      -1.1770079412690366 [Eh]
	 Correlation Energy        =      -1.5473161329312539 [Eh]
	 Total Energy              =    -382.3200951175764999 [Eh]

	 ================> DF-SCS-MP2 Energies <==================
	-----------------------------------------------------------
	 SCS Same-Spin Scale       =       0.3333333333333333 [-]
	 SCS Opposite-Spin Scale   =       1.2000000000000000 [-]
	 SCS Same-Spin Energy      =      -0.1234360638874058 [Eh]
	 SCS Opposite-Spin Energy  =      -1.4124095295228438 [Eh]
	 SCS Correlation Energy    =      -1.5358455934102495 [Eh]
	 SCS Total Energy          =    -382.3086245780555146 [Eh]
	-----------------------------------------------------------

  Dipole Moment: [D]
     X:     2.6266      Y:     0.0009      Z:    -0.4264     Total:     2.6610

*** Psi4 exiting successfully. Buy a developer a beer!
