                               Psi4 1.4a3.dev225

  ==> Input File <==

--------------------------------------------------------------------------
#psi4
#
memory 32 gb

molecule  {
0 1
  O       -1.2892700     0.0000060    -0.8145290
  O       -0.5960130    -0.0000230     1.3422680
  O       -2.6196050     0.0000040    -0.2122050
  C        1.0437460     0.0000040    -0.4660030
  C        1.7813420     1.2673450    -0.0261740
  C        1.7813650    -1.2673310    -0.0262020
  C       -0.3290300    -0.0000080     0.1485520
  H        0.9245400     0.0000150    -1.5545560
  H        1.8622080     1.2945800     1.0634230
  H        1.2577770     2.1678420    -0.3590640
  H        2.7877650     1.2776000    -0.4534740
  H        1.8622170    -1.2945980     1.0633950
  H        2.7594406    -1.3769769    -0.5025656
  H        1.2578290    -2.1678320    -0.3591270
  H       -2.3655580    -0.0000240     0.7475810
units angstrom
no_reorient  #important for SAPT in psi4, default
symmetry c1  #important for SAPT in psi4, default
}

set PROPERTIES_ORIGIN ["COM"]
properties('MP2/aug-cc-pvtz', properties = ['dipole'])
--------------------------------------------------------------------------

    Molecular point group: c1
  Charge       = 0
  Multiplicity = 1
  Basis Set: AUG-CC-PVTZ
    Blend: AUG-CC-PVTZ
  Basis Set: (AUG-CC-PVTZ AUX)
    Blend: AUG-CC-PVTZ-JKFIT

    Orbital Energies [Eh]
    ---------------------

    Doubly Occupied:

       1A    -20.673413     2A    -20.646995     3A    -20.574057
       4A    -11.405654     5A    -11.268414     6A    -11.238746
       7A    -11.238686     8A     -1.527201     9A     -1.401442
      10A     -1.263554    11A     -1.104530    12A     -0.956180
      13A     -0.892811    14A     -0.807930    15A     -0.738068
      16A     -0.687578    17A     -0.686008    18A     -0.644987
      19A     -0.606982    20A     -0.596651    21A     -0.589410
      22A     -0.566439    23A     -0.542873    24A     -0.535640
      25A     -0.503944    26A     -0.501268    27A     -0.474509
      28A     -0.472175

  @DF-RHF Final Energy:  -380.77458895085874

   => Energetics <=

    Nuclear Repulsion Energy =            321.0976552135761040
    One-Electron Energy =               -1157.4522034626368168
    Two-Electron Energy =                 455.5799592982019703
    Total Energy =                       -380.7745889508587425
  Basis Set: (AUG-CC-PVTZ AUX)
    Blend: AUG-CC-PVTZ-RI
    Molecular point group: c1

    Geometry (in Angstrom), charge = 0, multiplicity = 1:

       Center              X                  Y                   Z               Mass
    ------------   -----------------  -----------------  -----------------  -----------------
         O           -1.190285783496     0.000969595902    -0.816949577837    15.994914619570
         O           -0.497028783496     0.000940595902     1.339847422163    15.994914619570
         O           -2.520620783496     0.000967595902    -0.214625577837    15.994914619570
         C            1.142730216504     0.000967595902    -0.468423577837    12.000000000000
         C            1.880326216504     1.268308595902    -0.028594577837    12.000000000000
         C            1.880349216504    -1.266367404098    -0.028622577837    12.000000000000
         C           -0.230045783496     0.000955595902     0.146131422163    12.000000000000
         H            1.023524216504     0.000978595902    -1.556976577837     1.007825032230
         H            1.961192216504     1.295543595902     1.061002422163     1.007825032230
         H            1.356761216504     2.168805595902    -0.361484577837     1.007825032230
         H            2.886749216504     1.278563595902    -0.455894577837     1.007825032230
         H            1.961201216504    -1.293634404098     1.060974422163     1.007825032230
         H            2.858424816504    -1.376013304098    -0.504986177837     1.007825032230
         H            1.356813216504    -2.166868404098    -0.361547577837     1.007825032230
         H           -2.266573783496     0.000939595902     0.745160422163     1.007825032230

  Basis Set: AUG-CC-PVTZ
    Blend: AUG-CC-PVTZ
  Basis Set: (AUG-CC-PVTZ AUX)
    Blend: AUG-CC-PVTZ-JKFIT
	 Reference Energy          =    -380.7745889508587425 [Eh]
	 Singles Energy            =      -0.0000000000000000 [Eh]
	 Same-Spin Energy          =      -0.3701950628763243 [Eh]
	 Opposite-Spin Energy      =      -1.1768404526688954 [Eh]
	 Correlation Energy        =      -1.5470355155452196 [Eh]
	 Total Energy              =    -382.3216244664039891 [Eh]

	 ================> DF-SCS-MP2 Energies <==================
	-----------------------------------------------------------
	 SCS Same-Spin Scale       =       0.3333333333333333 [-]
	 SCS Opposite-Spin Scale   =       1.2000000000000000 [-]
	 SCS Same-Spin Energy      =      -0.1233983542921081 [Eh]
	 SCS Opposite-Spin Energy  =      -1.4122085432026743 [Eh]
	 SCS Correlation Energy    =      -1.5356068974947823 [Eh]
	 SCS Total Energy          =    -382.3101958483535441 [Eh]
	-----------------------------------------------------------

  Dipole Moment: [D]
     X:     2.6143      Y:    -0.0309      Z:    -0.4560     Total:     2.6539

*** Psi4 exiting successfully. Buy a developer a beer!
