                               Psi4 1.4a3.dev225

  ==> Input File <==

--------------------------------------------------------------------------
#psi4
#
memory 32 gb

molecule  {
0 1
  O       -1.2892700     0.0000060    -0.8145290
  O       -0.5960130    -0.0000230     1.3422680
  O       -2.6196050     0.0000040    -0.2122050
  C        1.0437460     0.0000040    -0.4660030
  C        1.7813420     1.2673450    -0.0261740
  C        1.7813650    -1.2673310    -0.0262020
  C       -0.3290300    -0.0000080     0.1485520
  H        0.9245400     0.0000150    -1.5545560
  H        1.8622080     1.2945800     1.0634230
  H        1.2577770     2.1678420    -0.3590640
  H        2.7877650     1.2776000    -0.4534740
  H        1.8622170    -1.2945980     1.0633950
  H        2.7877950    -1.2775480    -0.4534850
  H        1.2338913    -2.2090056    -0.3743493
  H       -2.3655580    -0.0000240     0.7475810
units angstrom
no_reorient  #important for SAPT in psi4, default
symmetry c1  #important for SAPT in psi4, default
}

set PROPERTIES_ORIGIN ["COM"]
properties('MP2/aug-cc-pvtz', properties = ['dipole'])
--------------------------------------------------------------------------

    Molecular point group: c1
  Charge       = 0
  Multiplicity = 1
  Basis Set: AUG-CC-PVTZ
    Blend: AUG-CC-PVTZ
  Basis Set: (AUG-CC-PVTZ AUX)
    Blend: AUG-CC-PVTZ-JKFIT

    Orbital Energies [Eh]
    ---------------------

    Doubly Occupied:

       1A    -20.673229     2A    -20.646799     3A    -20.573799
       4A    -11.405290     5A    -11.268250     6A    -11.244942
       7A    -11.239422     8A     -1.527015     9A     -1.401211
      10A     -1.263373    11A     -1.104610    12A     -0.952915
      13A     -0.892053    14A     -0.807215    15A     -0.738037
      16A     -0.687368    17A     -0.685921    18A     -0.640639
      19A     -0.606966    20A     -0.596507    21A     -0.590669
      22A     -0.563667    23A     -0.542560    24A     -0.536649
      25A     -0.504321    26A     -0.498706    27A     -0.474306
      28A     -0.472244

  @DF-RHF Final Energy:  -380.77371274422092

   => Energetics <=

    Nuclear Repulsion Energy =            320.9785160824129093
    One-Electron Energy =               -1157.2270941387932908
    Two-Electron Energy =                 455.4748653121595225
    Total Energy =                       -380.7737127442209157
  Basis Set: (AUG-CC-PVTZ AUX)
    Blend: AUG-CC-PVTZ-RI
    Molecular point group: c1

    Geometry (in Angstrom), charge = 0, multiplicity = 1:

       Center              X                  Y                   Z               Mass
    ------------   -----------------  -----------------  -----------------  -----------------
         O           -1.190328564605     0.000405322492    -0.817277536639    15.994914619570
         O           -0.497071564605     0.000376322492     1.339519463361    15.994914619570
         O           -2.520663564605     0.000403322492    -0.214953536639    15.994914619570
         C            1.142687435395     0.000403322492    -0.468751536639    12.000000000000
         C            1.880283435395     1.267744322492    -0.028922536639    12.000000000000
         C            1.880306435395    -1.266931677508    -0.028950536639    12.000000000000
         C           -0.230088564605     0.000391322492     0.145803463361    12.000000000000
         H            1.023481435395     0.000414322492    -1.557304536639     1.007825032230
         H            1.961149435395     1.294979322492     1.060674463361     1.007825032230
         H            1.356718435395     2.168241322492    -0.361812536639     1.007825032230
         H            2.886706435395     1.277999322492    -0.456222536639     1.007825032230
         H            1.961158435395    -1.294198677508     1.060646463361     1.007825032230
         H            2.886736435395    -1.277148677508    -0.456233536639     1.007825032230
         H            1.332832735395    -2.208606277508    -0.377097836639     1.007825032230
         H           -2.266616564605     0.000375322492     0.744832463361     1.007825032230

  Basis Set: AUG-CC-PVTZ
    Blend: AUG-CC-PVTZ
  Basis Set: (AUG-CC-PVTZ AUX)
    Blend: AUG-CC-PVTZ-JKFIT
	 Reference Energy          =    -380.7737127442209157 [Eh]
	 Singles Energy            =      -0.0000000000000000 [Eh]
	 Same-Spin Energy          =      -0.3701916094509217 [Eh]
	 Opposite-Spin Energy      =      -1.1771922706508089 [Eh]
	 Correlation Energy        =      -1.5473838801017306 [Eh]
	 Total Energy              =    -382.3210966243226494 [Eh]

	 ================> DF-SCS-MP2 Energies <==================
	-----------------------------------------------------------
	 SCS Same-Spin Scale       =       0.3333333333333333 [-]
	 SCS Opposite-Spin Scale   =       1.2000000000000000 [-]
	 SCS Same-Spin Energy      =      -0.1233972031503072 [Eh]
	 SCS Opposite-Spin Energy  =      -1.4126307247809706 [Eh]
	 SCS Correlation Energy    =      -1.5360279279312778 [Eh]
	 SCS Total Energy          =    -382.3097406721522020 [Eh]
	-----------------------------------------------------------

  Dipole Moment: [D]
     X:     2.6313      Y:     0.0284      Z:    -0.4254     Total:     2.6656

*** Psi4 exiting successfully. Buy a developer a beer!
