                               Psi4 1.4a3.dev225

  ==> Input File <==

--------------------------------------------------------------------------
#psi4
#
memory 32 gb

molecule  {
0 1
  O       -1.2892700     0.0000060    -0.8145290
  O       -0.5960130    -0.0000230     1.3422680
  O       -2.6196050     0.0000040    -0.2122050
  C        1.0437460     0.0000040    -0.4660030
  C        1.7813420     1.2673450    -0.0261740
  C        1.7813650    -1.2673310    -0.0262020
  C       -0.3290300    -0.0000080     0.1485520
  H        0.9245400     0.0000150    -1.5545560
  H        1.8622080     1.2945800     1.0634230
  H        1.2577770     2.1678420    -0.3590640
  H        2.7877650     1.2776000    -0.4534740
  H        1.8622170    -1.2945980     1.0633950
  H        2.7914553    -1.2609361    -0.4448345
  H        1.2578290    -2.1678320    -0.3591270
  H       -2.3655580    -0.0000240     0.7475810
units angstrom
no_reorient  #important for SAPT in psi4, default
symmetry c1  #important for SAPT in psi4, default
}

set PROPERTIES_ORIGIN ["COM"]
properties('MP2/aug-cc-pvtz', properties = ['dipole'])
--------------------------------------------------------------------------

    Molecular point group: c1
  Charge       = 0
  Multiplicity = 1
  Basis Set: AUG-CC-PVTZ
    Blend: AUG-CC-PVTZ
  Basis Set: (AUG-CC-PVTZ AUX)
    Blend: AUG-CC-PVTZ-JKFIT

    Orbital Energies [Eh]
    ---------------------

    Doubly Occupied:

       1A    -20.673180     2A    -20.646740     3A    -20.573689
       4A    -11.405085     5A    -11.267637     6A    -11.239031
       7A    -11.239013     8A     -1.526965     9A     -1.401113
      10A     -1.263323    11A     -1.105029    12A     -0.955632
      13A     -0.892818    14A     -0.807473    15A     -0.737912
      16A     -0.687309    17A     -0.686128    18A     -0.641994
      19A     -0.610347    20A     -0.596428    21A     -0.591161
      22A     -0.563433    23A     -0.542114    24A     -0.538322
      25A     -0.504167    26A     -0.501525    27A     -0.474256
      28A     -0.472134

  @DF-RHF Final Energy:  -380.77574172814127

   => Energetics <=

    Nuclear Repulsion Energy =            321.1983485541932737
    One-Electron Energy =               -1157.6602629944500222
    Two-Electron Energy =                 455.6861727121155354
    Total Energy =                       -380.7757417281412700
  Basis Set: (AUG-CC-PVTZ AUX)
    Blend: AUG-CC-PVTZ-RI
    Molecular point group: c1

    Geometry (in Angstrom), charge = 0, multiplicity = 1:

       Center              X                  Y                   Z               Mass
    ------------   -----------------  -----------------  -----------------  -----------------
         O           -1.190595884790    -0.000154400333    -0.817508773732    15.994914619570
         O           -0.497338884790    -0.000183400333     1.339288226268    15.994914619570
         O           -2.520930884790    -0.000156400333    -0.215184773732    15.994914619570
         C            1.142420115210    -0.000156400333    -0.468982773732    12.000000000000
         C            1.880016115210     1.267184599667    -0.029153773732    12.000000000000
         C            1.880039115210    -1.267491400333    -0.029181773732    12.000000000000
         C           -0.230355884790    -0.000168400333     0.145572226268    12.000000000000
         H            1.023214115210    -0.000145400333    -1.557535773732     1.007825032230
         H            1.960882115210     1.294419599667     1.060443226268     1.007825032230
         H            1.356451115210     2.167681599667    -0.362043773732     1.007825032230
         H            2.886439115210     1.277439599667    -0.456453773732     1.007825032230
         H            1.960891115210    -1.294758400333     1.060415226268     1.007825032230
         H            2.890129415210    -1.261096500333    -0.447814273732     1.007825032230
         H            1.356503115210    -2.167992400333    -0.362106773732     1.007825032230
         H           -2.266883884790    -0.000184400333     0.744601226268     1.007825032230

  Basis Set: AUG-CC-PVTZ
    Blend: AUG-CC-PVTZ
  Basis Set: (AUG-CC-PVTZ AUX)
    Blend: AUG-CC-PVTZ-JKFIT
	 Reference Energy          =    -380.7757417281412700 [Eh]
	 Singles Energy            =      -0.0000000000000000 [Eh]
	 Same-Spin Energy          =      -0.3702200916907214 [Eh]
	 Opposite-Spin Energy      =      -1.1768878479643661 [Eh]
	 Correlation Energy        =      -1.5471079396550875 [Eh]
	 Total Energy              =    -382.3228496677963335 [Eh]

	 ================> DF-SCS-MP2 Energies <==================
	-----------------------------------------------------------
	 SCS Same-Spin Scale       =       0.3333333333333333 [-]
	 SCS Opposite-Spin Scale   =       1.2000000000000000 [-]
	 SCS Same-Spin Energy      =      -0.1234066972302405 [Eh]
	 SCS Opposite-Spin Energy  =      -1.4122654175572393 [Eh]
	 SCS Correlation Energy    =      -1.5356721147874799 [Eh]
	 SCS Total Energy          =    -382.3114138429287436 [Eh]
	-----------------------------------------------------------

  Dipole Moment: [D]
     X:     2.6259      Y:     0.0047      Z:    -0.4266     Total:     2.6603

*** Psi4 exiting successfully. Buy a developer a beer!
