                               Psi4 1.4a3.dev225

  ==> Input File <==

--------------------------------------------------------------------------
#psi4
#
memory 32 gb

molecule  {
0 1
  O       -1.2892700     0.0000060    -0.8145290
  O       -0.5960130    -0.0000230     1.3422680
  O       -2.6196050     0.0000040    -0.2122050
  C        1.0322614     0.0371370    -0.3105465
  C        1.7813420     1.2673450    -0.0261740
  C        1.7813650    -1.2673310    -0.0262020
  C       -0.3290300    -0.0000080     0.1485520
  H        0.9245400     0.0000150    -1.5545560
  H        1.8622080     1.2945800     1.0634230
  H        1.2577770     2.1678420    -0.3590640
  H        2.7877650     1.2776000    -0.4534740
  H        1.8622170    -1.2945980     1.0633950
  H        2.7877950    -1.2775480    -0.4534850
  H        1.2578290    -2.1678320    -0.3591270
  H       -2.3655580    -0.0000240     0.7475810
units angstrom
no_reorient  #important for SAPT in psi4, default
symmetry c1  #important for SAPT in psi4, default
}

set PROPERTIES_ORIGIN ["COM"]
properties('MP2/aug-cc-pvtz', properties = ['dipole'])
--------------------------------------------------------------------------

    Molecular point group: c1
  Charge       = 0
  Multiplicity = 1
  Basis Set: AUG-CC-PVTZ
    Blend: AUG-CC-PVTZ
  Basis Set: (AUG-CC-PVTZ AUX)
    Blend: AUG-CC-PVTZ-JKFIT

    Orbital Energies [Eh]
    ---------------------

    Doubly Occupied:

       1A    -20.676237     2A    -20.650295     3A    -20.572620
       4A    -11.404656     5A    -11.272982     6A    -11.242023
       7A    -11.238412     8A     -1.529539     9A     -1.404486
      10A     -1.265326    11A     -1.116704    12A     -0.963574
      13A     -0.905080    14A     -0.811272    15A     -0.727127
      16A     -0.691063    17A     -0.683467    18A     -0.645998
      19A     -0.615058    20A     -0.601432    21A     -0.597551
      22A     -0.562053    23A     -0.553103    24A     -0.539822
      25A     -0.514670    26A     -0.483555    27A     -0.475893
      28A     -0.450487

  @DF-RHF Final Energy:  -380.74833956370878

   => Energetics <=

    Nuclear Repulsion Energy =            322.5897359050897535
    One-Electron Energy =               -1160.2871801585856701
    Two-Electron Energy =                 456.9491046897870774
    Total Energy =                       -380.7483395637087824
  Basis Set: (AUG-CC-PVTZ AUX)
    Blend: AUG-CC-PVTZ-RI
    Molecular point group: c1

    Geometry (in Angstrom), charge = 0, multiplicity = 1:

       Center              X                  Y                   Z               Mass
    ------------   -----------------  -----------------  -----------------  -----------------
         O           -1.189235887155    -0.004276121219    -0.835354109673    15.994914619570
         O           -0.495978887155    -0.004305121219     1.321442890327    15.994914619570
         O           -2.519570887155    -0.004278121219    -0.233030109673    15.994914619570
         C            1.132295512845     0.032854878781    -0.331371609673    12.000000000000
         C            1.881376112845     1.263062878781    -0.046999109673    12.000000000000
         C            1.881399112845    -1.271613121219    -0.047027109673    12.000000000000
         C           -0.228995887155    -0.004290121219     0.127726890327    12.000000000000
         H            1.024574112845    -0.004267121219    -1.575381109673     1.007825032230
         H            1.962242112845     1.290297878781     1.042597890327     1.007825032230
         H            1.357811112845     2.163559878781    -0.379889109673     1.007825032230
         H            2.887799112845     1.273317878781    -0.474299109673     1.007825032230
         H            1.962251112845    -1.298880121219     1.042569890327     1.007825032230
         H            2.887829112845    -1.281830121219    -0.474310109673     1.007825032230
         H            1.357863112845    -2.172114121219    -0.379952109673     1.007825032230
         H           -2.265523887155    -0.004306121219     0.726755890327     1.007825032230

  Basis Set: AUG-CC-PVTZ
    Blend: AUG-CC-PVTZ
  Basis Set: (AUG-CC-PVTZ AUX)
    Blend: AUG-CC-PVTZ-JKFIT
	 Reference Energy          =    -380.7483395637087824 [Eh]
	 Singles Energy            =      -0.0000000000000000 [Eh]
	 Same-Spin Energy          =      -0.3714658972768078 [Eh]
	 Opposite-Spin Energy      =      -1.1793390774413193 [Eh]
	 Correlation Energy        =      -1.5508049747181269 [Eh]
	 Total Energy              =    -382.2991445384269014 [Eh]

	 ================> DF-SCS-MP2 Energies <==================
	-----------------------------------------------------------
	 SCS Same-Spin Scale       =       0.3333333333333333 [-]
	 SCS Opposite-Spin Scale   =       1.2000000000000000 [-]
	 SCS Same-Spin Energy      =      -0.1238219657589359 [Eh]
	 SCS Opposite-Spin Energy  =      -1.4152068929295831 [Eh]
	 SCS Correlation Energy    =      -1.5390288586885190 [Eh]
	 SCS Total Energy          =    -382.2873684223973214 [Eh]
	-----------------------------------------------------------

  Dipole Moment: [D]
     X:     2.6227      Y:     0.0149      Z:    -0.3546     Total:     2.6466

*** Psi4 exiting successfully. Buy a developer a beer!
