                               Psi4 1.4a3.dev225

  ==> Input File <==

--------------------------------------------------------------------------
#psi4
#
memory 32 gb

molecule  {
0 1
  O       -1.2892700     0.0000060    -0.8145290
  O       -0.5960130    -0.0000230     1.3422680
  O       -2.6196050     0.0000040    -0.2122050
  C        1.0493789    -0.0154838    -0.5168338
  C        1.7813420     1.2673450    -0.0261740
  C        1.7813650    -1.2673310    -0.0262020
  C       -0.3290300    -0.0000080     0.1485520
  H        0.9245400     0.0000150    -1.5545560
  H        1.8622080     1.2945800     1.0634230
  H        1.2577770     2.1678420    -0.3590640
  H        2.7877650     1.2776000    -0.4534740
  H        1.8622170    -1.2945980     1.0633950
  H        2.7877950    -1.2775480    -0.4534850
  H        1.2578290    -2.1678320    -0.3591270
  H       -2.3655580    -0.0000240     0.7475810
units angstrom
no_reorient  #important for SAPT in psi4, default
symmetry c1  #important for SAPT in psi4, default
}

set PROPERTIES_ORIGIN ["COM"]
properties('MP2/aug-cc-pvtz', properties = ['dipole'])
--------------------------------------------------------------------------

    Molecular point group: c1
  Charge       = 0
  Multiplicity = 1
  Basis Set: AUG-CC-PVTZ
    Blend: AUG-CC-PVTZ
  Basis Set: (AUG-CC-PVTZ AUX)
    Blend: AUG-CC-PVTZ-JKFIT

    Orbital Energies [Eh]
    ---------------------

    Doubly Occupied:

       1A    -20.672240     2A    -20.645435     3A    -20.574293
       4A    -11.405701     5A    -11.267432     6A    -11.239838
       7A    -11.238724     8A     -1.526112     9A     -1.400461
      10A     -1.262492    11A     -1.101536    12A     -0.953361
      13A     -0.889629    14A     -0.808098    15A     -0.742059
      16A     -0.687443    17A     -0.686119    18A     -0.640935
      19A     -0.608345    20A     -0.596013    21A     -0.588378
      22A     -0.564884    23A     -0.540304    24A     -0.537578
      25A     -0.517609    26A     -0.495567    27A     -0.473749
      28A     -0.467868

  @DF-RHF Final Energy:  -380.77278475130163

   => Energetics <=

    Nuclear Repulsion Energy =            320.6610687777674116
    One-Electron Energy =               -1156.6032993001977047
    Two-Electron Energy =                 455.1694457711286077
    Total Energy =                       -380.7727847513016286
  Basis Set: (AUG-CC-PVTZ AUX)
    Blend: AUG-CC-PVTZ-RI
    Molecular point group: c1

    Geometry (in Angstrom), charge = 0, multiplicity = 1:

       Center              X                  Y                   Z               Mass
    ------------   -----------------  -----------------  -----------------  -----------------
         O           -1.191210084591     0.001792746808    -0.811562559577    15.994914619570
         O           -0.497953084591     0.001763746808     1.345234440423    15.994914619570
         O           -2.521545084591     0.001790746808    -0.209238559577    15.994914619570
         C            1.147438815409    -0.013697053192    -0.513867359577    12.000000000000
         C            1.879401915409     1.269131746808    -0.023207559577    12.000000000000
         C            1.879424915409    -1.265544253192    -0.023235559577    12.000000000000
         C           -0.230970084591     0.001778746808     0.151518440423    12.000000000000
         H            1.022599915409     0.001801746808    -1.551589559577     1.007825032230
         H            1.960267915409     1.296366746808     1.066389440423     1.007825032230
         H            1.355836915409     2.169628746808    -0.356097559577     1.007825032230
         H            2.885824915409     1.279386746808    -0.450507559577     1.007825032230
         H            1.960276915409    -1.292811253192     1.066361440423     1.007825032230
         H            2.885854915409    -1.275761253192    -0.450518559577     1.007825032230
         H            1.355888915409    -2.166045253192    -0.356160559577     1.007825032230
         H           -2.267498084591     0.001762746808     0.750547440423     1.007825032230

  Basis Set: AUG-CC-PVTZ
    Blend: AUG-CC-PVTZ
  Basis Set: (AUG-CC-PVTZ AUX)
    Blend: AUG-CC-PVTZ-JKFIT
	 Reference Energy          =    -380.7727847513016286 [Eh]
	 Singles Energy            =      -0.0000000000000000 [Eh]
	 Same-Spin Energy          =      -0.3700829616474190 [Eh]
	 Opposite-Spin Energy      =      -1.1768029267782469 [Eh]
	 Correlation Energy        =      -1.5468858884256660 [Eh]
	 Total Energy              =    -382.3196706397272919 [Eh]

	 ================> DF-SCS-MP2 Energies <==================
	-----------------------------------------------------------
	 SCS Same-Spin Scale       =       0.3333333333333333 [-]
	 SCS Opposite-Spin Scale   =       1.2000000000000000 [-]
	 SCS Same-Spin Energy      =      -0.1233609872158063 [Eh]
	 SCS Opposite-Spin Energy  =      -1.4121635121338962 [Eh]
	 SCS Correlation Energy    =      -1.5355244993497026 [Eh]
	 SCS Total Energy          =    -382.3083092506513481 [Eh]
	-----------------------------------------------------------

  Dipole Moment: [D]
     X:     2.6313      Y:    -0.0074      Z:    -0.4378     Total:     2.6675

*** Psi4 exiting successfully. Buy a developer a beer!
