                               Psi4 1.4a3.dev225

  ==> Input File <==

--------------------------------------------------------------------------
#psi4
#
memory 32 gb

molecule  {
0 1
  O       -1.2892700     0.0000060    -0.8145290
  O       -0.5960130    -0.0000230     1.3422680
  O       -2.6196050     0.0000040    -0.2122050
  C        1.0390118     0.0139477    -0.4146364
  C        1.7813420     1.2673450    -0.0261740
  C        1.7813650    -1.2673310    -0.0262020
  C       -0.3290300    -0.0000080     0.1485520
  H        0.9245400     0.0000150    -1.5545560
  H        1.8622080     1.2945800     1.0634230
  H        1.2577770     2.1678420    -0.3590640
  H        2.7877650     1.2776000    -0.4534740
  H        1.8622170    -1.2945980     1.0633950
  H        2.7877950    -1.2775480    -0.4534850
  H        1.2578290    -2.1678320    -0.3591270
  H       -2.3655580    -0.0000240     0.7475810
units angstrom
no_reorient  #important for SAPT in psi4, default
symmetry c1  #important for SAPT in psi4, default
}

set PROPERTIES_ORIGIN ["COM"]
properties('MP2/aug-cc-pvtz', properties = ['dipole'])
--------------------------------------------------------------------------

    Molecular point group: c1
  Charge       = 0
  Multiplicity = 1
  Basis Set: AUG-CC-PVTZ
    Blend: AUG-CC-PVTZ
  Basis Set: (AUG-CC-PVTZ AUX)
    Blend: AUG-CC-PVTZ-JKFIT

    Orbital Energies [Eh]
    ---------------------

    Doubly Occupied:

       1A    -20.674209     2A    -20.648040     3A    -20.573264
       4A    -11.404782     5A    -11.268738     6A    -11.239625
       7A    -11.238421     8A     -1.527866     9A     -1.402043
      10A     -1.264118    11A     -1.108673    12A     -0.958167
      13A     -0.896586    14A     -0.808124    15A     -0.733828
      16A     -0.688569    17A     -0.684867    18A     -0.643744
      19A     -0.611326    20A     -0.596915    21A     -0.594033
      22A     -0.562932    23A     -0.545448    24A     -0.538513
      25A     -0.507037    26A     -0.489933    27A     -0.474827
      28A     -0.474013

  @DF-RHF Final Energy:  -380.77218840786435

   => Energetics <=

    Nuclear Repulsion Energy =            321.6817929931286812
    One-Electron Energy =               -1158.5906820494703879
    Two-Electron Energy =                 456.1367006484773015
    Total Energy =                       -380.7721884078643484
  Basis Set: (AUG-CC-PVTZ AUX)
    Blend: AUG-CC-PVTZ-RI
    Molecular point group: c1

    Geometry (in Angstrom), charge = 0, multiplicity = 1:

       Center              X                  Y                   Z               Mass
    ------------   -----------------  -----------------  -----------------  -----------------
         O           -1.190014425047    -0.001601650262    -0.823349201613    15.994914619570
         O           -0.496757425047    -0.001630650262     1.333447798387    15.994914619570
         O           -2.520349425047    -0.001603650262    -0.221025201613    15.994914619570
         C            1.138267374953     0.012340049738    -0.423456601613    12.000000000000
         C            1.880597574953     1.265737349738    -0.034994201613    12.000000000000
         C            1.880620574953    -1.268938650262    -0.035022201613    12.000000000000
         C           -0.229774425047    -0.001615650262     0.139731798387    12.000000000000
         H            1.023795574953    -0.001592650262    -1.563376201613     1.007825032230
         H            1.961463574953     1.292972349738     1.054602798387     1.007825032230
         H            1.357032574953     2.166234349738    -0.367884201613     1.007825032230
         H            2.887020574953     1.275992349738    -0.462294201613     1.007825032230
         H            1.961472574953    -1.296205650262     1.054574798387     1.007825032230
         H            2.887050574953    -1.279155650262    -0.462305201613     1.007825032230
         H            1.357084574953    -2.169439650262    -0.367947201613     1.007825032230
         H           -2.266302425047    -0.001631650262     0.738760798387     1.007825032230

  Basis Set: AUG-CC-PVTZ
    Blend: AUG-CC-PVTZ
  Basis Set: (AUG-CC-PVTZ AUX)
    Blend: AUG-CC-PVTZ-JKFIT
	 Reference Energy          =    -380.7721884078643484 [Eh]
	 Singles Energy            =      -0.0000000000000000 [Eh]
	 Same-Spin Energy          =      -0.3704821909267456 [Eh]
	 Opposite-Spin Energy      =      -1.1773344910711472 [Eh]
	 Correlation Energy        =      -1.5478166819978927 [Eh]
	 Total Energy              =    -382.3200050898622635 [Eh]

	 ================> DF-SCS-MP2 Energies <==================
	-----------------------------------------------------------
	 SCS Same-Spin Scale       =       0.3333333333333333 [-]
	 SCS Opposite-Spin Scale   =       1.2000000000000000 [-]
	 SCS Same-Spin Energy      =      -0.1234940636422485 [Eh]
	 SCS Opposite-Spin Energy  =      -1.4128013892853766 [Eh]
	 SCS Correlation Energy    =      -1.5362954529276251 [Eh]
	 SCS Total Energy          =    -382.3084838607919664 [Eh]
	-----------------------------------------------------------

  Dipole Moment: [D]
     X:     2.6211      Y:     0.0058      Z:    -0.4153     Total:     2.6538

*** Psi4 exiting successfully. Buy a developer a beer!
