                               Psi4 1.4a3.dev225

  ==> Input File <==

--------------------------------------------------------------------------
#psi4
#
memory 32 gb

molecule  {
0 1
  O       -1.2892700     0.0000060    -0.8145290
  O       -0.5960130    -0.0000230     1.3422680
  O       -2.6196050     0.0000040    -0.2122050
  C        1.0437460     0.0000040    -0.4660030
  C        1.7813420     1.2673450    -0.0261740
  C        1.7813650    -1.2673310    -0.0262020
  C       -0.3290300    -0.0000080     0.1485520
  H        0.9245400     0.0000150    -1.5545560
  H        1.8622080     1.2945800     1.0634230
  H        1.2577770     2.1678420    -0.3590640
  H        2.7877650     1.2776000    -0.4534740
  H        1.8622170    -1.2945980     1.0633950
  H        2.7877950    -1.2775480    -0.4534850
  H        1.2099537    -2.2501793    -0.3895717
  H       -2.3655580    -0.0000240     0.7475810
units angstrom
no_reorient  #important for SAPT in psi4, default
symmetry c1  #important for SAPT in psi4, default
}

set PROPERTIES_ORIGIN ["COM"]
properties('MP2/aug-cc-pvtz', properties = ['dipole'])
--------------------------------------------------------------------------

    Molecular point group: c1
  Charge       = 0
  Multiplicity = 1
  Basis Set: AUG-CC-PVTZ
    Blend: AUG-CC-PVTZ
  Basis Set: (AUG-CC-PVTZ AUX)
    Blend: AUG-CC-PVTZ-JKFIT

    Orbital Energies [Eh]
    ---------------------

    Doubly Occupied:

       1A    -20.673248     2A    -20.646828     3A    -20.573868
       4A    -11.405432     5A    -11.268823     6A    -11.250725
       7A    -11.239928     8A     -1.527036     9A     -1.401273
      10A     -1.263396    11A     -1.104479    12A     -0.950743
      13A     -0.891431    14A     -0.806970    15A     -0.738188
      16A     -0.687404    17A     -0.685844    18A     -0.639477
      19A     -0.604680    20A     -0.596555    21A     -0.590172
      22A     -0.563612    23A     -0.542900    24A     -0.535328
      25A     -0.504848    26A     -0.494887    27A     -0.474324
      28A     -0.472258

  @DF-RHF Final Energy:  -380.76931747173114

   => Energetics <=

    Nuclear Repulsion Energy =            320.7859249566371886
    One-Electron Energy =               -1156.8411706641215915
    Two-Electron Energy =                 455.2859282357532038
    Total Energy =                       -380.7693174717311422
  Basis Set: (AUG-CC-PVTZ AUX)
    Blend: AUG-CC-PVTZ-RI
    Molecular point group: c1

    Geometry (in Angstrom), charge = 0, multiplicity = 1:

       Center              X                  Y                   Z               Mass
    ------------   -----------------  -----------------  -----------------  -----------------
         O           -1.190096699845     0.000804139837    -0.817130089187    15.994914619570
         O           -0.496839699845     0.000775139837     1.339666910813    15.994914619570
         O           -2.520431699845     0.000802139837    -0.214806089187    15.994914619570
         C            1.142919300155     0.000802139837    -0.468604089187    12.000000000000
         C            1.880515300155     1.268143139837    -0.028775089187    12.000000000000
         C            1.880538300155    -1.266532860163    -0.028803089187    12.000000000000
         C           -0.229856699845     0.000790139837     0.145950910813    12.000000000000
         H            1.023713300155     0.000813139837    -1.557157089187     1.007825032230
         H            1.961381300155     1.295378139837     1.060821910813     1.007825032230
         H            1.356950300155     2.168640139837    -0.361665089187     1.007825032230
         H            2.886938300155     1.278398139837    -0.456075089187     1.007825032230
         H            1.961390300155    -1.293799860163     1.060793910813     1.007825032230
         H            2.886968300155    -1.276749860163    -0.456086089187     1.007825032230
         H            1.309127000155    -2.249381160163    -0.392172789187     1.007825032230
         H           -2.266384699845     0.000774139837     0.744979910813     1.007825032230

  Basis Set: AUG-CC-PVTZ
    Blend: AUG-CC-PVTZ
  Basis Set: (AUG-CC-PVTZ AUX)
    Blend: AUG-CC-PVTZ-JKFIT
	 Reference Energy          =    -380.7693174717311422 [Eh]
	 Singles Energy            =      -0.0000000000000000 [Eh]
	 Same-Spin Energy          =      -0.3701792039482910 [Eh]
	 Opposite-Spin Energy      =      -1.1775623525029320 [Eh]
	 Correlation Energy        =      -1.5477415564512229 [Eh]
	 Total Energy              =    -382.3170590281823706 [Eh]

	 ================> DF-SCS-MP2 Energies <==================
	-----------------------------------------------------------
	 SCS Same-Spin Scale       =       0.3333333333333333 [-]
	 SCS Opposite-Spin Scale   =       1.2000000000000000 [-]
	 SCS Same-Spin Energy      =      -0.1233930679827637 [Eh]
	 SCS Opposite-Spin Energy  =      -1.4130748230035184 [Eh]
	 SCS Correlation Energy    =      -1.5364678909862821 [Eh]
	 SCS Total Energy          =    -382.3057853627174154 [Eh]
	-----------------------------------------------------------

  Dipole Moment: [D]
     X:     2.6387      Y:     0.0603      Z:    -0.4191     Total:     2.6725

*** Psi4 exiting successfully. Buy a developer a beer!
