                               Psi4 1.4a3.dev225

  ==> Input File <==

--------------------------------------------------------------------------
#psi4
#
memory 32 gb

molecule  {
0 1
  O       -1.2892700     0.0000060    -0.8145290
  O       -0.5960130    -0.0000230     1.3422680
  O       -2.6196050     0.0000040    -0.2122050
  C        1.0437460     0.0000040    -0.4660030
  C        1.7813420     1.2673450    -0.0261740
  C        1.7813650    -1.2673310    -0.0262020
  C       -0.3290300    -0.0000080     0.1485520
  H        0.9245400     0.0000150    -1.5545560
  H        1.8622080     1.2945800     1.0634230
  H        1.2577770     2.1678420    -0.3590640
  H        2.7877650     1.2776000    -0.4534740
  H        1.8548193    -1.2921032     0.9637002
  H        2.7877950    -1.2775480    -0.4534850
  H        1.2578290    -2.1678320    -0.3591270
  H       -2.3655580    -0.0000240     0.7475810
units angstrom
no_reorient  #important for SAPT in psi4, default
symmetry c1  #important for SAPT in psi4, default
}

set PROPERTIES_ORIGIN ["COM"]
properties('MP2/aug-cc-pvtz', properties = ['dipole'])
--------------------------------------------------------------------------

    Molecular point group: c1
  Charge       = 0
  Multiplicity = 1
  Basis Set: AUG-CC-PVTZ
    Blend: AUG-CC-PVTZ
  Basis Set: (AUG-CC-PVTZ AUX)
    Blend: AUG-CC-PVTZ-JKFIT

    Orbital Energies [Eh]
    ---------------------

    Doubly Occupied:

       1A    -20.673116     2A    -20.646675     3A    -20.573861
       4A    -11.405097     5A    -11.266875     6A    -11.238944
       7A    -11.227083     8A     -1.526924     9A     -1.401269
      10A     -1.263249    11A     -1.106873    12A     -0.962407
      13A     -0.895725    14A     -0.808589    15A     -0.739534
      16A     -0.688025    17A     -0.686949    18A     -0.643455
      19A     -0.609397    20A     -0.596826    21A     -0.592701
      22A     -0.575032    23A     -0.543533    24A     -0.538100
      25A     -0.507379    26A     -0.501007    27A     -0.474350
      28A     -0.472036

  @DF-RHF Final Energy:  -380.76973035124632

   => Energetics <=

    Nuclear Repulsion Energy =            321.6175187142959544
    One-Electron Energy =               -1158.4444746955230130
    Two-Electron Energy =                 456.0572256299806781
    Total Energy =                       -380.7697303512463236
  Basis Set: (AUG-CC-PVTZ AUX)
    Blend: AUG-CC-PVTZ-RI
    Molecular point group: c1

    Geometry (in Angstrom), charge = 0, multiplicity = 1:

       Center              X                  Y                   Z               Mass
    ------------   -----------------  -----------------  -----------------  -----------------
         O           -1.190488774615    -0.000017659055    -0.816459317772    15.994914619570
         O           -0.497231774615    -0.000046659055     1.340337682228    15.994914619570
         O           -2.520823774615    -0.000019659055    -0.214135317772    15.994914619570
         C            1.142527225385    -0.000019659055    -0.467933317772    12.000000000000
         C            1.880123225385     1.267321340945    -0.028104317772    12.000000000000
         C            1.880146225385    -1.267354659055    -0.028132317772    12.000000000000
         C           -0.230248774615    -0.000031659055     0.146621682228    12.000000000000
         H            1.023321225385    -0.000008659055    -1.556486317772     1.007825032230
         H            1.960989225385     1.294556340945     1.061492682228     1.007825032230
         H            1.356558225385     2.167818340945    -0.360994317772     1.007825032230
         H            2.886546225385     1.277576340945    -0.455404317772     1.007825032230
         H            1.953600525385    -1.292126859055     0.961769882228     1.007825032230
         H            2.886576225385    -1.277571659055    -0.455415317772     1.007825032230
         H            1.356610225385    -2.167855659055    -0.361057317772     1.007825032230
         H           -2.266776774615    -0.000047659055     0.745650682228     1.007825032230

  Basis Set: AUG-CC-PVTZ
    Blend: AUG-CC-PVTZ
  Basis Set: (AUG-CC-PVTZ AUX)
    Blend: AUG-CC-PVTZ-JKFIT
	 Reference Energy          =    -380.7697303512463236 [Eh]
	 Singles Energy            =      -0.0000000000000000 [Eh]
	 Same-Spin Energy          =      -0.3701778388275689 [Eh]
	 Opposite-Spin Energy      =      -1.1763506005253024 [Eh]
	 Correlation Energy        =      -1.5465284393528713 [Eh]
	 Total Energy              =    -382.3162587905991927 [Eh]

	 ================> DF-SCS-MP2 Energies <==================
	-----------------------------------------------------------
	 SCS Same-Spin Scale       =       0.3333333333333333 [-]
	 SCS Opposite-Spin Scale   =       1.2000000000000000 [-]
	 SCS Same-Spin Energy      =      -0.1233926129425230 [Eh]
	 SCS Opposite-Spin Energy  =      -1.4116207206303628 [Eh]
	 SCS Correlation Energy    =      -1.5350133335728857 [Eh]
	 SCS Total Energy          =    -382.3047436848191865 [Eh]
	-----------------------------------------------------------

  Dipole Moment: [D]
     X:     2.6384      Y:    -0.0093      Z:    -0.4047     Total:     2.6692

*** Psi4 exiting successfully. Buy a developer a beer!
