                               Psi4 1.4a3.dev225

  ==> Input File <==

--------------------------------------------------------------------------
#psi4
#
memory 32 gb

molecule  {
0 1
  O       -1.2892700     0.0000060    -0.8145290
  O       -0.5960130    -0.0000230     1.3422680
  O       -2.6196050     0.0000040    -0.2122050
  C        1.0437460     0.0000040    -0.4660030
  C        1.7813420     1.2673450    -0.0261740
  C        1.7813650    -1.2673310    -0.0262020
  C       -0.3290300    -0.0000080     0.1485520
  H        0.9245400     0.0000150    -1.5545560
  H        1.8622080     1.2945800     1.0634230
  H        1.2577770     2.1678420    -0.3590640
  H        2.7877650     1.2776000    -0.4534740
  H        1.8607375    -1.2940990     1.0434560
  H        2.7877950    -1.2775480    -0.4534850
  H        1.2578290    -2.1678320    -0.3591270
  H       -2.3655580    -0.0000240     0.7475810
units angstrom
no_reorient  #important for SAPT in psi4, default
symmetry c1  #important for SAPT in psi4, default
}

set PROPERTIES_ORIGIN ["COM"]
properties('MP2/aug-cc-pvtz', properties = ['dipole'])
--------------------------------------------------------------------------

    Molecular point group: c1
  Charge       = 0
  Multiplicity = 1
  Basis Set: AUG-CC-PVTZ
    Blend: AUG-CC-PVTZ
  Basis Set: (AUG-CC-PVTZ AUX)
    Blend: AUG-CC-PVTZ-JKFIT

    Orbital Energies [Eh]
    ---------------------

    Doubly Occupied:

       1A    -20.673193     2A    -20.646755     3A    -20.573769
       4A    -11.405153     5A    -11.267548     6A    -11.238964
       7A    -11.236635     8A     -1.526983     9A     -1.401185
      10A     -1.263332    11A     -1.105243    12A     -0.956809
      13A     -0.893349    14A     -0.807720    15A     -0.738218
      16A     -0.687358    17A     -0.686348    18A     -0.642529
      19A     -0.609641    20A     -0.596490    21A     -0.591187
      22A     -0.566085    23A     -0.542615    24A     -0.538041
      25A     -0.504936    26A     -0.501451    27A     -0.474308
      28A     -0.472155

  @DF-RHF Final Energy:  -380.77582314686111

   => Energetics <=

    Nuclear Repulsion Energy =            321.2650987072036628
    One-Electron Energy =               -1157.7858439542860651
    Two-Electron Energy =                 455.7449221002213449
    Total Energy =                       -380.7758231468611143
  Basis Set: (AUG-CC-PVTZ AUX)
    Blend: AUG-CC-PVTZ-RI
    Molecular point group: c1

    Geometry (in Angstrom), charge = 0, multiplicity = 1:

       Center              X                  Y                   Z               Mass
    ------------   -----------------  -----------------  -----------------  -----------------
         O           -1.190546099578     0.000001672694    -0.817231849665    15.994914619570
         O           -0.497289099578    -0.000027327306     1.339565150335    15.994914619570
         O           -2.520881099578    -0.000000327306    -0.214907849665    15.994914619570
         C            1.142469900422    -0.000000327306    -0.468705849665    12.000000000000
         C            1.880065900422     1.267340672694    -0.028876849665    12.000000000000
         C            1.880088900422    -1.267335327306    -0.028904849665    12.000000000000
         C           -0.230306099578    -0.000012327306     0.145849150335    12.000000000000
         H            1.023263900422     0.000010672694    -1.557258849665     1.007825032230
         H            1.960931900422     1.294575672694     1.060720150335     1.007825032230
         H            1.356500900422     2.167837672694    -0.361766849665     1.007825032230
         H            2.886488900422     1.277595672694    -0.456176849665     1.007825032230
         H            1.959461400422    -1.294103327306     1.040753150335     1.007825032230
         H            2.886518900422    -1.277552327306    -0.456187849665     1.007825032230
         H            1.356552900422    -2.167836327306    -0.361829849665     1.007825032230
         H           -2.266834099578    -0.000028327306     0.744878150335     1.007825032230

  Basis Set: AUG-CC-PVTZ
    Blend: AUG-CC-PVTZ
  Basis Set: (AUG-CC-PVTZ AUX)
    Blend: AUG-CC-PVTZ-JKFIT
	 Reference Energy          =    -380.7758231468611143 [Eh]
	 Singles Energy            =      -0.0000000000000000 [Eh]
	 Same-Spin Energy          =      -0.3701963109315928 [Eh]
	 Opposite-Spin Energy      =      -1.1767391999700332 [Eh]
	 Correlation Energy        =      -1.5469355109016261 [Eh]
	 Total Energy              =    -382.3227586577627335 [Eh]

	 ================> DF-SCS-MP2 Energies <==================
	-----------------------------------------------------------
	 SCS Same-Spin Scale       =       0.3333333333333333 [-]
	 SCS Opposite-Spin Scale   =       1.2000000000000000 [-]
	 SCS Same-Spin Energy      =      -0.1233987703105309 [Eh]
	 SCS Opposite-Spin Energy  =      -1.4120870399640397 [Eh]
	 SCS Correlation Energy    =      -1.5354858102745708 [Eh]
	 SCS Total Energy          =    -382.3113089571356795 [Eh]
	-----------------------------------------------------------

  Dipole Moment: [D]
     X:     2.6277      Y:    -0.0021      Z:    -0.4247     Total:     2.6618

*** Psi4 exiting successfully. Buy a developer a beer!
