                               Psi4 1.4a3.dev225

  ==> Input File <==

--------------------------------------------------------------------------
#psi4
#
memory 32 gb

molecule  {
0 1
  O       -1.2892700     0.0000060    -0.8145290
  O       -0.5960130    -0.0000230     1.3422680
  O       -2.6196050     0.0000040    -0.2122050
  C        1.0437460     0.0000040    -0.4660030
  C        1.7813420     1.2673450    -0.0261740
  C        1.7598756    -1.2746707    -0.0121225
  C       -0.3290300    -0.0000080     0.1485520
  H        0.9245400     0.0000150    -1.5545560
  H        1.8622080     1.2945800     1.0634230
  H        1.2577770     2.1678420    -0.3590640
  H        2.7877650     1.2776000    -0.4534740
  H        1.8622170    -1.2945980     1.0633950
  H        2.7877950    -1.2775480    -0.4534850
  H        1.2578290    -2.1678320    -0.3591270
  H       -2.3655580    -0.0000240     0.7475810
units angstrom
no_reorient  #important for SAPT in psi4, default
symmetry c1  #important for SAPT in psi4, default
}

set PROPERTIES_ORIGIN ["COM"]
properties('MP2/aug-cc-pvtz', properties = ['dipole'])
--------------------------------------------------------------------------

    Molecular point group: c1
  Charge       = 0
  Multiplicity = 1
  Basis Set: AUG-CC-PVTZ
    Blend: AUG-CC-PVTZ
  Basis Set: (AUG-CC-PVTZ AUX)
    Blend: AUG-CC-PVTZ-JKFIT

    Orbital Energies [Eh]
    ---------------------

    Doubly Occupied:

       1A    -20.672983     2A    -20.646517     3A    -20.573400
       4A    -11.404695     5A    -11.267965     6A    -11.239241
       7A    -11.239215     8A     -1.526786     9A     -1.400954
      10A     -1.263152    11A     -1.105096    12A     -0.956315
      13A     -0.892257    14A     -0.807339    15A     -0.738005
      16A     -0.687112    17A     -0.686041    18A     -0.643474
      19A     -0.609741    20A     -0.596193    21A     -0.590063
      22A     -0.565836    23A     -0.540814    24A     -0.534741
      25A     -0.506268    26A     -0.503558    27A     -0.474136
      28A     -0.470712

  @DF-RHF Final Energy:  -380.77500815762573

   => Energetics <=

    Nuclear Repulsion Energy =            321.3060801762883330
    One-Electron Energy =               -1157.8769554745351797
    Two-Electron Energy =                 455.7958671406211124
    Total Energy =                       -380.7750081576257344
  Basis Set: (AUG-CC-PVTZ AUX)
    Blend: AUG-CC-PVTZ-RI
    Molecular point group: c1

    Geometry (in Angstrom), charge = 0, multiplicity = 1:

       Center              X                  Y                   Z               Mass
    ------------   -----------------  -----------------  -----------------  -----------------
         O           -1.188082012435     0.000853009222    -0.819048801600    15.994914619570
         O           -0.494825012435     0.000824009222     1.337748198400    15.994914619570
         O           -2.518417012435     0.000851009222    -0.216724801600    15.994914619570
         C            1.144933987565     0.000851009222    -0.470522801600    12.000000000000
         C            1.882529987565     1.268192009222    -0.030693801600    12.000000000000
         C            1.861063587565    -1.273823690778    -0.016642301600    12.000000000000
         C           -0.227842012435     0.000839009222     0.144032198400    12.000000000000
         H            1.025727987565     0.000862009222    -1.559075801600     1.007825032230
         H            1.963395987565     1.295427009222     1.058903198400     1.007825032230
         H            1.358964987565     2.168689009222    -0.363583801600     1.007825032230
         H            2.888952987565     1.278447009222    -0.457993801600     1.007825032230
         H            1.963404987565    -1.293750990778     1.058875198400     1.007825032230
         H            2.888982987565    -1.276700990778    -0.458004801600     1.007825032230
         H            1.359016987565    -2.166984990778    -0.363646801600     1.007825032230
         H           -2.264370012435     0.000823009222     0.743061198400     1.007825032230

  Basis Set: AUG-CC-PVTZ
    Blend: AUG-CC-PVTZ
  Basis Set: (AUG-CC-PVTZ AUX)
    Blend: AUG-CC-PVTZ-JKFIT
	 Reference Energy          =    -380.7750081576257344 [Eh]
	 Singles Energy            =      -0.0000000000000000 [Eh]
	 Same-Spin Energy          =      -0.3702440091638667 [Eh]
	 Opposite-Spin Energy      =      -1.1769010494580816 [Eh]
	 Correlation Energy        =      -1.5471450586219482 [Eh]
	 Total Energy              =    -382.3221532162476706 [Eh]

	 ================> DF-SCS-MP2 Energies <==================
	-----------------------------------------------------------
	 SCS Same-Spin Scale       =       0.3333333333333333 [-]
	 SCS Opposite-Spin Scale   =       1.2000000000000000 [-]
	 SCS Same-Spin Energy      =      -0.1234146697212889 [Eh]
	 SCS Opposite-Spin Energy  =      -1.4122812593496978 [Eh]
	 SCS Correlation Energy    =      -1.5356959290709866 [Eh]
	 SCS Total Energy          =    -382.3107040866967168 [Eh]
	-----------------------------------------------------------

  Dipole Moment: [D]
     X:     2.6268      Y:    -0.0003      Z:    -0.4287     Total:     2.6616

*** Psi4 exiting successfully. Buy a developer a beer!
