                               Psi4 1.4a3.dev225

  ==> Input File <==

--------------------------------------------------------------------------
#psi4
#
memory 32 gb

molecule  {
0 1
  O       -1.2892700     0.0000060    -0.8145290
  O       -0.5960130    -0.0000230     1.3422680
  O       -2.6196050     0.0000040    -0.2122050
  C        1.0437460     0.0000040    -0.4660030
  C        1.7813420     1.2673450    -0.0261740
  C        1.7813650    -1.2673310    -0.0262020
  C       -0.3290300    -0.0000080     0.1485520
  H        0.9245400     0.0000150    -1.5545560
  H        1.8622080     1.2945800     1.0634230
  H        1.2577770     2.1678420    -0.3590640
  H        2.7877650     1.2776000    -0.4534740
  H        1.8659159    -1.2958454     1.1132424
  H        2.7877950    -1.2775480    -0.4534850
  H        1.2578290    -2.1678320    -0.3591270
  H       -2.3655580    -0.0000240     0.7475810
units angstrom
no_reorient  #important for SAPT in psi4, default
symmetry c1  #important for SAPT in psi4, default
}

set PROPERTIES_ORIGIN ["COM"]
properties('MP2/aug-cc-pvtz', properties = ['dipole'])
--------------------------------------------------------------------------

    Molecular point group: c1
  Charge       = 0
  Multiplicity = 1
  Basis Set: AUG-CC-PVTZ
    Blend: AUG-CC-PVTZ
  Basis Set: (AUG-CC-PVTZ AUX)
    Blend: AUG-CC-PVTZ-JKFIT

    Orbital Energies [Eh]
    ---------------------

    Doubly Occupied:

       1A    -20.673286     2A    -20.646851     3A    -20.573698
       4A    -11.405235     5A    -11.268264     6A    -11.244702
       7A    -11.239013     8A     -1.527060     9A     -1.401118
      10A     -1.263435    11A     -1.104346    12A     -0.953304
      13A     -0.891551    14A     -0.807136    15A     -0.737309
      16A     -0.687377    17A     -0.685557    18A     -0.641979
      19A     -0.609952    20A     -0.596469    21A     -0.590760
      22A     -0.558736    23A     -0.541225    24A     -0.537786
      25A     -0.502306    26A     -0.501192    27A     -0.474250
      28A     -0.472294

  @DF-RHF Final Energy:  -380.77364545838282

   => Energetics <=

    Nuclear Repulsion Energy =            320.9840567885178189
    One-Electron Energy =               -1157.2430259631896661
    Two-Electron Energy =                 455.4853237162890309
    Total Energy =                       -380.7736454583828163
  Basis Set: (AUG-CC-PVTZ AUX)
    Blend: AUG-CC-PVTZ-RI
    Molecular point group: c1

    Geometry (in Angstrom), charge = 0, multiplicity = 1:

       Center              X                  Y                   Z               Mass
    ------------   -----------------  -----------------  -----------------  -----------------
         O           -1.190596258678     0.000018588702    -0.817907815797    15.994914619570
         O           -0.497339258678    -0.000010411298     1.338889184203    15.994914619570
         O           -2.520931258678     0.000016588702    -0.215583815797    15.994914619570
         C            1.142419741322     0.000016588702    -0.469381815797    12.000000000000
         C            1.880015741322     1.267357588702    -0.029552815797    12.000000000000
         C            1.880038741322    -1.267318411298    -0.029580815797    12.000000000000
         C           -0.230356258678     0.000004588702     0.145173184203    12.000000000000
         H            1.023213741322     0.000027588702    -1.557934815797     1.007825032230
         H            1.960881741322     1.294592588702     1.060044184203     1.007825032230
         H            1.356450741322     2.167854588702    -0.362442815797     1.007825032230
         H            2.886438741322     1.277612588702    -0.456852815797     1.007825032230
         H            1.964589641322    -1.295832811298     1.109863584203     1.007825032230
         H            2.886468741322    -1.277535411298    -0.456863815797     1.007825032230
         H            1.356502741322    -2.167819411298    -0.362505815797     1.007825032230
         H           -2.266884258678    -0.000011411298     0.744202184203     1.007825032230

  Basis Set: AUG-CC-PVTZ
    Blend: AUG-CC-PVTZ
  Basis Set: (AUG-CC-PVTZ AUX)
    Blend: AUG-CC-PVTZ-JKFIT
	 Reference Energy          =    -380.7736454583828163 [Eh]
	 Singles Energy            =      -0.0000000000000000 [Eh]
	 Same-Spin Energy          =      -0.3702348634371505 [Eh]
	 Opposite-Spin Energy      =      -1.1772281845411401 [Eh]
	 Correlation Energy        =      -1.5474630479782907 [Eh]
	 Total Energy              =    -382.3211085063610994 [Eh]

	 ================> DF-SCS-MP2 Energies <==================
	-----------------------------------------------------------
	 SCS Same-Spin Scale       =       0.3333333333333333 [-]
	 SCS Opposite-Spin Scale   =       1.2000000000000000 [-]
	 SCS Same-Spin Energy      =      -0.1234116211457168 [Eh]
	 SCS Opposite-Spin Energy  =      -1.4126738214493682 [Eh]
	 SCS Correlation Energy    =      -1.5360854425950849 [Eh]
	 SCS Total Energy          =    -382.3097309009779110 [Eh]
	-----------------------------------------------------------

  Dipole Moment: [D]
     X:     2.6165      Y:     0.0058      Z:    -0.4478     Total:     2.6545

*** Psi4 exiting successfully. Buy a developer a beer!
