                               Psi4 1.4a3.dev225

  ==> Input File <==

--------------------------------------------------------------------------
#psi4
#
memory 32 gb

molecule  {
0 1
  O       -1.2892700     0.0000060    -0.8145290
  O       -0.5960130    -0.0000230     1.3422680
  O       -2.6196050     0.0000040    -0.2122050
  C        1.0437460     0.0000040    -0.4660030
  C        1.7813420     1.2673450    -0.0261740
  C        1.7813650    -1.2673310    -0.0262020
  C       -0.3290300    -0.0000080     0.1485520
  H        0.9245400     0.0000150    -1.5545560
  H        1.8622080     1.2945800     1.0634230
  H        1.2577770     2.1678420    -0.3590640
  H        2.7877650     1.2776000    -0.4534740
  H        1.8622170    -1.2945980     1.0633950
  H        2.8005862    -1.2111324    -0.4181284
  H        1.2578290    -2.1678320    -0.3591270
  H       -2.3655580    -0.0000240     0.7475810
units angstrom
no_reorient  #important for SAPT in psi4, default
symmetry c1  #important for SAPT in psi4, default
}

set PROPERTIES_ORIGIN ["COM"]
properties('MP2/aug-cc-pvtz', properties = ['dipole'])
--------------------------------------------------------------------------

    Molecular point group: c1
  Charge       = 0
  Multiplicity = 1
  Basis Set: AUG-CC-PVTZ
    Blend: AUG-CC-PVTZ
  Basis Set: (AUG-CC-PVTZ AUX)
    Blend: AUG-CC-PVTZ-JKFIT

    Orbital Energies [Eh]
    ---------------------

    Doubly Occupied:

       1A    -20.673065     2A    -20.646614     3A    -20.573501
       4A    -11.404808     5A    -11.267343     6A    -11.239195
       7A    -11.239149     8A     -1.526847     9A     -1.400946
      10A     -1.263208    11A     -1.105327    12A     -0.955507
      13A     -0.892889    14A     -0.807291    15A     -0.737844
      16A     -0.687213    17A     -0.686184    18A     -0.641098
      19A     -0.612438    20A     -0.596284    21A     -0.591476
      22A     -0.562346    23A     -0.541450    24A     -0.539149
      25A     -0.504285    26A     -0.501258    27A     -0.474136
      28A     -0.471864

  @DF-RHF Final Energy:  -380.77517916607604

   => Energetics <=

    Nuclear Repulsion Energy =            321.2491928448354201
    One-Electron Energy =               -1157.7633161756675690
    Two-Electron Energy =                 455.7389441647561057
    Total Energy =                       -380.7751791660760432
  Basis Set: (AUG-CC-PVTZ AUX)
    Blend: AUG-CC-PVTZ-RI
    Molecular point group: c1

    Geometry (in Angstrom), charge = 0, multiplicity = 1:

       Center              X                  Y                   Z               Mass
    ------------   -----------------  -----------------  -----------------  -----------------
         O           -1.190684328658    -0.000636809721    -0.817767454781    15.994914619570
         O           -0.497427328658    -0.000665809721     1.339029545219    15.994914619570
         O           -2.521019328658    -0.000638809721    -0.215443454781    15.994914619570
         C            1.142331671342    -0.000638809721    -0.469241454781    12.000000000000
         C            1.879927671342     1.266702190279    -0.029412454781    12.000000000000
         C            1.879950671342    -1.267973809721    -0.029440454781    12.000000000000
         C           -0.230444328658    -0.000650809721     0.145313545219    12.000000000000
         H            1.023125671342    -0.000627809721    -1.557794454781     1.007825032230
         H            1.960793671342     1.293937190279     1.060184545219     1.007825032230
         H            1.356362671342     2.167199190279    -0.362302454781     1.007825032230
         H            2.886350671342     1.276957190279    -0.456712454781     1.007825032230
         H            1.960802671342    -1.295240809721     1.060156545219     1.007825032230
         H            2.899171871342    -1.211775209721    -0.421366854781     1.007825032230
         H            1.356414671342    -2.168474809721    -0.362365454781     1.007825032230
         H           -2.266972328658    -0.000666809721     0.744342545219     1.007825032230

  Basis Set: AUG-CC-PVTZ
    Blend: AUG-CC-PVTZ
  Basis Set: (AUG-CC-PVTZ AUX)
    Blend: AUG-CC-PVTZ-JKFIT
	 Reference Energy          =    -380.7751791660760432 [Eh]
	 Singles Energy            =      -0.0000000000000000 [Eh]
	 Same-Spin Energy          =      -0.3702842395840270 [Eh]
	 Opposite-Spin Energy      =      -1.1769789857349562 [Eh]
	 Correlation Energy        =      -1.5472632253189831 [Eh]
	 Total Energy              =    -382.3224423913950432 [Eh]

	 ================> DF-SCS-MP2 Energies <==================
	-----------------------------------------------------------
	 SCS Same-Spin Scale       =       0.3333333333333333 [-]
	 SCS Opposite-Spin Scale   =       1.2000000000000000 [-]
	 SCS Same-Spin Energy      =      -0.1234280798613423 [Eh]
	 SCS Opposite-Spin Energy  =      -1.4123747828819473 [Eh]
	 SCS Correlation Energy    =      -1.5358028627432896 [Eh]
	 SCS Total Energy          =    -382.3109820288193532 [Eh]
	-----------------------------------------------------------

  Dipole Moment: [D]
     X:     2.6285      Y:     0.0183      Z:    -0.4143     Total:     2.6611

*** Psi4 exiting successfully. Buy a developer a beer!
