                               Psi4 1.4a3.dev225

  ==> Input File <==

--------------------------------------------------------------------------
#psi4
#
memory 32 gb

molecule  {
0 1
  O       -1.2892700     0.0000060    -0.8145290
  O       -0.5960130    -0.0000230     1.3422680
  O       -2.6196050     0.0000040    -0.2122050
  C        1.0437460     0.0000040    -0.4660030
  C        1.7813420     1.2673450    -0.0261740
  C        1.7813650    -1.2673310    -0.0262020
  C       -0.3290300    -0.0000080     0.1485520
  H        0.9245400     0.0000150    -1.5545560
  H        1.8622080     1.2945800     1.0634230
  H        1.2577770     2.1678420    -0.3590640
  H        2.7877650     1.2776000    -0.4534740
  H        1.8622170    -1.2945980     1.0633950
  H        2.7795559    -1.3107573    -0.4703930
  H        1.2578290    -2.1678320    -0.3591270
  H       -2.3655580    -0.0000240     0.7475810
units angstrom
no_reorient  #important for SAPT in psi4, default
symmetry c1  #important for SAPT in psi4, default
}

set PROPERTIES_ORIGIN ["COM"]
properties('MP2/aug-cc-pvtz', properties = ['dipole'])
--------------------------------------------------------------------------

    Molecular point group: c1
  Charge       = 0
  Multiplicity = 1
  Basis Set: AUG-CC-PVTZ
    Blend: AUG-CC-PVTZ
  Basis Set: (AUG-CC-PVTZ AUX)
    Blend: AUG-CC-PVTZ-JKFIT

    Orbital Energies [Eh]
    ---------------------

    Doubly Occupied:

       1A    -20.673287     2A    -20.646856     3A    -20.573860
       4A    -11.405343     5A    -11.267956     6A    -11.238895
       7A    -11.238871     8A     -1.527074     9A     -1.401265
      10A     -1.263428    11A     -1.104784    12A     -0.955821
      13A     -0.892788    14A     -0.807664    15A     -0.737981
      16A     -0.687419    17A     -0.686073    18A     -0.643137
      19A     -0.608602    20A     -0.596547    21A     -0.590597
      22A     -0.564668    23A     -0.542546    24A     -0.537304
      25A     -0.504055    26A     -0.501585    27A     -0.474371
      28A     -0.472256

  @DF-RHF Final Energy:  -380.77566885171382

   => Energetics <=

    Nuclear Repulsion Energy =            321.1521335114475164
    One-Electron Energy =               -1157.5655414648979331
    Two-Electron Energy =                 455.6377391017365426
    Total Energy =                       -380.7756688517138173
  Basis Set: (AUG-CC-PVTZ AUX)
    Blend: AUG-CC-PVTZ-RI
    Molecular point group: c1

    Geometry (in Angstrom), charge = 0, multiplicity = 1:

       Center              X                  Y                   Z               Mass
    ------------   -----------------  -----------------  -----------------  -----------------
         O           -1.190480624633     0.000328178563    -0.817261208585    15.994914619570
         O           -0.497223624633     0.000299178563     1.339535791415    15.994914619570
         O           -2.520815624633     0.000326178563    -0.214937208585    15.994914619570
         C            1.142535375367     0.000326178563    -0.468735208585    12.000000000000
         C            1.880131375367     1.267667178563    -0.028906208585    12.000000000000
         C            1.880154375367    -1.267008821437    -0.028934208585    12.000000000000
         C           -0.230240624633     0.000314178563     0.145819791415    12.000000000000
         H            1.023329375367     0.000337178563    -1.557288208585     1.007825032230
         H            1.960997375367     1.294902178563     1.060690791415     1.007825032230
         H            1.356566375367     2.168164178563    -0.361796208585     1.007825032230
         H            2.886554375367     1.277922178563    -0.456206208585     1.007825032230
         H            1.961006375367    -1.294275821437     1.060662791415     1.007825032230
         H            2.878345275367    -1.310435121437    -0.473125208585     1.007825032230
         H            1.356618375367    -2.167509821437    -0.361859208585     1.007825032230
         H           -2.266768624633     0.000298178563     0.744848791415     1.007825032230

  Basis Set: AUG-CC-PVTZ
    Blend: AUG-CC-PVTZ
  Basis Set: (AUG-CC-PVTZ AUX)
    Blend: AUG-CC-PVTZ-JKFIT
	 Reference Energy          =    -380.7756688517138173 [Eh]
	 Singles Energy            =      -0.0000000000000000 [Eh]
	 Same-Spin Energy          =      -0.3701879428883692 [Eh]
	 Opposite-Spin Energy      =      -1.1768385474746816 [Eh]
	 Correlation Energy        =      -1.5470264903630508 [Eh]
	 Total Energy              =    -382.3226953420768837 [Eh]

	 ================> DF-SCS-MP2 Energies <==================
	-----------------------------------------------------------
	 SCS Same-Spin Scale       =       0.3333333333333333 [-]
	 SCS Opposite-Spin Scale   =       1.2000000000000000 [-]
	 SCS Same-Spin Energy      =      -0.1233959809627897 [Eh]
	 SCS Opposite-Spin Energy  =      -1.4122062569696179 [Eh]
	 SCS Correlation Energy    =      -1.5356022379324077 [Eh]
	 SCS Total Energy          =    -382.3112710896461977 [Eh]
	-----------------------------------------------------------

  Dipole Moment: [D]
     X:     2.6218      Y:    -0.0098      Z:    -0.4391     Total:     2.6584

*** Psi4 exiting successfully. Buy a developer a beer!
