                               Psi4 1.4a3.dev225

  ==> Input File <==

--------------------------------------------------------------------------
#psi4
#
memory 32 gb

molecule  {
0 1
  O       -1.2892700     0.0000060    -0.8145290
  O       -0.5960130    -0.0000230     1.3422680
  O       -2.6196050     0.0000040    -0.2122050
  C        1.0437460     0.0000040    -0.4660030
  C        1.7813420     1.2673450    -0.0261740
  C        1.7813650    -1.2673310    -0.0262020
  C       -0.3290300    -0.0000080     0.1485520
  H        0.9245400     0.0000150    -1.5545560
  H        1.8622080     1.2945800     1.0634230
  H        1.2577770     2.1678420    -0.3590640
  H        2.6957218     1.2766621    -0.4143950
  H        1.8622170    -1.2945980     1.0633950
  H        2.7877950    -1.2775480    -0.4534850
  H        1.2578290    -2.1678320    -0.3591270
  H       -2.3655580    -0.0000240     0.7475810
units angstrom
no_reorient  #important for SAPT in psi4, default
symmetry c1  #important for SAPT in psi4, default
}

set PROPERTIES_ORIGIN ["COM"]
properties('MP2/aug-cc-pvtz', properties = ['dipole'])
--------------------------------------------------------------------------

    Molecular point group: c1
  Charge       = 0
  Multiplicity = 1
  Basis Set: AUG-CC-PVTZ
    Blend: AUG-CC-PVTZ
  Basis Set: (AUG-CC-PVTZ AUX)
    Blend: AUG-CC-PVTZ-JKFIT

    Orbital Energies [Eh]
    ---------------------

    Doubly Occupied:

       1A    -20.672703     2A    -20.646286     3A    -20.573058
       4A    -11.404441     5A    -11.266957     6A    -11.238990
       7A    -11.226632     8A     -1.526478     9A     -1.400518
      10A     -1.262856    11A     -1.106642    12A     -0.962312
      13A     -0.896442    14A     -0.808423    15A     -0.737440
      16A     -0.687533    17A     -0.685655    18A     -0.643338
      19A     -0.612822    20A     -0.597802    21A     -0.595062
      22A     -0.565513    23A     -0.547756    24A     -0.539291
      25A     -0.503565    26A     -0.500800    27A     -0.473847
      28A     -0.472599

  @DF-RHF Final Energy:  -380.76974720817395

   => Energetics <=

    Nuclear Repulsion Energy =            321.6637360605853360
    One-Electron Energy =               -1158.5554428924065178
    Two-Electron Energy =                 456.1219596236472853
    Total Energy =                       -380.7697472081739534
  Basis Set: (AUG-CC-PVTZ AUX)
    Blend: AUG-CC-PVTZ-RI
    Molecular point group: c1

    Geometry (in Angstrom), charge = 0, multiplicity = 1:

       Center              X                  Y                   Z               Mass
    ------------   -----------------  -----------------  -----------------  -----------------
         O           -1.189668880033     0.000015590818    -0.817803510751    15.994914619570
         O           -0.496411880033    -0.000013409182     1.338993489249    15.994914619570
         O           -2.520003880033     0.000013590818    -0.215479510751    15.994914619570
         C            1.143347119967     0.000013590818    -0.469277510751    12.000000000000
         C            1.880943119967     1.267354590818    -0.029448510751    12.000000000000
         C            1.880966119967    -1.267321409182    -0.029476510751    12.000000000000
         C           -0.229428880033     0.000001590818     0.145277489249    12.000000000000
         H            1.024141119967     0.000024590818    -1.557830510751     1.007825032230
         H            1.961809119967     1.294589590818     1.060148489249     1.007825032230
         H            1.357378119967     2.167851590818    -0.362338510751     1.007825032230
         H            2.795322919967     1.276671690818    -0.417669510751     1.007825032230
         H            1.961818119967    -1.294588409182     1.060120489249     1.007825032230
         H            2.887396119967    -1.277538409182    -0.456759510751     1.007825032230
         H            1.357430119967    -2.167822409182    -0.362401510751     1.007825032230
         H           -2.265956880033    -0.000014409182     0.744306489249     1.007825032230

  Basis Set: AUG-CC-PVTZ
    Blend: AUG-CC-PVTZ
  Basis Set: (AUG-CC-PVTZ AUX)
    Blend: AUG-CC-PVTZ-JKFIT
	 Reference Energy          =    -380.7697472081739534 [Eh]
	 Singles Energy            =      -0.0000000000000000 [Eh]
	 Same-Spin Energy          =      -0.3702268435193737 [Eh]
	 Opposite-Spin Energy      =      -1.1763700122753686 [Eh]
	 Correlation Energy        =      -1.5465968557947423 [Eh]
	 Total Energy              =    -382.3163440639686996 [Eh]

	 ================> DF-SCS-MP2 Energies <==================
	-----------------------------------------------------------
	 SCS Same-Spin Scale       =       0.3333333333333333 [-]
	 SCS Opposite-Spin Scale   =       1.2000000000000000 [-]
	 SCS Same-Spin Energy      =      -0.1234089478397912 [Eh]
	 SCS Opposite-Spin Energy  =      -1.4116440147304423 [Eh]
	 SCS Correlation Energy    =      -1.5350529625702336 [Eh]
	 SCS Total Energy          =    -382.3048001707442154 [Eh]
	-----------------------------------------------------------

  Dipole Moment: [D]
     X:     2.6740      Y:     0.0099      Z:    -0.4449     Total:     2.7108

*** Psi4 exiting successfully. Buy a developer a beer!
