                               Psi4 1.4a3.dev225

  ==> Input File <==

--------------------------------------------------------------------------
#psi4
#
memory 32 gb

molecule  {
0 1
  O       -1.2892700     0.0000060    -0.8145290
  O       -0.5960130    -0.0000230     1.3422680
  O       -2.6196050     0.0000040    -0.2122050
  C        1.0437460     0.0000040    -0.4660030
  C        1.7813420     1.2673450    -0.0261740
  C        1.7813650    -1.2673310    -0.0262020
  C       -0.3290300    -0.0000080     0.1485520
  H        0.9245400     0.0000150    -1.5545560
  H        1.8622080     1.2945800     1.0634230
  H        1.2577770     2.1678420    -0.3590640
  H        2.7877650     1.2776000    -0.4534740
  H        1.8474216    -1.2896083     0.8640054
  H        2.7877950    -1.2775480    -0.4534850
  H        1.2578290    -2.1678320    -0.3591270
  H       -2.3655580    -0.0000240     0.7475810
units angstrom
no_reorient  #important for SAPT in psi4, default
symmetry c1  #important for SAPT in psi4, default
}

set PROPERTIES_ORIGIN ["COM"]
properties('MP2/aug-cc-pvtz', properties = ['dipole'])
--------------------------------------------------------------------------

    Molecular point group: c1
  Charge       = 0
  Multiplicity = 1
  Basis Set: AUG-CC-PVTZ
    Blend: AUG-CC-PVTZ
  Basis Set: (AUG-CC-PVTZ AUX)
    Blend: AUG-CC-PVTZ-JKFIT

    Orbital Energies [Eh]
    ---------------------

    Doubly Occupied:

       1A    -20.673057     2A    -20.646613     3A    -20.573978
       4A    -11.405073     5A    -11.266260     6A    -11.238961
       7A    -11.215210     8A     -1.526884     9A     -1.401374
      10A     -1.263189    11A     -1.110129    12A     -0.972294
      13A     -0.898925    14A     -0.809949    15A     -0.741602
      16A     -0.690171    17A     -0.686992    18A     -0.645148
      19A     -0.609275    20A     -0.600676    21A     -0.595207
      22A     -0.582319    23A     -0.544160    24A     -0.538154
      25A     -0.509248    26A     -0.500653    27A     -0.474390
      28A     -0.471945

  @DF-RHF Final Energy:  -380.74158395381244

   => Energetics <=

    Nuclear Repulsion Energy =            322.1177218878012809
    One-Electron Energy =               -1159.3349371014494409
    Two-Electron Energy =                 456.4756312598357226
    Total Energy =                       -380.7415839538124374
  Basis Set: (AUG-CC-PVTZ AUX)
    Blend: AUG-CC-PVTZ-RI
    Molecular point group: c1

    Geometry (in Angstrom), charge = 0, multiplicity = 1:

       Center              X                  Y                   Z               Mass
    ------------   -----------------  -----------------  -----------------  -----------------
         O           -1.190417118896    -0.000041825195    -0.815493652421    15.994914619570
         O           -0.497160118896    -0.000070825195     1.341303347579    15.994914619570
         O           -2.520752118896    -0.000043825195    -0.213169652421    15.994914619570
         C            1.142598881104    -0.000043825195    -0.466967652421    12.000000000000
         C            1.880194881104     1.267297174805    -0.027138652421    12.000000000000
         C            1.880217881104    -1.267378825195    -0.027166652421    12.000000000000
         C           -0.230177118896    -0.000055825195     0.147587347579    12.000000000000
         H            1.023392881104    -0.000032825195    -1.555520652421     1.007825032230
         H            1.961060881104     1.294532174805     1.062458347579     1.007825032230
         H            1.356629881104     2.167794174805    -0.360028652421     1.007825032230
         H            2.886617881104     1.277552174805    -0.454438652421     1.007825032230
         H            1.946274481104    -1.289656125195     0.863040747579     1.007825032230
         H            2.886647881104    -1.277595825195    -0.454449652421     1.007825032230
         H            1.356681881104    -2.167879825195    -0.360091652421     1.007825032230
         H           -2.266705118896    -0.000071825195     0.746616347579     1.007825032230

  Basis Set: AUG-CC-PVTZ
    Blend: AUG-CC-PVTZ
  Basis Set: (AUG-CC-PVTZ AUX)
    Blend: AUG-CC-PVTZ-JKFIT
	 Reference Energy          =    -380.7415839538124374 [Eh]
	 Singles Energy            =      -0.0000000000000000 [Eh]
	 Same-Spin Energy          =      -0.3702191974490597 [Eh]
	 Opposite-Spin Energy      =      -1.1761997384630085 [Eh]
	 Correlation Energy        =      -1.5464189359120684 [Eh]
	 Total Energy              =    -382.2880028897245097 [Eh]

	 ================> DF-SCS-MP2 Energies <==================
	-----------------------------------------------------------
	 SCS Same-Spin Scale       =       0.3333333333333333 [-]
	 SCS Opposite-Spin Scale   =       1.2000000000000000 [-]
	 SCS Same-Spin Energy      =      -0.1234063991496866 [Eh]
	 SCS Opposite-Spin Energy  =      -1.4114396861556102 [Eh]
	 SCS Correlation Energy    =      -1.5348460853052968 [Eh]
	 SCS Total Energy          =    -382.2764300391177130 [Eh]
	-----------------------------------------------------------

  Dipole Moment: [D]
     X:     2.6486      Y:    -0.0158      Z:    -0.3894     Total:     2.6771

*** Psi4 exiting successfully. Buy a developer a beer!
