                               Psi4 1.4a3.dev225

  ==> Input File <==

--------------------------------------------------------------------------
#psi4
#
memory 32 gb

molecule  {
0 1
  O       -1.2892700     0.0000060    -0.8145290
  O       -0.5960130    -0.0000230     1.3422680
  O       -2.6196050     0.0000040    -0.2122050
  C        1.0437460     0.0000040    -0.4660030
  C        1.7813420     1.2673450    -0.0261740
  C        1.6492899    -1.3055043     0.0561171
  C       -0.3290300    -0.0000080     0.1485520
  H        0.9245400     0.0000150    -1.5545560
  H        1.8622080     1.2945800     1.0634230
  H        1.2577770     2.1678420    -0.3590640
  H        2.7877650     1.2776000    -0.4534740
  H        1.8622170    -1.2945980     1.0633950
  H        2.7877950    -1.2775480    -0.4534850
  H        1.2578290    -2.1678320    -0.3591270
  H       -2.3655580    -0.0000240     0.7475810
units angstrom
no_reorient  #important for SAPT in psi4, default
symmetry c1  #important for SAPT in psi4, default
}

set PROPERTIES_ORIGIN ["COM"]
properties('MP2/aug-cc-pvtz', properties = ['dipole'])
--------------------------------------------------------------------------

    Molecular point group: c1
  Charge       = 0
  Multiplicity = 1
  Basis Set: AUG-CC-PVTZ
    Blend: AUG-CC-PVTZ
  Basis Set: (AUG-CC-PVTZ AUX)
    Blend: AUG-CC-PVTZ-JKFIT

    Orbital Energies [Eh]
    ---------------------

    Doubly Occupied:

       1A    -20.672264     2A    -20.645627     3A    -20.572140
       4A    -11.403117     5A    -11.270659     6A    -11.244042
       7A    -11.240894     8A     -1.526173     9A     -1.400498
      10A     -1.262585    11A     -1.107125    12A     -0.960840
      13A     -0.891294    14A     -0.807433    15A     -0.738726
      16A     -0.687168    17A     -0.685351    18A     -0.654264
      19A     -0.611224    20A     -0.598347    21A     -0.594557
      22A     -0.569796    23A     -0.541594    24A     -0.515847
      25A     -0.514602    26A     -0.502605    27A     -0.473797
      28A     -0.457631

  @DF-RHF Final Energy:  -380.75194951114440

   => Energetics <=

    Nuclear Repulsion Energy =            321.9843797466746196
    One-Electron Energy =               -1159.1722624953215472
    Two-Electron Energy =                 456.4359332375024678
    Total Energy =                       -380.7519495111444030
  Basis Set: (AUG-CC-PVTZ AUX)
    Blend: AUG-CC-PVTZ-RI
    Molecular point group: c1

    Geometry (in Angstrom), charge = 0, multiplicity = 1:

       Center              X                  Y                   Z               Mass
    ------------   -----------------  -----------------  -----------------  -----------------
         O           -1.175327930039     0.004409113447    -0.826919018827    15.994914619570
         O           -0.482070930039     0.004380113447     1.329877981173    15.994914619570
         O           -2.505662930039     0.004407113447    -0.224595018827    15.994914619570
         C            1.157688069961     0.004407113447    -0.478393018827    12.000000000000
         C            1.895284069961     1.271748113447    -0.038564018827    12.000000000000
         C            1.763231969961    -1.301101186553     0.043727081173    12.000000000000
         C           -0.215087930039     0.004395113447     0.136161981173    12.000000000000
         H            1.038482069961     0.004418113447    -1.566946018827     1.007825032230
         H            1.976150069961     1.298983113447     1.051032981173     1.007825032230
         H            1.371719069961     2.172245113447    -0.371454018827     1.007825032230
         H            2.901707069961     1.282003113447    -0.465864018827     1.007825032230
         H            1.976159069961    -1.290194886553     1.051004981173     1.007825032230
         H            2.901737069961    -1.273144886553    -0.465875018827     1.007825032230
         H            1.371771069961    -2.163428886553    -0.371517018827     1.007825032230
         H           -2.251615930039     0.004379113447     0.735190981173     1.007825032230

  Basis Set: AUG-CC-PVTZ
    Blend: AUG-CC-PVTZ
  Basis Set: (AUG-CC-PVTZ AUX)
    Blend: AUG-CC-PVTZ-JKFIT
	 Reference Energy          =    -380.7519495111444030 [Eh]
	 Singles Energy            =      -0.0000000000000000 [Eh]
	 Same-Spin Energy          =      -0.3708197167202553 [Eh]
	 Opposite-Spin Energy      =      -1.1781363478391031 [Eh]
	 Correlation Energy        =      -1.5489560645593583 [Eh]
	 Total Energy              =    -382.3009055757037800 [Eh]

	 ================> DF-SCS-MP2 Energies <==================
	-----------------------------------------------------------
	 SCS Same-Spin Scale       =       0.3333333333333333 [-]
	 SCS Opposite-Spin Scale   =       1.2000000000000000 [-]
	 SCS Same-Spin Energy      =      -0.1236065722400851 [Eh]
	 SCS Opposite-Spin Energy  =      -1.4137636174069237 [Eh]
	 SCS Correlation Energy    =      -1.5373701896470087 [Eh]
	 SCS Total Energy          =    -382.2893197007913955 [Eh]
	-----------------------------------------------------------

  Dipole Moment: [D]
     X:     2.6066      Y:     0.0184      Z:    -0.4152     Total:     2.6395

*** Psi4 exiting successfully. Buy a developer a beer!
