                               Psi4 1.4a3.dev225

  ==> Input File <==

--------------------------------------------------------------------------
#psi4
#
memory 32 gb

molecule  {
0 1
  O       -1.2892700     0.0000060    -0.8145290
  O       -0.5960130    -0.0000230     1.3422680
  O       -2.6196050     0.0000040    -0.2122050
  C        1.0437460     0.0000040    -0.4660030
  C        1.7813420     1.2673450    -0.0261740
  C        1.8236632    -1.2514959    -0.0547587
  C       -0.3290300    -0.0000080     0.1485520
  H        0.9245400     0.0000150    -1.5545560
  H        1.8622080     1.2945800     1.0634230
  H        1.2577770     2.1678420    -0.3590640
  H        2.7877650     1.2776000    -0.4534740
  H        1.8622170    -1.2945980     1.0633950
  H        2.7877950    -1.2775480    -0.4534850
  H        1.2578290    -2.1678320    -0.3591270
  H       -2.3655580    -0.0000240     0.7475810
units angstrom
no_reorient  #important for SAPT in psi4, default
symmetry c1  #important for SAPT in psi4, default
}

set PROPERTIES_ORIGIN ["COM"]
properties('MP2/aug-cc-pvtz', properties = ['dipole'])
--------------------------------------------------------------------------

    Molecular point group: c1
  Charge       = 0
  Multiplicity = 1
  Basis Set: AUG-CC-PVTZ
    Blend: AUG-CC-PVTZ
  Basis Set: (AUG-CC-PVTZ AUX)
    Blend: AUG-CC-PVTZ-JKFIT

    Orbital Energies [Eh]
    ---------------------

    Doubly Occupied:

       1A    -20.673777     2A    -20.647389     3A    -20.574541
       4A    -11.406288     5A    -11.267641     6A    -11.239190
       7A    -11.238526     8A     -1.527532     9A     -1.401704
      10A     -1.263865    11A     -1.104896    12A     -0.954867
      13A     -0.894317    14A     -0.808217    15A     -0.737870
      16A     -0.688069    17A     -0.686192    18A     -0.641685
      19A     -0.609954    20A     -0.597981    21A     -0.594749
      22A     -0.559092    23A     -0.549040    24A     -0.538698
      25A     -0.499996    26A     -0.496061    27A     -0.474895
      28A     -0.474316

  @DF-RHF Final Energy:  -380.77249502392459

   => Energetics <=

    Nuclear Repulsion Energy =            320.9499165275205996
    One-Electron Energy =               -1157.1421283564009173
    Two-Electron Energy =                 455.4197168049557263
    Total Energy =                       -380.7724950239245914
  Basis Set: (AUG-CC-PVTZ AUX)
    Blend: AUG-CC-PVTZ-RI
    Molecular point group: c1

    Geometry (in Angstrom), charge = 0, multiplicity = 1:

       Center              X                  Y                   Z               Mass
    ------------   -----------------  -----------------  -----------------  -----------------
         O           -1.195438771096    -0.001819789419    -0.814131478584    15.994914619570
         O           -0.502181771096    -0.001848789419     1.342665521416    15.994914619570
         O           -2.525773771096    -0.001821789419    -0.211807478584    15.994914619570
         C            1.137577228904    -0.001821789419    -0.465605478584    12.000000000000
         C            1.875173228904     1.265519210581    -0.025776478584    12.000000000000
         C            1.917494428904    -1.253321689419    -0.054361178584    12.000000000000
         C           -0.235198771096    -0.001833789419     0.148949521416    12.000000000000
         H            1.018371228904    -0.001810789419    -1.554158478584     1.007825032230
         H            1.956039228904     1.292754210581     1.063820521416     1.007825032230
         H            1.351608228904     2.166016210581    -0.358666478584     1.007825032230
         H            2.881596228904     1.275774210581    -0.453076478584     1.007825032230
         H            1.956048228904    -1.296423789419     1.063792521416     1.007825032230
         H            2.881626228904    -1.279373789419    -0.453087478584     1.007825032230
         H            1.351660228904    -2.169657789419    -0.358729478584     1.007825032230
         H           -2.271726771096    -0.001849789419     0.747978521416     1.007825032230

  Basis Set: AUG-CC-PVTZ
    Blend: AUG-CC-PVTZ
  Basis Set: (AUG-CC-PVTZ AUX)
    Blend: AUG-CC-PVTZ-JKFIT
	 Reference Energy          =    -380.7724950239245914 [Eh]
	 Singles Energy            =      -0.0000000000000000 [Eh]
	 Same-Spin Energy          =      -0.3702090875325631 [Eh]
	 Opposite-Spin Energy      =      -1.1770240772910718 [Eh]
	 Correlation Energy        =      -1.5472331648236350 [Eh]
	 Total Energy              =    -382.3197281887482291 [Eh]

	 ================> DF-SCS-MP2 Energies <==================
	-----------------------------------------------------------
	 SCS Same-Spin Scale       =       0.3333333333333333 [-]
	 SCS Opposite-Spin Scale   =       1.2000000000000000 [-]
	 SCS Same-Spin Energy      =      -0.1234030291775210 [Eh]
	 SCS Opposite-Spin Energy  =      -1.4124288927492861 [Eh]
	 SCS Correlation Energy    =      -1.5358319219268071 [Eh]
	 SCS Total Energy          =    -382.3083269458513769 [Eh]
	-----------------------------------------------------------

  Dipole Moment: [D]
     X:     2.6129      Y:     0.0054      Z:    -0.4341     Total:     2.6487

*** Psi4 exiting successfully. Buy a developer a beer!
