                               Psi4 1.4a3.dev225

  ==> Input File <==

--------------------------------------------------------------------------
#psi4
#
memory 32 gb

molecule  {
0 1
  O       -1.2892700     0.0000060    -0.8145290
  O       -0.5960130    -0.0000230     1.3422680
  O       -2.6196050     0.0000040    -0.2122050
  C        1.0390129    -0.0139414    -0.4146367
  C        1.7813420     1.2673450    -0.0261740
  C        1.7813650    -1.2673310    -0.0262020
  C       -0.3290300    -0.0000080     0.1485520
  H        0.9245400     0.0000150    -1.5545560
  H        1.8622080     1.2945800     1.0634230
  H        1.2577770     2.1678420    -0.3590640
  H        2.7877650     1.2776000    -0.4534740
  H        1.8622170    -1.2945980     1.0633950
  H        2.7877950    -1.2775480    -0.4534850
  H        1.2578290    -2.1678320    -0.3591270
  H       -2.3655580    -0.0000240     0.7475810
units angstrom
no_reorient  #important for SAPT in psi4, default
symmetry c1  #important for SAPT in psi4, default
}

set PROPERTIES_ORIGIN ["COM"]
properties('MP2/aug-cc-pvtz', properties = ['dipole'])
--------------------------------------------------------------------------

    Molecular point group: c1
  Charge       = 0
  Multiplicity = 1
  Basis Set: AUG-CC-PVTZ
    Blend: AUG-CC-PVTZ
  Basis Set: (AUG-CC-PVTZ AUX)
    Blend: AUG-CC-PVTZ-JKFIT

    Orbital Energies [Eh]
    ---------------------

    Doubly Occupied:

       1A    -20.674209     2A    -20.648040     3A    -20.573263
       4A    -11.404783     5A    -11.268738     6A    -11.239625
       7A    -11.238421     8A     -1.527866     9A     -1.402043
      10A     -1.264118    11A     -1.108673    12A     -0.958167
      13A     -0.896586    14A     -0.808124    15A     -0.733828
      16A     -0.688569    17A     -0.684867    18A     -0.643744
      19A     -0.611326    20A     -0.596915    21A     -0.594033
      22A     -0.562932    23A     -0.545448    24A     -0.538513
      25A     -0.507037    26A     -0.489933    27A     -0.474827
      28A     -0.474013

  @DF-RHF Final Energy:  -380.77218836650314

   => Energetics <=

    Nuclear Repulsion Energy =            321.6817834309005661
    One-Electron Energy =               -1158.5906631184680009
    Two-Electron Energy =                 456.1366913210642338
    Total Energy =                       -380.7721883665031442
  Basis Set: (AUG-CC-PVTZ AUX)
    Blend: AUG-CC-PVTZ-RI
    Molecular point group: c1

    Geometry (in Angstrom), charge = 0, multiplicity = 1:

       Center              X                  Y                   Z               Mass
    ------------   -----------------  -----------------  -----------------  -----------------
         O           -1.190014551912     0.001614858558    -0.823349167014    15.994914619570
         O           -0.496757551912     0.001585858558     1.333447832986    15.994914619570
         O           -2.520349551912     0.001612858558    -0.221025167014    15.994914619570
         C            1.138268348088    -0.012332541442    -0.423456867014    12.000000000000
         C            1.880597448088     1.268953858558    -0.034994167014    12.000000000000
         C            1.880620448088    -1.265722141442    -0.035022167014    12.000000000000
         C           -0.229774551912     0.001600858558     0.139731832986    12.000000000000
         H            1.023795448088     0.001623858558    -1.563376167014     1.007825032230
         H            1.961463448088     1.296188858558     1.054602832986     1.007825032230
         H            1.357032448088     2.169450858558    -0.367884167014     1.007825032230
         H            2.887020448088     1.279208858558    -0.462294167014     1.007825032230
         H            1.961472448088    -1.292989141442     1.054574832986     1.007825032230
         H            2.887050448088    -1.275939141442    -0.462305167014     1.007825032230
         H            1.357084448088    -2.166223141442    -0.367947167014     1.007825032230
         H           -2.266302551912     0.001584858558     0.738760832986     1.007825032230

  Basis Set: AUG-CC-PVTZ
    Blend: AUG-CC-PVTZ
  Basis Set: (AUG-CC-PVTZ AUX)
    Blend: AUG-CC-PVTZ-JKFIT
	 Reference Energy          =    -380.7721883665031442 [Eh]
	 Singles Energy            =      -0.0000000000000000 [Eh]
	 Same-Spin Energy          =      -0.3704821902041344 [Eh]
	 Opposite-Spin Energy      =      -1.1773344873088700 [Eh]
	 Correlation Energy        =      -1.5478166775130044 [Eh]
	 Total Energy              =    -382.3200050440161704 [Eh]

	 ================> DF-SCS-MP2 Energies <==================
	-----------------------------------------------------------
	 SCS Same-Spin Scale       =       0.3333333333333333 [-]
	 SCS Opposite-Spin Scale   =       1.2000000000000000 [-]
	 SCS Same-Spin Energy      =      -0.1234940634013781 [Eh]
	 SCS Opposite-Spin Energy  =      -1.4128013847706440 [Eh]
	 SCS Correlation Energy    =      -1.5362954481720221 [Eh]
	 SCS Total Energy          =    -382.3084838146751849 [Eh]
	-----------------------------------------------------------

  Dipole Moment: [D]
     X:     2.6211      Y:    -0.0058      Z:    -0.4153     Total:     2.6538

*** Psi4 exiting successfully. Buy a developer a beer!
