                               Psi4 1.4a3.dev225

  ==> Input File <==

--------------------------------------------------------------------------
#psi4
#
memory 32 gb

molecule  {
0 1
  O       -1.2892700     0.0000060    -0.8145290
  O       -0.5960130    -0.0000230     1.3422680
  O       -2.6196050     0.0000040    -0.2122050
  C        1.0464500     0.0075569    -0.4914891
  C        1.7813420     1.2673450    -0.0261740
  C        1.7813650    -1.2673310    -0.0262020
  C       -0.3290300    -0.0000080     0.1485520
  H        0.9245400     0.0000150    -1.5545560
  H        1.8622080     1.2945800     1.0634230
  H        1.2577770     2.1678420    -0.3590640
  H        2.7877650     1.2776000    -0.4534740
  H        1.8622170    -1.2945980     1.0633950
  H        2.7877950    -1.2775480    -0.4534850
  H        1.2578290    -2.1678320    -0.3591270
  H       -2.3655580    -0.0000240     0.7475810
units angstrom
no_reorient  #important for SAPT in psi4, default
symmetry c1  #important for SAPT in psi4, default
}

set PROPERTIES_ORIGIN ["COM"]
properties('MP2/aug-cc-pvtz', properties = ['dipole'])
--------------------------------------------------------------------------

    Molecular point group: c1
  Charge       = 0
  Multiplicity = 1
  Basis Set: AUG-CC-PVTZ
    Blend: AUG-CC-PVTZ
  Basis Set: (AUG-CC-PVTZ AUX)
    Blend: AUG-CC-PVTZ-JKFIT

    Orbital Energies [Eh]
    ---------------------

    Doubly Occupied:

       1A    -20.672726     2A    -20.646118     3A    -20.574015
       4A    -11.405424     5A    -11.267502     6A    -11.239370
       7A    -11.238798     8A     -1.526561     9A     -1.400794
      10A     -1.262939    11A     -1.103191    12A     -0.954505
      13A     -0.891123    14A     -0.807647    15A     -0.740031
      16A     -0.686827    17A     -0.686682    18A     -0.641637
      19A     -0.609002    20A     -0.596246    21A     -0.589634
      22A     -0.564344    23A     -0.541069    24A     -0.537783
      25A     -0.511119    26A     -0.498657    27A     -0.474025
      28A     -0.470242

  @DF-RHF Final Energy:  -380.77516133349712

   => Energetics <=

    Nuclear Repulsion Energy =            320.9241298993979967
    One-Electron Energy =               -1157.1225582234321791
    Two-Electron Energy =                 455.4232669905371154
    Total Energy =                       -380.7751613334971239
  Basis Set: (AUG-CC-PVTZ AUX)
    Blend: AUG-CC-PVTZ-RI
    Molecular point group: c1

    Geometry (in Angstrom), charge = 0, multiplicity = 1:

       Center              X                  Y                   Z               Mass
    ------------   -----------------  -----------------  -----------------  -----------------
         O           -1.190872288366    -0.000864585797    -0.814485617369    15.994914619570
         O           -0.497615288366    -0.000893585797     1.342311382631    15.994914619570
         O           -2.521207288366    -0.000866585797    -0.212161617369    15.994914619570
         C            1.144847711634     0.006686314203    -0.491445717369    12.000000000000
         C            1.879739711634     1.266474414203    -0.026130617369    12.000000000000
         C            1.879762711634    -1.268201585797    -0.026158617369    12.000000000000
         C           -0.230632288366    -0.000878585797     0.148595382631    12.000000000000
         H            1.022937711634    -0.000855585797    -1.554512617369     1.007825032230
         H            1.960605711634     1.293709414203     1.063466382631     1.007825032230
         H            1.356174711634     2.166971414203    -0.359020617369     1.007825032230
         H            2.886162711634     1.276729414203    -0.453430617369     1.007825032230
         H            1.960614711634    -1.295468585797     1.063438382631     1.007825032230
         H            2.886192711634    -1.278418585797    -0.453441617369     1.007825032230
         H            1.356226711634    -2.168702585797    -0.359083617369     1.007825032230
         H           -2.267160288366    -0.000894585797     0.747624382631     1.007825032230

  Basis Set: AUG-CC-PVTZ
    Blend: AUG-CC-PVTZ
  Basis Set: (AUG-CC-PVTZ AUX)
    Blend: AUG-CC-PVTZ-JKFIT
	 Reference Energy          =    -380.7751613334971239 [Eh]
	 Singles Energy            =      -0.0000000000000000 [Eh]
	 Same-Spin Energy          =      -0.3701247450387246 [Eh]
	 Opposite-Spin Energy      =      -1.1767821646176830 [Eh]
	 Correlation Energy        =      -1.5469069096564076 [Eh]
	 Total Energy              =    -382.3220682431535238 [Eh]

	 ================> DF-SCS-MP2 Energies <==================
	-----------------------------------------------------------
	 SCS Same-Spin Scale       =       0.3333333333333333 [-]
	 SCS Opposite-Spin Scale   =       1.2000000000000000 [-]
	 SCS Same-Spin Energy      =      -0.1233749150129082 [Eh]
	 SCS Opposite-Spin Energy  =      -1.4121385975412195 [Eh]
	 SCS Correlation Energy    =      -1.5355135125541277 [Eh]
	 SCS Total Energy          =    -382.3106748460512563 [Eh]
	-----------------------------------------------------------

  Dipole Moment: [D]
     X:     2.6276      Y:     0.0034      Z:    -0.4353     Total:     2.6634

*** Psi4 exiting successfully. Buy a developer a beer!
