                               Psi4 1.4a3.dev225

  ==> Input File <==

--------------------------------------------------------------------------
#psi4
#
memory 32 gb

molecule  {
0 1
  O       -1.2892700     0.0000060    -0.8145290
  O       -0.5960130    -0.0000230     1.3422680
  O       -2.6196050     0.0000040    -0.2122050
  C        1.0437460     0.0000040    -0.4660030
  C        1.7813420     1.2673450    -0.0261740
  C        1.7813650    -1.2673310    -0.0262020
  C       -0.3290300    -0.0000080     0.1485520
  H        0.9245400     0.0000150    -1.5545560
  H        1.8622080     1.2945800     1.0634230
  H        1.2577770     2.1678420    -0.3590640
  H        2.6036786     1.2757242    -0.3753159
  H        1.8622170    -1.2945980     1.0633950
  H        2.7877950    -1.2775480    -0.4534850
  H        1.2578290    -2.1678320    -0.3591270
  H       -2.3655580    -0.0000240     0.7475810
units angstrom
no_reorient  #important for SAPT in psi4, default
symmetry c1  #important for SAPT in psi4, default
}

set PROPERTIES_ORIGIN ["COM"]
properties('MP2/aug-cc-pvtz', properties = ['dipole'])
--------------------------------------------------------------------------

    Molecular point group: c1
  Charge       = 0
  Multiplicity = 1
  Basis Set: AUG-CC-PVTZ
    Blend: AUG-CC-PVTZ
  Basis Set: (AUG-CC-PVTZ AUX)
    Blend: AUG-CC-PVTZ-JKFIT

    Orbital Energies [Eh]
    ---------------------

    Doubly Occupied:

       1A    -20.672339     2A    -20.645936     3A    -20.572554
       4A    -11.403934     5A    -11.266419     6A    -11.239052
       7A    -11.214366     8A     -1.526104     9A     -1.400049
      10A     -1.262502    11A     -1.109647    12A     -0.972310
      13A     -0.900325    14A     -0.809610    15A     -0.737106
      16A     -0.688299    17A     -0.685327    18A     -0.646085
      19A     -0.619510    20A     -0.601377    21A     -0.595201
      22A     -0.567211    23A     -0.551025    24A     -0.539289
      25A     -0.503234    26A     -0.500314    27A     -0.473582
      28A     -0.472795

  @DF-RHF Final Energy:  -380.74171797414408

   => Energetics <=

    Nuclear Repulsion Energy =            322.2163997827288426
    One-Electron Energy =               -1159.5652345059013442
    Two-Electron Energy =                 456.6071167490284779
    Total Energy =                       -380.7417179741440805
  Basis Set: (AUG-CC-PVTZ AUX)
    Blend: AUG-CC-PVTZ-RI
    Molecular point group: c1

    Geometry (in Angstrom), charge = 0, multiplicity = 1:

       Center              X                  Y                   Z               Mass
    ------------   -----------------  -----------------  -----------------  -----------------
         O           -1.188777329731     0.000024675520    -0.818182039348    15.994914619570
         O           -0.495520329731    -0.000004324480     1.338614960652    15.994914619570
         O           -2.519112329731     0.000022675520    -0.215858039348    15.994914619570
         C            1.144238670269     0.000022675520    -0.469656039348    12.000000000000
         C            1.881834670269     1.267363675520    -0.029827039348    12.000000000000
         C            1.881857670269    -1.267312324480    -0.029855039348    12.000000000000
         C           -0.228537329731     0.000010675520     0.144898960652    12.000000000000
         H            1.025032670269     0.000033675520    -1.558209039348     1.007825032230
         H            1.962700670269     1.294598675520     1.059769960652     1.007825032230
         H            1.358269670269     2.167860675520    -0.362717039348     1.007825032230
         H            2.704171270269     1.275742875520    -0.378968939348     1.007825032230
         H            1.962709670269    -1.294579324480     1.059741960652     1.007825032230
         H            2.888287670269    -1.277529324480    -0.457138039348     1.007825032230
         H            1.358321670269    -2.167813324480    -0.362780039348     1.007825032230
         H           -2.265065329731    -0.000005324480     0.743927960652     1.007825032230

  Basis Set: AUG-CC-PVTZ
    Blend: AUG-CC-PVTZ
  Basis Set: (AUG-CC-PVTZ AUX)
    Blend: AUG-CC-PVTZ-JKFIT
	 Reference Energy          =    -380.7417179741440805 [Eh]
	 Singles Energy            =      -0.0000000000000000 [Eh]
	 Same-Spin Energy          =      -0.3703098891037733 [Eh]
	 Opposite-Spin Energy      =      -1.1762314913381950 [Eh]
	 Correlation Energy        =      -1.5465413804419683 [Eh]
	 Total Energy              =    -382.2882593545860459 [Eh]

	 ================> DF-SCS-MP2 Energies <==================
	-----------------------------------------------------------
	 SCS Same-Spin Scale       =       0.3333333333333333 [-]
	 SCS Opposite-Spin Scale   =       1.2000000000000000 [-]
	 SCS Same-Spin Energy      =      -0.1234366297012578 [Eh]
	 SCS Opposite-Spin Energy  =      -1.4114777896058339 [Eh]
	 SCS Correlation Energy    =      -1.5349144193070916 [Eh]
	 SCS Total Energy          =    -382.2766323934511661 [Eh]
	-----------------------------------------------------------

  Dipole Moment: [D]
     X:     2.7074      Y:     0.0168      Z:    -0.4538     Total:     2.7452

*** Psi4 exiting successfully. Buy a developer a beer!
