                               Psi4 1.4a3.dev225

  ==> Input File <==

--------------------------------------------------------------------------
#psi4
#
memory 32 gb

molecule  {
0 1
  O       -1.2892700     0.0000060    -0.8145290
  O       -0.5960130    -0.0000230     1.3422680
  O       -2.6196050     0.0000040    -0.2122050
  C        1.0437460     0.0000040    -0.4660030
  C        1.7813420     1.2673450    -0.0261740
  C        1.7813650    -1.2673310    -0.0262020
  C       -0.3290300    -0.0000080     0.1485520
  H        0.9245400     0.0000150    -1.5545560
  H        1.8622080     1.2945800     1.0634230
  H        1.2577770     2.1678420    -0.3590640
  H        2.7877650     1.2776000    -0.4534740
  H        1.8622170    -1.2945980     1.0633950
  H        2.7838281    -1.2941568    -0.4620054
  H        1.2578290    -2.1678320    -0.3591270
  H       -2.3655580    -0.0000240     0.7475810
units angstrom
no_reorient  #important for SAPT in psi4, default
symmetry c1  #important for SAPT in psi4, default
}

set PROPERTIES_ORIGIN ["COM"]
properties('MP2/aug-cc-pvtz', properties = ['dipole'])
--------------------------------------------------------------------------

    Molecular point group: c1
  Charge       = 0
  Multiplicity = 1
  Basis Set: AUG-CC-PVTZ
    Blend: AUG-CC-PVTZ
  Basis Set: (AUG-CC-PVTZ AUX)
    Blend: AUG-CC-PVTZ-JKFIT

    Orbital Energies [Eh]
    ---------------------

    Doubly Occupied:

       1A    -20.673252     2A    -20.646818     3A    -20.573805
       4A    -11.405259     5A    -11.267847     6A    -11.238937
       7A    -11.238920     8A     -1.527039     9A     -1.401216
      10A     -1.263394    11A     -1.104860    12A     -0.955751
      13A     -0.892794    14A     -0.807599    15A     -0.737958
      16A     -0.687382    17A     -0.686091    18A     -0.642731
      19A     -0.609138    20A     -0.596511    21A     -0.590816
      22A     -0.564244    23A     -0.542424    24A     -0.537665
      25A     -0.504091    26A     -0.501590    27A     -0.474333
      28A     -0.472232

  @DF-RHF Final Energy:  -380.77576353825742

   => Energetics <=

    Nuclear Repulsion Energy =            321.1670264158159966
    One-Electron Energy =               -1157.5961898073135217
    Two-Electron Energy =                 455.6533998532400460
    Total Energy =                       -380.7757635382574222
  Basis Set: (AUG-CC-PVTZ AUX)
    Blend: AUG-CC-PVTZ-RI
    Molecular point group: c1

    Geometry (in Angstrom), charge = 0, multiplicity = 1:

       Center              X                  Y                   Z               Mass
    ------------   -----------------  -----------------  -----------------  -----------------
         O           -1.190522006084     0.000167382537    -0.817342452689    15.994914619570
         O           -0.497265006084     0.000138382537     1.339454547311    15.994914619570
         O           -2.520857006084     0.000165382537    -0.215018452689    15.994914619570
         C            1.142493993916     0.000165382537    -0.468816452689    12.000000000000
         C            1.880089993916     1.267506382537    -0.028987452689    12.000000000000
         C            1.880112993916    -1.267169617463    -0.029015452689    12.000000000000
         C           -0.230282006084     0.000153382537     0.145738547311    12.000000000000
         H            1.023287993916     0.000176382537    -1.557369452689     1.007825032230
         H            1.960955993916     1.294741382537     1.060609547311     1.007825032230
         H            1.356524993916     2.168003382537    -0.361877452689     1.007825032230
         H            2.886512993916     1.277761382537    -0.456287452689     1.007825032230
         H            1.960964993916    -1.294436617463     1.060581547311     1.007825032230
         H            2.882576093916    -1.293995417463    -0.464818852689     1.007825032230
         H            1.356576993916    -2.167670617463    -0.361940452689     1.007825032230
         H           -2.266810006084     0.000137382537     0.744767547311     1.007825032230

  Basis Set: AUG-CC-PVTZ
    Blend: AUG-CC-PVTZ
  Basis Set: (AUG-CC-PVTZ AUX)
    Blend: AUG-CC-PVTZ-JKFIT
	 Reference Energy          =    -380.7757635382574222 [Eh]
	 Singles Energy            =      -0.0000000000000000 [Eh]
	 Same-Spin Energy          =      -0.3701951005076594 [Eh]
	 Opposite-Spin Energy      =      -1.1768502504011376 [Eh]
	 Correlation Energy        =      -1.5470453509087969 [Eh]
	 Total Energy              =    -382.3228088891661969 [Eh]

	 ================> DF-SCS-MP2 Energies <==================
	-----------------------------------------------------------
	 SCS Same-Spin Scale       =       0.3333333333333333 [-]
	 SCS Opposite-Spin Scale   =       1.2000000000000000 [-]
	 SCS Same-Spin Energy      =      -0.1233983668358865 [Eh]
	 SCS Opposite-Spin Energy  =      -1.4122203004813649 [Eh]
	 SCS Correlation Energy    =      -1.5356186673172514 [Eh]
	 SCS Total Energy          =    -382.3113822055746596 [Eh]
	-----------------------------------------------------------

  Dipole Moment: [D]
     X:     2.6233      Y:    -0.0048      Z:    -0.4350     Total:     2.6592

*** Psi4 exiting successfully. Buy a developer a beer!
