                               Psi4 1.4a3.dev225

  ==> Input File <==

--------------------------------------------------------------------------
#psi4
#
memory 32 gb

molecule  {
0 1
  O       -1.2892700     0.0000060    -0.8145290
  O       -0.5960130    -0.0000230     1.3422680
  O       -2.6196050     0.0000040    -0.2122050
  C        1.0437460     0.0000040    -0.4660030
  C        1.7813420     1.2673450    -0.0261740
  C        1.7813650    -1.2673310    -0.0262020
  C       -0.3290300    -0.0000080     0.1485520
  H        0.9245400     0.0000150    -1.5545560
  H        1.8622080     1.2945800     1.0634230
  H        1.2577770     2.1678420    -0.3590640
  H        2.7877650     1.2776000    -0.4534740
  H        1.8622170    -1.2945980     1.0633950
  H        2.7948080    -1.2443262    -0.4360564
  H        1.2578290    -2.1678320    -0.3591270
  H       -2.3655580    -0.0000240     0.7475810
units angstrom
no_reorient  #important for SAPT in psi4, default
symmetry c1  #important for SAPT in psi4, default
}

set PROPERTIES_ORIGIN ["COM"]
properties('MP2/aug-cc-pvtz', properties = ['dipole'])
--------------------------------------------------------------------------

    Molecular point group: c1
  Charge       = 0
  Multiplicity = 1
  Basis Set: AUG-CC-PVTZ
    Blend: AUG-CC-PVTZ
  Basis Set: (AUG-CC-PVTZ AUX)
    Blend: AUG-CC-PVTZ-JKFIT

    Orbital Energies [Eh]
    ---------------------

    Doubly Occupied:

       1A    -20.673143     2A    -20.646699     3A    -20.573628
       4A    -11.404994     5A    -11.267536     6A    -11.239083
       7A    -11.239058     8A     -1.526927     9A     -1.401059
      10A     -1.263285    11A     -1.105122    12A     -0.955584
      13A     -0.892837    14A     -0.807411    15A     -0.737890
      16A     -0.687275    17A     -0.686146    18A     -0.641666
      19A     -0.611013    20A     -0.596382    21A     -0.591291
      22A     -0.563051    23A     -0.541922    24A     -0.538618
      25A     -0.504206    26A     -0.501458    27A     -0.474216
      28A     -0.472060

  @DF-RHF Final Energy:  -380.77562498458559

   => Energetics <=

    Nuclear Repulsion Energy =            321.2147801699675824
    One-Electron Energy =               -1157.6936875393869286
    Two-Electron Energy =                 455.7032823848338126
    Total Energy =                       -380.7756249845855905
  Basis Set: (AUG-CC-PVTZ AUX)
    Blend: AUG-CC-PVTZ-RI
    Molecular point group: c1

    Geometry (in Angstrom), charge = 0, multiplicity = 1:

       Center              X                  Y                   Z               Mass
    ------------   -----------------  -----------------  -----------------  -----------------
         O           -1.190628359766    -0.000315287409    -0.817593800303    15.994914619570
         O           -0.497371359766    -0.000344287409     1.339203199697    15.994914619570
         O           -2.520963359766    -0.000317287409    -0.215269800303    15.994914619570
         C            1.142387640234    -0.000317287409    -0.469067800303    12.000000000000
         C            1.879983640234     1.267023712591    -0.029238800303    12.000000000000
         C            1.880006640234    -1.267652287409    -0.029266800303    12.000000000000
         C           -0.230388359766    -0.000329287409     0.145487199697    12.000000000000
         H            1.023181640234    -0.000306287409    -1.557620800303     1.007825032230
         H            1.960849640234     1.294258712591     1.060358199697     1.007825032230
         H            1.356418640234     2.167520712591    -0.362128800303     1.007825032230
         H            2.886406640234     1.277278712591    -0.456538800303     1.007825032230
         H            1.960858640234    -1.294919287409     1.060330199697     1.007825032230
         H            2.893449640234    -1.244647487409    -0.439121200303     1.007825032230
         H            1.356470640234    -2.168153287409    -0.362191800303     1.007825032230
         H           -2.266916359766    -0.000345287409     0.744516199697     1.007825032230

  Basis Set: AUG-CC-PVTZ
    Blend: AUG-CC-PVTZ
  Basis Set: (AUG-CC-PVTZ AUX)
    Blend: AUG-CC-PVTZ-JKFIT
	 Reference Energy          =    -380.7756249845855905 [Eh]
	 Singles Energy            =      -0.0000000000000000 [Eh]
	 Same-Spin Energy          =      -0.3702379191070477 [Eh]
	 Opposite-Spin Energy      =      -1.1769136386282364 [Eh]
	 Correlation Energy        =      -1.5471515577352841 [Eh]
	 Total Energy              =    -382.3227765423208666 [Eh]

	 ================> DF-SCS-MP2 Energies <==================
	-----------------------------------------------------------
	 SCS Same-Spin Scale       =       0.3333333333333333 [-]
	 SCS Opposite-Spin Scale   =       1.2000000000000000 [-]
	 SCS Same-Spin Energy      =      -0.1234126397023492 [Eh]
	 SCS Opposite-Spin Energy  =      -1.4122963663538837 [Eh]
	 SCS Correlation Energy    =      -1.5357090060562328 [Eh]
	 SCS Total Energy          =    -382.3113339906417991 [Eh]
	-----------------------------------------------------------

  Dipole Moment: [D]
     X:     2.6269      Y:     0.0093      Z:    -0.4225     Total:     2.6607

*** Psi4 exiting successfully. Buy a developer a beer!
