                               Psi4 1.4a3.dev225

  ==> Input File <==

--------------------------------------------------------------------------
#psi4
#
memory 32 gb

molecule  {
0 1
  O       -1.2892700     0.0000060    -0.8145290
  O       -0.5960130    -0.0000230     1.3422680
  O       -2.6196050     0.0000040    -0.2122050
  C        1.0437460     0.0000040    -0.4660030
  C        1.7813420     1.2673450    -0.0261740
  C        1.8026297    -1.2596053    -0.0404155
  C       -0.3290300    -0.0000080     0.1485520
  H        0.9245400     0.0000150    -1.5545560
  H        1.8622080     1.2945800     1.0634230
  H        1.2577770     2.1678420    -0.3590640
  H        2.7877650     1.2776000    -0.4534740
  H        1.8622170    -1.2945980     1.0633950
  H        2.7877950    -1.2775480    -0.4534850
  H        1.2578290    -2.1678320    -0.3591270
  H       -2.3655580    -0.0000240     0.7475810
units angstrom
no_reorient  #important for SAPT in psi4, default
symmetry c1  #important for SAPT in psi4, default
}

set PROPERTIES_ORIGIN ["COM"]
properties('MP2/aug-cc-pvtz', properties = ['dipole'])
--------------------------------------------------------------------------

    Molecular point group: c1
  Charge       = 0
  Multiplicity = 1
  Basis Set: AUG-CC-PVTZ
    Blend: AUG-CC-PVTZ
  Basis Set: (AUG-CC-PVTZ AUX)
    Blend: AUG-CC-PVTZ-JKFIT

    Orbital Energies [Eh]
    ---------------------

    Doubly Occupied:

       1A    -20.673481     2A    -20.647070     3A    -20.574128
       4A    -11.405704     5A    -11.267631     6A    -11.238967
       7A    -11.238736     8A     -1.527252     9A     -1.401415
      10A     -1.263597    11A     -1.104875    12A     -0.955197
      13A     -0.893489    14A     -0.807826    15A     -0.737889
      16A     -0.687667    17A     -0.686153    18A     -0.641720
      19A     -0.609779    20A     -0.596950    21A     -0.592788
      22A     -0.561508    23A     -0.545671    24A     -0.538715
      25A     -0.502014    26A     -0.499088    27A     -0.474504
      28A     -0.473429

  @DF-RHF Final Energy:  -380.77499159070965

   => Energetics <=

    Nuclear Repulsion Energy =            321.0636015554359801
    One-Electron Energy =               -1157.3827018838469485
    Two-Electron Energy =                 455.5441087377013218
    Total Energy =                       -380.7749915907096465
  Basis Set: (AUG-CC-PVTZ AUX)
    Blend: AUG-CC-PVTZ-RI
    Molecular point group: c1

    Geometry (in Angstrom), charge = 0, multiplicity = 1:

       Center              X                  Y                   Z               Mass
    ------------   -----------------  -----------------  -----------------  -----------------
         O           -1.193012933107    -0.000884515186    -0.815785710141    15.994914619570
         O           -0.499755933107    -0.000913515186     1.341011289859    15.994914619570
         O           -2.523347933107    -0.000886515186    -0.213461710141    15.994914619570
         C            1.140003066893    -0.000886515186    -0.467259710141    12.000000000000
         C            1.877599066893     1.266454484814    -0.027430710141    12.000000000000
         C            1.898886766893    -1.260495815186    -0.041672210141    12.000000000000
         C           -0.232772933107    -0.000898515186     0.147295289859    12.000000000000
         H            1.020797066893    -0.000875515186    -1.555812710141     1.007825032230
         H            1.958465066893     1.293689484814     1.062166289859     1.007825032230
         H            1.354034066893     2.166951484814    -0.360320710141     1.007825032230
         H            2.884022066893     1.276709484814    -0.454730710141     1.007825032230
         H            1.958474066893    -1.295488515186     1.062138289859     1.007825032230
         H            2.884052066893    -1.278438515186    -0.454741710141     1.007825032230
         H            1.354086066893    -2.168722515186    -0.360383710141     1.007825032230
         H           -2.269300933107    -0.000914515186     0.746324289859     1.007825032230

  Basis Set: AUG-CC-PVTZ
    Blend: AUG-CC-PVTZ
  Basis Set: (AUG-CC-PVTZ AUX)
    Blend: AUG-CC-PVTZ-JKFIT
	 Reference Energy          =    -380.7749915907096465 [Eh]
	 Singles Energy            =      -0.0000000000000000 [Eh]
	 Same-Spin Energy          =      -0.3701940281398496 [Eh]
	 Opposite-Spin Energy      =      -1.1769068759369361 [Eh]
	 Correlation Energy        =      -1.5471009040767858 [Eh]
	 Total Energy              =    -382.3220924947864319 [Eh]

	 ================> DF-SCS-MP2 Energies <==================
	-----------------------------------------------------------
	 SCS Same-Spin Scale       =       0.3333333333333333 [-]
	 SCS Opposite-Spin Scale   =       1.2000000000000000 [-]
	 SCS Same-Spin Energy      =      -0.1233980093799499 [Eh]
	 SCS Opposite-Spin Energy  =      -1.4122882511243233 [Eh]
	 SCS Correlation Energy    =      -1.5356862605042731 [Eh]
	 SCS Total Energy          =    -382.3106778512139385 [Eh]
	-----------------------------------------------------------

  Dipole Moment: [D]
     X:     2.6201      Y:     0.0019      Z:    -0.4326     Total:     2.6555

*** Psi4 exiting successfully. Buy a developer a beer!
