                               Psi4 1.4a3.dev225

  ==> Input File <==

--------------------------------------------------------------------------
#psi4
#
memory 32 gb

molecule  {
0 1
  O       -1.2892700     0.0000060    -0.8145290
  O       -0.5960130    -0.0000230     1.3422680
  O       -2.6196050     0.0000040    -0.2122050
  C        1.0437460     0.0000040    -0.4660030
  C        1.7813420     1.2673450    -0.0261740
  C        1.7813650    -1.2673310    -0.0262020
  C       -0.3290300    -0.0000080     0.1485520
  H        0.9245400     0.0000150    -1.5545560
  H        1.8622080     1.2945800     1.0634230
  H        1.2577770     2.1678420    -0.3590640
  H        2.8061736     1.2777876    -0.4612898
  H        1.8622170    -1.2945980     1.0633950
  H        2.7877950    -1.2775480    -0.4534850
  H        1.2578290    -2.1678320    -0.3591270
  H       -2.3655580    -0.0000240     0.7475810
units angstrom
no_reorient  #important for SAPT in psi4, default
symmetry c1  #important for SAPT in psi4, default
}

set PROPERTIES_ORIGIN ["COM"]
properties('MP2/aug-cc-pvtz', properties = ['dipole'])
--------------------------------------------------------------------------

    Molecular point group: c1
  Charge       = 0
  Multiplicity = 1
  Basis Set: AUG-CC-PVTZ
    Blend: AUG-CC-PVTZ
  Basis Set: (AUG-CC-PVTZ AUX)
    Blend: AUG-CC-PVTZ-JKFIT

    Orbital Energies [Eh]
    ---------------------

    Doubly Occupied:

       1A    -20.673338     2A    -20.646895     3A    -20.573908
       4A    -11.405347     5A    -11.267927     6A    -11.241385
       7A    -11.238979     8A     -1.527126     9A     -1.401316
      10A     -1.263477    11A     -1.104723    12A     -0.954701
      13A     -0.892149    14A     -0.807401    15A     -0.738055
      16A     -0.687365    17A     -0.686213    18A     -0.642282
      19A     -0.609426    20A     -0.596532    21A     -0.590009
      22A     -0.563561    23A     -0.541571    24A     -0.536827
      25A     -0.504268    26A     -0.501756    27A     -0.474404
      28A     -0.472064

  @DF-RHF Final Energy:  -380.77526397868110

   => Energetics <=

    Nuclear Repulsion Energy =            321.0931892937728094
    One-Electron Energy =               -1157.4508950609740623
    Two-Electron Energy =                 455.5824417885201001
    Total Energy =                       -380.7752639786810960
  Basis Set: (AUG-CC-PVTZ AUX)
    Blend: AUG-CC-PVTZ-RI
    Molecular point group: c1

    Geometry (in Angstrom), charge = 0, multiplicity = 1:

       Center              X                  Y                   Z               Mass
    ------------   -----------------  -----------------  -----------------  -----------------
         O           -1.190738740007     0.000004688982    -0.817349277596    15.994914619570
         O           -0.497481740007    -0.000024311018     1.339447722404    15.994914619570
         O           -2.521073740007     0.000002688982    -0.215025277596    15.994914619570
         C            1.142277259993     0.000002688982    -0.468823277596    12.000000000000
         C            1.879873259993     1.267343688982    -0.028994277596    12.000000000000
         C            1.879896259993    -1.267332311018    -0.029022277596    12.000000000000
         C           -0.230498740007    -0.000009311018     0.145731722404    12.000000000000
         H            1.023071259993     0.000013688982    -1.557376277596     1.007825032230
         H            1.960739259993     1.294578688982     1.060602722404     1.007825032230
         H            1.356308259993     2.167840688982    -0.361884277596     1.007825032230
         H            2.904704859993     1.277786288982    -0.464110077596     1.007825032230
         H            1.960748259993    -1.294599311018     1.060574722404     1.007825032230
         H            2.886326259993    -1.277549311018    -0.456305277596     1.007825032230
         H            1.356360259993    -2.167833311018    -0.361947277596     1.007825032230
         H           -2.267026740007    -0.000025311018     0.744760722404     1.007825032230

  Basis Set: AUG-CC-PVTZ
    Blend: AUG-CC-PVTZ
  Basis Set: (AUG-CC-PVTZ AUX)
    Blend: AUG-CC-PVTZ-JKFIT
	 Reference Energy          =    -380.7752639786810960 [Eh]
	 Singles Energy            =      -0.0000000000000000 [Eh]
	 Same-Spin Energy          =      -0.3702059373626057 [Eh]
	 Opposite-Spin Energy      =      -1.1769982760227633 [Eh]
	 Correlation Energy        =      -1.5472042133853690 [Eh]
	 Total Energy              =    -382.3224681920664807 [Eh]

	 ================> DF-SCS-MP2 Energies <==================
	-----------------------------------------------------------
	 SCS Same-Spin Scale       =       0.3333333333333333 [-]
	 SCS Opposite-Spin Scale   =       1.2000000000000000 [-]
	 SCS Same-Spin Energy      =      -0.1234019791208685 [Eh]
	 SCS Opposite-Spin Energy  =      -1.4123979312273158 [Eh]
	 SCS Correlation Energy    =      -1.5357999103481843 [Eh]
	 SCS Total Energy          =    -382.3110638890292989 [Eh]
	-----------------------------------------------------------

  Dipole Moment: [D]
     X:     2.6130      Y:    -0.0024      Z:    -0.4274     Total:     2.6477

*** Psi4 exiting successfully. Buy a developer a beer!
