                               Psi4 1.4a3.dev225

  ==> Input File <==

--------------------------------------------------------------------------
#psi4
#
memory 32 gb

molecule  {
0 1
  O       -1.2892700     0.0000060    -0.8145290
  O       -0.5960130    -0.0000230     1.3422680
  O       -2.6196050     0.0000040    -0.2122050
  C        1.0437460     0.0000040    -0.4660030
  C        1.7813420     1.2673450    -0.0261740
  C        1.7813650    -1.2673310    -0.0262020
  C       -0.3290300    -0.0000080     0.1485520
  H        0.9245400     0.0000150    -1.5545560
  H        1.8622080     1.2945800     1.0634230
  H        1.2577770     2.1678420    -0.3590640
  H        2.7877650     1.2776000    -0.4534740
  H        1.8622170    -1.2945980     1.0633950
  H        2.7877950    -1.2775480    -0.4534850
  H        1.3535796    -2.0031374    -0.2982376
  H       -2.3655580    -0.0000240     0.7475810
units angstrom
no_reorient  #important for SAPT in psi4, default
symmetry c1  #important for SAPT in psi4, default
}

set PROPERTIES_ORIGIN ["COM"]
properties('MP2/aug-cc-pvtz', properties = ['dipole'])
--------------------------------------------------------------------------

    Molecular point group: c1
  Charge       = 0
  Multiplicity = 1
  Basis Set: AUG-CC-PVTZ
    Blend: AUG-CC-PVTZ
  Basis Set: (AUG-CC-PVTZ AUX)
    Blend: AUG-CC-PVTZ-JKFIT

    Orbital Energies [Eh]
    ---------------------

    Doubly Occupied:

       1A    -20.673221     2A    -20.646761     3A    -20.573672
       4A    -11.404928     5A    -11.266345     6A    -11.237776
       7A    -11.214365     8A     -1.527014     9A     -1.401107
      10A     -1.263375    11A     -1.109063    12A     -0.974400
      13A     -0.896663    14A     -0.809550    15A     -0.738045
      16A     -0.688932    17A     -0.687256    18A     -0.656263
      19A     -0.619922    20A     -0.596417    21A     -0.591470
      22A     -0.565199    23A     -0.543261    24A     -0.540998
      25A     -0.509856    26A     -0.501975    27A     -0.474306
      28A     -0.471999

  @DF-RHF Final Energy:  -380.74161056052191

   => Energetics <=

    Nuclear Repulsion Energy =            322.1465197094022415
    One-Electron Energy =               -1159.4079769652837513
    Two-Electron Energy =                 456.5198466953596039
    Total Energy =                       -380.7416105605219059
  Basis Set: (AUG-CC-PVTZ AUX)
    Blend: AUG-CC-PVTZ-RI
    Molecular point group: c1

    Geometry (in Angstrom), charge = 0, multiplicity = 1:

       Center              X                  Y                   Z               Mass
    ------------   -----------------  -----------------  -----------------  -----------------
         O           -1.191487891312    -0.001588761327    -0.818014770993    15.994914619570
         O           -0.498230891312    -0.001617761327     1.338782229007    15.994914619570
         O           -2.521822891312    -0.001590761327    -0.215690770993    15.994914619570
         C            1.141528108688    -0.001590761327    -0.469488770993    12.000000000000
         C            1.879124108688     1.265750238673    -0.029659770993    12.000000000000
         C            1.879147108688    -1.268925761327    -0.029687770993    12.000000000000
         C           -0.231247891312    -0.001602761327     0.145066229007    12.000000000000
         H            1.022322108688    -0.001579761327    -1.558041770993     1.007825032230
         H            1.959990108688     1.292985238673     1.059937229007     1.007825032230
         H            1.355559108688     2.166247238673    -0.362549770993     1.007825032230
         H            2.885547108688     1.276005238673    -0.456959770993     1.007825032230
         H            1.959999108688    -1.296192761327     1.059909229007     1.007825032230
         H            2.885577108688    -1.279142761327    -0.456970770993     1.007825032230
         H            1.451361708688    -2.004732161327    -0.301723370993     1.007825032230
         H           -2.267775891312    -0.001618761327     0.744095229007     1.007825032230

  Basis Set: AUG-CC-PVTZ
    Blend: AUG-CC-PVTZ
  Basis Set: (AUG-CC-PVTZ AUX)
    Blend: AUG-CC-PVTZ-JKFIT
	 Reference Energy          =    -380.7416105605219059 [Eh]
	 Singles Energy            =      -0.0000000000000000 [Eh]
	 Same-Spin Energy          =      -0.3703656281915516 [Eh]
	 Opposite-Spin Energy      =      -1.1763091350053525 [Eh]
	 Correlation Energy        =      -1.5466747631969040 [Eh]
	 Total Energy              =    -382.2882853237188101 [Eh]

	 ================> DF-SCS-MP2 Energies <==================
	-----------------------------------------------------------
	 SCS Same-Spin Scale       =       0.3333333333333333 [-]
	 SCS Opposite-Spin Scale   =       1.2000000000000000 [-]
	 SCS Same-Spin Energy      =      -0.1234552093971839 [Eh]
	 SCS Opposite-Spin Energy  =      -1.4115709620064230 [Eh]
	 SCS Correlation Energy    =      -1.5350261714036069 [Eh]
	 SCS Total Energy          =    -382.2766367319255210 [Eh]
	-----------------------------------------------------------

  Dipole Moment: [D]
     X:     2.6088      Y:    -0.0770      Z:    -0.4437     Total:     2.6474

*** Psi4 exiting successfully. Buy a developer a beer!
