                               Psi4 1.4a3.dev225

  ==> Input File <==

--------------------------------------------------------------------------
#psi4
#
memory 32 gb

molecule  {
0 1
  O       -1.2892700     0.0000060    -0.8145290
  O       -0.5960130    -0.0000230     1.3422680
  O       -2.6196050     0.0000040    -0.2122050
  C        1.0437460     0.0000040    -0.4660030
  C        1.7813420     1.2673450    -0.0261740
  C        1.7813650    -1.2673310    -0.0262020
  C       -0.3290300    -0.0000080     0.1485520
  H        0.9245400     0.0000150    -1.5545560
  H        1.8622080     1.2945800     1.0634230
  H        1.2577770     2.1678420    -0.3590640
  H        2.7417434     1.2771311    -0.4339345
  H        1.8622170    -1.2945980     1.0633950
  H        2.7877950    -1.2775480    -0.4534850
  H        1.2578290    -2.1678320    -0.3591270
  H       -2.3655580    -0.0000240     0.7475810
units angstrom
no_reorient  #important for SAPT in psi4, default
symmetry c1  #important for SAPT in psi4, default
}

set PROPERTIES_ORIGIN ["COM"]
properties('MP2/aug-cc-pvtz', properties = ['dipole'])
--------------------------------------------------------------------------

    Molecular point group: c1
  Charge       = 0
  Multiplicity = 1
  Basis Set: AUG-CC-PVTZ
    Blend: AUG-CC-PVTZ
  Basis Set: (AUG-CC-PVTZ AUX)
    Blend: AUG-CC-PVTZ-JKFIT

    Orbital Energies [Eh]
    ---------------------

    Doubly Occupied:

       1A    -20.672941     2A    -20.646515     3A    -20.573380
       4A    -11.404778     5A    -11.267318     6A    -11.238975
       7A    -11.232850     8A     -1.526721     9A     -1.400820
      10A     -1.263088    11A     -1.105655    12A     -0.958623
      13A     -0.894559    14A     -0.807937    15A     -0.737667
      16A     -0.687376    17A     -0.685868    18A     -0.642688
      19A     -0.610859    20A     -0.596549    21A     -0.593588
      22A     -0.564625    23A     -0.545108    24A     -0.539105
      25A     -0.503817    26A     -0.501151    27A     -0.474049
      28A     -0.472434

  @DF-RHF Final Energy:  -380.77481364378121

   => Energetics <=

    Nuclear Repulsion Energy =            321.4153329013081475
    One-Electron Energy =               -1158.0822053139127092
    Two-Electron Energy =                 455.8920587688233468
    Total Energy =                       -380.7748136437812150
  Basis Set: (AUG-CC-PVTZ AUX)
    Blend: AUG-CC-PVTZ-RI
    Molecular point group: c1

    Geometry (in Angstrom), charge = 0, multiplicity = 1:

       Center              X                  Y                   Z               Mass
    ------------   -----------------  -----------------  -----------------  -----------------
         O           -1.190114655183     0.000011047982    -0.817614246936    15.994914619570
         O           -0.496857655183    -0.000017952018     1.339182753064    15.994914619570
         O           -2.520449655183     0.000009047982    -0.215290246936    15.994914619570
         C            1.142901344817     0.000009047982    -0.469088246936    12.000000000000
         C            1.880497344817     1.267350047982    -0.029259246936    12.000000000000
         C            1.880520344817    -1.267325952018    -0.029287246936    12.000000000000
         C           -0.229874655183    -0.000002952018     0.145466753064    12.000000000000
         H            1.023695344817     0.000020047982    -1.557641246936     1.007825032230
         H            1.961363344817     1.294585047982     1.060337753064     1.007825032230
         H            1.356932344817     2.167847047982    -0.362149246936     1.007825032230
         H            2.840898744817     1.277136147982    -0.437019746936     1.007825032230
         H            1.961372344817    -1.294592952018     1.060309753064     1.007825032230
         H            2.886950344817    -1.277542952018    -0.456570246936     1.007825032230
         H            1.356984344817    -2.167826952018    -0.362212246936     1.007825032230
         H           -2.266402655183    -0.000018952018     0.744495753064     1.007825032230

  Basis Set: AUG-CC-PVTZ
    Blend: AUG-CC-PVTZ
  Basis Set: (AUG-CC-PVTZ AUX)
    Blend: AUG-CC-PVTZ-JKFIT
	 Reference Energy          =    -380.7748136437812150 [Eh]
	 Singles Energy            =      -0.0000000000000000 [Eh]
	 Same-Spin Energy          =      -0.3702106961874034 [Eh]
	 Opposite-Spin Energy      =      -1.1765809285493130 [Eh]
	 Correlation Energy        =      -1.5467916247367164 [Eh]
	 Total Energy              =    -382.3216052685179420 [Eh]

	 ================> DF-SCS-MP2 Energies <==================
	-----------------------------------------------------------
	 SCS Same-Spin Scale       =       0.3333333333333333 [-]
	 SCS Opposite-Spin Scale   =       1.2000000000000000 [-]
	 SCS Same-Spin Energy      =      -0.1234035653958011 [Eh]
	 SCS Opposite-Spin Energy  =      -1.4118971142591754 [Eh]
	 SCS Correlation Energy    =      -1.5353006796549766 [Eh]
	 SCS Total Energy          =    -382.3101143234362098 [Eh]
	-----------------------------------------------------------

  Dipole Moment: [D]
     X:     2.6513      Y:     0.0054      Z:    -0.4385     Total:     2.6873

*** Psi4 exiting successfully. Buy a developer a beer!
