                               Psi4 1.4a3.dev225

  ==> Input File <==

--------------------------------------------------------------------------
#psi4
#
memory 32 gb

molecule  {
0 1
  O       -1.2892700     0.0000060    -0.8145290
  O       -0.5960130    -0.0000230     1.3422680
  O       -2.6196050     0.0000040    -0.2122050
  C        1.0437460     0.0000040    -0.4660030
  C        1.7813420     1.2673450    -0.0261740
  C        1.7813650    -1.2673310    -0.0262020
  C       -0.3290300    -0.0000080     0.1485520
  H        0.9245400     0.0000150    -1.5545560
  H        1.8622080     1.2945800     1.0634230
  H        1.2577770     2.1678420    -0.3590640
  H        2.7877650     1.2776000    -0.4534740
  H        1.8622170    -1.2945980     1.0633950
  H        2.7877950    -1.2775480    -0.4534850
  H        1.3057043    -2.0854847    -0.3286823
  H       -2.3655580    -0.0000240     0.7475810
units angstrom
no_reorient  #important for SAPT in psi4, default
symmetry c1  #important for SAPT in psi4, default
}

set PROPERTIES_ORIGIN ["COM"]
properties('MP2/aug-cc-pvtz', properties = ['dipole'])
--------------------------------------------------------------------------

    Molecular point group: c1
  Charge       = 0
  Multiplicity = 1
  Basis Set: AUG-CC-PVTZ
    Blend: AUG-CC-PVTZ
  Basis Set: (AUG-CC-PVTZ AUX)
    Blend: AUG-CC-PVTZ-JKFIT

    Orbital Energies [Eh]
    ---------------------

    Doubly Occupied:

       1A    -20.673211     2A    -20.646760     3A    -20.573688
       4A    -11.405010     5A    -11.266914     6A    -11.238259
       7A    -11.226636     8A     -1.526999     9A     -1.401115
      10A     -1.263355    11A     -1.106344    12A     -0.963383
      13A     -0.894619    14A     -0.808405    15A     -0.737885
      16A     -0.687382    17A     -0.686906    18A     -0.647930
      19A     -0.615482    20A     -0.596428    21A     -0.591333
      22A     -0.564413    23A     -0.542083    24A     -0.540336
      25A     -0.507028    26A     -0.502430    27A     -0.474292
      28A     -0.472073

  @DF-RHF Final Energy:  -380.76967687510478

   => Energetics <=

    Nuclear Repulsion Energy =            321.6305636323635895
    One-Electron Energy =               -1158.4790854238483462
    Two-Electron Energy =                 456.0788449163799214
    Total Energy =                       -380.7696768751047784
  Basis Set: (AUG-CC-PVTZ AUX)
    Blend: AUG-CC-PVTZ-RI
    Molecular point group: c1

    Geometry (in Angstrom), charge = 0, multiplicity = 1:

       Center              X                  Y                   Z               Mass
    ------------   -----------------  -----------------  -----------------  -----------------
         O           -1.191024160823    -0.000791127605    -0.817719877057    15.994914619570
         O           -0.497767160823    -0.000820127605     1.339077122943    15.994914619570
         O           -2.521359160823    -0.000793127605    -0.215395877057    15.994914619570
         C            1.141991839177    -0.000793127605    -0.469193877057    12.000000000000
         C            1.879587839177     1.266547872395    -0.029364877057    12.000000000000
         C            1.879610839177    -1.268128127605    -0.029392877057    12.000000000000
         C           -0.230784160823    -0.000805127605     0.145361122943    12.000000000000
         H            1.022785839177    -0.000782127605    -1.557746877057     1.007825032230
         H            1.960453839177     1.293782872395     1.060232122943     1.007825032230
         H            1.356022839177     2.167044872395    -0.362254877057     1.007825032230
         H            2.886010839177     1.276802872395    -0.456664877057     1.007825032230
         H            1.960462839177    -1.295395127605     1.060204122943     1.007825032230
         H            2.886040839177    -1.278345127605    -0.456675877057     1.007825032230
         H            1.403950139177    -2.086281827605    -0.331873177057     1.007825032230
         H           -2.267312160823    -0.000821127605     0.744390122943     1.007825032230

  Basis Set: AUG-CC-PVTZ
    Blend: AUG-CC-PVTZ
  Basis Set: (AUG-CC-PVTZ AUX)
    Blend: AUG-CC-PVTZ-JKFIT
	 Reference Energy          =    -380.7696768751047784 [Eh]
	 Singles Energy            =      -0.0000000000000000 [Eh]
	 Same-Spin Energy          =      -0.3702563984285301 [Eh]
	 Opposite-Spin Energy      =      -1.1764080284639817 [Eh]
	 Correlation Energy        =      -1.5466644268925118 [Eh]
	 Total Energy              =    -382.3163413019972836 [Eh]

	 ================> DF-SCS-MP2 Energies <==================
	-----------------------------------------------------------
	 SCS Same-Spin Scale       =       0.3333333333333333 [-]
	 SCS Opposite-Spin Scale   =       1.2000000000000000 [-]
	 SCS Same-Spin Energy      =      -0.1234187994761767 [Eh]
	 SCS Opposite-Spin Energy  =      -1.4116896341567780 [Eh]
	 SCS Correlation Energy    =      -1.5351084336329546 [Eh]
	 SCS Total Energy          =    -382.3047853087377348 [Eh]
	-----------------------------------------------------------

  Dipole Moment: [D]
     X:     2.6145      Y:    -0.0460      Z:    -0.4391     Total:     2.6515

*** Psi4 exiting successfully. Buy a developer a beer!
