                               Psi4 1.4a3.dev225

  ==> Input File <==

--------------------------------------------------------------------------
#psi4
#
memory 32 gb

molecule  {
0 1
  O       -1.2892700     0.0000060    -0.8145290
  O       -0.5960130    -0.0000230     1.3422680
  O       -2.6196050     0.0000040    -0.2122050
  C        1.0437460     0.0000040    -0.4660030
  C        1.7813420     1.2673450    -0.0261740
  C        1.7813650    -1.2673310    -0.0262020
  C       -0.3290300    -0.0000080     0.1485520
  H        0.9245400     0.0000150    -1.5545560
  H        1.8622080     1.2945800     1.0634230
  H        1.2577770     2.1678420    -0.3590640
  H        2.7877650     1.2776000    -0.4534740
  H        1.8622170    -1.2945980     1.0633950
  H        2.7701006    -1.3439138    -0.4867599
  H        1.2578290    -2.1678320    -0.3591270
  H       -2.3655580    -0.0000240     0.7475810
units angstrom
no_reorient  #important for SAPT in psi4, default
symmetry c1  #important for SAPT in psi4, default
}

set PROPERTIES_ORIGIN ["COM"]
properties('MP2/aug-cc-pvtz', properties = ['dipole'])
--------------------------------------------------------------------------

    Molecular point group: c1
  Charge       = 0
  Multiplicity = 1
  Basis Set: AUG-CC-PVTZ
    Blend: AUG-CC-PVTZ
  Basis Set: (AUG-CC-PVTZ AUX)
    Blend: AUG-CC-PVTZ-JKFIT

    Orbital Energies [Eh]
    ---------------------

    Doubly Occupied:

       1A    -20.673352     2A    -20.646928     3A    -20.573963
       4A    -11.405503     5A    -11.268180     6A    -11.238818
       7A    -11.238777     8A     -1.527140     9A     -1.401357
      10A     -1.263493    11A     -1.104647    12A     -0.955984
      13A     -0.892791    14A     -0.807795    15A     -0.738025
      16A     -0.687497    17A     -0.686040    18A     -0.644018
      19A     -0.607685    20A     -0.596607    21A     -0.590065
      22A     -0.565543    23A     -0.542738    24A     -0.536513
      25A     -0.503991    26A     -0.501489    27A     -0.474443
      28A     -0.472252

  @DF-RHF Final Energy:  -380.77526890897798

   => Energetics <=

    Nuclear Repulsion Energy =            321.1238777949891983
    One-Electron Energy =               -1157.5070209437626545
    Two-Electron Energy =                 455.6078742397954784
    Total Energy =                       -380.7752689089779778
  Basis Set: (AUG-CC-PVTZ AUX)
    Blend: AUG-CC-PVTZ-RI
    Molecular point group: c1

    Geometry (in Angstrom), charge = 0, multiplicity = 1:

       Center              X                  Y                   Z               Mass
    ------------   -----------------  -----------------  -----------------  -----------------
         O           -1.190389038557     0.000649339579    -0.817102675259    15.994914619570
         O           -0.497132038557     0.000620339579     1.339694324741    15.994914619570
         O           -2.520724038557     0.000647339579    -0.214778675259    15.994914619570
         C            1.142626961443     0.000647339579    -0.468576675259    12.000000000000
         C            1.880222961443     1.267988339579    -0.028747675259    12.000000000000
         C            1.880245961443    -1.266687660421    -0.028775675259    12.000000000000
         C           -0.230149038557     0.000635339579     0.145978324741    12.000000000000
         H            1.023420961443     0.000658339579    -1.557129675259     1.007825032230
         H            1.961088961443     1.295223339579     1.060849324741     1.007825032230
         H            1.356657961443     2.168485339579    -0.361637675259     1.007825032230
         H            2.886645961443     1.278243339579    -0.456047675259     1.007825032230
         H            1.961097961443    -1.293954660421     1.060821324741     1.007825032230
         H            2.868981561443    -1.343270460421    -0.489333575259     1.007825032230
         H            1.356709961443    -2.167188660421    -0.361700675259     1.007825032230
         H           -2.266677038557     0.000619339579     0.745007324741     1.007825032230

  Basis Set: AUG-CC-PVTZ
    Blend: AUG-CC-PVTZ
  Basis Set: (AUG-CC-PVTZ AUX)
    Blend: AUG-CC-PVTZ-JKFIT
	 Reference Energy          =    -380.7752689089779778 [Eh]
	 Singles Energy            =      -0.0000000000000000 [Eh]
	 Same-Spin Energy          =      -0.3701843339701474 [Eh]
	 Opposite-Spin Energy      =      -1.1768296265763143 [Eh]
	 Correlation Energy        =      -1.5470139605464617 [Eh]
	 Total Energy              =    -382.3222828695244289 [Eh]

	 ================> DF-SCS-MP2 Energies <==================
	-----------------------------------------------------------
	 SCS Same-Spin Scale       =       0.3333333333333333 [-]
	 SCS Opposite-Spin Scale   =       1.2000000000000000 [-]
	 SCS Same-Spin Energy      =      -0.1233947779900491 [Eh]
	 SCS Opposite-Spin Energy  =      -1.4121955518915772 [Eh]
	 SCS Correlation Energy    =      -1.5355903298816262 [Eh]
	 SCS Total Energy          =    -382.3108592388596207 [Eh]
	-----------------------------------------------------------

  Dipole Moment: [D]
     X:     2.6184      Y:    -0.0200      Z:    -0.4475     Total:     2.6564

*** Psi4 exiting successfully. Buy a developer a beer!
