                               Psi4 1.4a3.dev225

  ==> Input File <==

--------------------------------------------------------------------------
#psi4
#
memory 32 gb

molecule  {
0 1
  O       -1.2892700     0.0000060    -0.8145290
  O       -0.5960130    -0.0000230     1.3422680
  O       -2.6196050     0.0000040    -0.2122050
  C        1.0437460     0.0000040    -0.4660030
  C        1.7813420     1.2673450    -0.0261740
  C        1.7813650    -1.2673310    -0.0262020
  C       -0.3290300    -0.0000080     0.1485520
  H        0.9245400     0.0000150    -1.5545560
  H        1.8622080     1.2945800     1.0634230
  H        1.2577770     2.1678420    -0.3590640
  H        2.7877650     1.2776000    -0.4534740
  H        1.8622170    -1.2945980     1.0633950
  H        2.7877950    -1.2775480    -0.4534850
  H        1.2674041    -2.1513625    -0.3530381
  H       -2.3655580    -0.0000240     0.7475810
units angstrom
no_reorient  #important for SAPT in psi4, default
symmetry c1  #important for SAPT in psi4, default
}

set PROPERTIES_ORIGIN ["COM"]
properties('MP2/aug-cc-pvtz', properties = ['dipole'])
--------------------------------------------------------------------------

    Molecular point group: c1
  Charge       = 0
  Multiplicity = 1
  Basis Set: AUG-CC-PVTZ
    Blend: AUG-CC-PVTZ
  Basis Set: (AUG-CC-PVTZ AUX)
    Blend: AUG-CC-PVTZ-JKFIT

    Orbital Energies [Eh]
    ---------------------

    Doubly Occupied:

       1A    -20.673214     2A    -20.646774     3A    -20.573732
       4A    -11.405133     5A    -11.267555     6A    -11.238812
       7A    -11.236542     8A     -1.527000     9A     -1.401151
      10A     -1.263356    11A     -1.105137    12A     -0.956985
      13A     -0.893137    14A     -0.807686    15A     -0.737909
      16A     -0.687340    17A     -0.686221    18A     -0.643219
      19A     -0.610894    20A     -0.596459    21A     -0.591099
      22A     -0.563924    23A     -0.542191    24A     -0.538533
      25A     -0.504364    26A     -0.502240    27A     -0.474292
      28A     -0.472167

  @DF-RHF Final Energy:  -380.77580334462363

   => Energetics <=

    Nuclear Repulsion Energy =            321.2674960744853934
    One-Electron Energy =               -1157.7924700501407642
    Two-Electron Energy =                 455.7491706310317454
    Total Energy =                       -380.7758033446236254
  Basis Set: (AUG-CC-PVTZ AUX)
    Blend: AUG-CC-PVTZ-RI
    Molecular point group: c1

    Geometry (in Angstrom), charge = 0, multiplicity = 1:

       Center              X                  Y                   Z               Mass
    ------------   -----------------  -----------------  -----------------  -----------------
         O           -1.190653176819    -0.000153021016    -0.817483961522    15.994914619570
         O           -0.497396176819    -0.000182021016     1.339313038478    15.994914619570
         O           -2.520988176819    -0.000155021016    -0.215159961522    15.994914619570
         C            1.142362823181    -0.000155021016    -0.468957961522    12.000000000000
         C            1.879958823181     1.267185978984    -0.029128961522    12.000000000000
         C            1.879981823181    -1.267490021016    -0.029156961522    12.000000000000
         C           -0.230413176819    -0.000167021016     0.145597038478    12.000000000000
         H            1.023156823181    -0.000144021016    -1.557510961522     1.007825032230
         H            1.960824823181     1.294420978984     1.060468038478     1.007825032230
         H            1.356393823181     2.167682978984    -0.362018961522     1.007825032230
         H            2.886381823181     1.277440978984    -0.456428961522     1.007825032230
         H            1.960833823181    -1.294757021016     1.060440038478     1.007825032230
         H            2.886411823181    -1.277707021016    -0.456439961522     1.007825032230
         H            1.366020923181    -2.151521521016    -0.355993061522     1.007825032230
         H           -2.266941176819    -0.000183021016     0.744626038478     1.007825032230

  Basis Set: AUG-CC-PVTZ
    Blend: AUG-CC-PVTZ
  Basis Set: (AUG-CC-PVTZ AUX)
    Blend: AUG-CC-PVTZ-JKFIT
	 Reference Energy          =    -380.7758033446236254 [Eh]
	 Singles Energy            =      -0.0000000000000000 [Eh]
	 Same-Spin Energy          =      -0.3702128791279835 [Eh]
	 Opposite-Spin Energy      =      -1.1767519812363321 [Eh]
	 Correlation Energy        =      -1.5469648603643156 [Eh]
	 Total Energy              =    -382.3227682049879377 [Eh]

	 ================> DF-SCS-MP2 Energies <==================
	-----------------------------------------------------------
	 SCS Same-Spin Scale       =       0.3333333333333333 [-]
	 SCS Opposite-Spin Scale   =       1.2000000000000000 [-]
	 SCS Same-Spin Energy      =      -0.1234042930426612 [Eh]
	 SCS Opposite-Spin Energy  =      -1.4121023774835983 [Eh]
	 SCS Correlation Energy    =      -1.5355066705262594 [Eh]
	 SCS Total Energy          =    -382.3113100151498998 [Eh]
	-----------------------------------------------------------

  Dipole Moment: [D]
     X:     2.6223      Y:    -0.0104      Z:    -0.4327     Total:     2.6578

*** Psi4 exiting successfully. Buy a developer a beer!
