                               Psi4 1.4a3.dev225

  ==> Input File <==

--------------------------------------------------------------------------
#psi4
#
memory 32 gb

molecule  {
0 1
  O       -1.2892700     0.0000060    -0.8145290
  O       -0.5960130    -0.0000230     1.3422680
  O       -2.6196050     0.0000040    -0.2122050
  C        1.0437460     0.0000040    -0.4660030
  C        1.7813420     1.2673450    -0.0261740
  C        1.7813650    -1.2673310    -0.0262020
  C       -0.3290300    -0.0000080     0.1485520
  H        0.9245400     0.0000150    -1.5545560
  H        1.8622080     1.2945800     1.0634230
  H        1.2577770     2.1678420    -0.3590640
  H        2.8337866     1.2780689    -0.4730135
  H        1.8622170    -1.2945980     1.0633950
  H        2.7877950    -1.2775480    -0.4534850
  H        1.2578290    -2.1678320    -0.3591270
  H       -2.3655580    -0.0000240     0.7475810
units angstrom
no_reorient  #important for SAPT in psi4, default
symmetry c1  #important for SAPT in psi4, default
}

set PROPERTIES_ORIGIN ["COM"]
properties('MP2/aug-cc-pvtz', properties = ['dipole'])
--------------------------------------------------------------------------

    Molecular point group: c1
  Charge       = 0
  Multiplicity = 1
  Basis Set: AUG-CC-PVTZ
    Blend: AUG-CC-PVTZ
  Basis Set: (AUG-CC-PVTZ AUX)
    Blend: AUG-CC-PVTZ-JKFIT

    Orbital Energies [Eh]
    ---------------------

    Doubly Occupied:

       1A    -20.673530     2A    -20.647080     3A    -20.574161
       4A    -11.405624     5A    -11.268224     6A    -11.244950
       7A    -11.238990     8A     -1.527322     9A     -1.401554
      10A     -1.263667    11A     -1.104459    12A     -0.953400
      13A     -0.891227    14A     -0.807227    15A     -0.738248
      16A     -0.687429    17A     -0.686376    18A     -0.642242
      19A     -0.609107    20A     -0.596664    21A     -0.588675
      22A     -0.563218    23A     -0.541083    24A     -0.534171
      25A     -0.504495    26A     -0.502056    27A     -0.474581
      28A     -0.471829

  @DF-RHF Final Energy:  -380.77366914706670

   => Energetics <=

    Nuclear Repulsion Energy =            320.9631978744079674
    One-Electron Energy =               -1157.1905545571876246
    Two-Electron Energy =                 455.4536875357129020
    Total Energy =                       -380.7736691470666983
  Basis Set: (AUG-CC-PVTZ AUX)
    Blend: AUG-CC-PVTZ-RI
    Molecular point group: c1

    Geometry (in Angstrom), charge = 0, multiplicity = 1:

       Center              X                  Y                   Z               Mass
    ------------   -----------------  -----------------  -----------------  -----------------
         O           -1.191006205485     0.000001964249    -0.817235719308    15.994914619570
         O           -0.497749205485    -0.000027035751     1.339561280692    15.994914619570
         O           -2.521341205485    -0.000000035751    -0.214911719308    15.994914619570
         C            1.142009794515    -0.000000035751    -0.468709719308    12.000000000000
         C            1.879605794515     1.267340964249    -0.028880719308    12.000000000000
         C            1.879628794515    -1.267335035751    -0.028908719308    12.000000000000
         C           -0.230766205485    -0.000012035751     0.145845280692    12.000000000000
         H            1.022803794515     0.000010964249    -1.557262719308     1.007825032230
         H            1.960471794515     1.294575964249     1.060716280692     1.007825032230
         H            1.356040794515     2.167837964249    -0.361770719308     1.007825032230
         H            2.932050394515     1.278064864249    -0.475720219308     1.007825032230
         H            1.960480794515    -1.294602035751     1.060688280692     1.007825032230
         H            2.886058794515    -1.277552035751    -0.456191719308     1.007825032230
         H            1.356092794515    -2.167836035751    -0.361833719308     1.007825032230
         H           -2.267294205485    -0.000028035751     0.744874280692     1.007825032230

  Basis Set: AUG-CC-PVTZ
    Blend: AUG-CC-PVTZ
  Basis Set: (AUG-CC-PVTZ AUX)
    Blend: AUG-CC-PVTZ-JKFIT
	 Reference Energy          =    -380.7736691470666983 [Eh]
	 Singles Energy            =      -0.0000000000000000 [Eh]
	 Same-Spin Energy          =      -0.3702074069114457 [Eh]
	 Opposite-Spin Energy      =      -1.1772110625617200 [Eh]
	 Correlation Energy        =      -1.5474184694731656 [Eh]
	 Total Energy              =    -382.3210876165398417 [Eh]

	 ================> DF-SCS-MP2 Energies <==================
	-----------------------------------------------------------
	 SCS Same-Spin Scale       =       0.3333333333333333 [-]
	 SCS Opposite-Spin Scale   =       1.2000000000000000 [-]
	 SCS Same-Spin Energy      =      -0.1234024689704819 [Eh]
	 SCS Opposite-Spin Energy  =      -1.4126532750740639 [Eh]
	 SCS Correlation Energy    =      -1.5360557440445457 [Eh]
	 SCS Total Energy          =    -382.3097248911112160 [Eh]
	-----------------------------------------------------------

  Dipole Moment: [D]
     X:     2.5943      Y:    -0.0062      Z:    -0.4219     Total:     2.6284

*** Psi4 exiting successfully. Buy a developer a beer!
