                               Psi4 1.4a3.dev225

  ==> Input File <==

--------------------------------------------------------------------------
#psi4
#
memory 32 gb

molecule  {
0 1
  O       -1.2892700     0.0000060    -0.8145290
  O       -0.5960130    -0.0000230     1.3422680
  O       -2.6196050     0.0000040    -0.2122050
  C        1.0437460     0.0000040    -0.4660030
  C        1.7813420     1.2673450    -0.0261740
  C        1.6941252    -1.2943516     0.0292697
  C       -0.3290300    -0.0000080     0.1485520
  H        0.9245400     0.0000150    -1.5545560
  H        1.8622080     1.2945800     1.0634230
  H        1.2577770     2.1678420    -0.3590640
  H        2.7877650     1.2776000    -0.4534740
  H        1.8622170    -1.2945980     1.0633950
  H        2.7877950    -1.2775480    -0.4534850
  H        1.2578290    -2.1678320    -0.3591270
  H       -2.3655580    -0.0000240     0.7475810
units angstrom
no_reorient  #important for SAPT in psi4, default
symmetry c1  #important for SAPT in psi4, default
}

set PROPERTIES_ORIGIN ["COM"]
properties('MP2/aug-cc-pvtz', properties = ['dipole'])
--------------------------------------------------------------------------

    Molecular point group: c1
  Charge       = 0
  Multiplicity = 1
  Basis Set: AUG-CC-PVTZ
    Blend: AUG-CC-PVTZ
  Basis Set: (AUG-CC-PVTZ AUX)
    Blend: AUG-CC-PVTZ-JKFIT

    Orbital Energies [Eh]
    ---------------------

    Doubly Occupied:

       1A    -20.672463     2A    -20.645901     3A    -20.572552
       4A    -11.403586     5A    -11.269288     6A    -11.241387
       7A    -11.240171     8A     -1.526325     9A     -1.400561
      10A     -1.262721    11A     -1.106069    12A     -0.958821
      13A     -0.891365    14A     -0.807217    15A     -0.738356
      16A     -0.686964    17A     -0.685639    18A     -0.649138
      19A     -0.610258    20A     -0.596161    21A     -0.592637
      22A     -0.569032    23A     -0.541064    24A     -0.519724
      25A     -0.511825    26A     -0.506714    27A     -0.473847
      28A     -0.464354

  @DF-RHF Final Energy:  -380.76448681760752

   => Energetics <=

    Nuclear Repulsion Energy =            321.7024807516439182
    One-Electron Energy =               -1158.6456531811536479
    Two-Electron Energy =                 456.1786856119022673
    Total Energy =                       -380.7644868176075192
  Basis Set: (AUG-CC-PVTZ AUX)
    Blend: AUG-CC-PVTZ-RI
    Molecular point group: c1

    Geometry (in Angstrom), charge = 0, multiplicity = 1:

       Center              X                  Y                   Z               Mass
    ------------   -----------------  -----------------  -----------------  -----------------
         O           -1.180498879903     0.003122848996    -0.823822651469    15.994914619570
         O           -0.487241879903     0.003093848996     1.332974348531    15.994914619570
         O           -2.510833879903     0.003120848996    -0.221498651469    15.994914619570
         C            1.152517120097     0.003120848996    -0.475296651469    12.000000000000
         C            1.890113120097     1.270461848996    -0.035467651469    12.000000000000
         C            1.802896320097    -1.291234751004     0.019976048531    12.000000000000
         C           -0.220258879903     0.003108848996     0.139258348531    12.000000000000
         H            1.033311120097     0.003131848996    -1.563849651469     1.007825032230
         H            1.970979120097     1.297696848996     1.054129348531     1.007825032230
         H            1.366548120097     2.170958848996    -0.368357651469     1.007825032230
         H            2.896536120097     1.280716848996    -0.462767651469     1.007825032230
         H            1.970988120097    -1.291481151004     1.054101348531     1.007825032230
         H            2.896566120097    -1.274431151004    -0.462778651469     1.007825032230
         H            1.366600120097    -2.164715151004    -0.368420651469     1.007825032230
         H           -2.256786879903     0.003092848996     0.738287348531     1.007825032230

  Basis Set: AUG-CC-PVTZ
    Blend: AUG-CC-PVTZ
  Basis Set: (AUG-CC-PVTZ AUX)
    Blend: AUG-CC-PVTZ-JKFIT
	 Reference Energy          =    -380.7644868176075192 [Eh]
	 Singles Energy            =      -0.0000000000000000 [Eh]
	 Same-Spin Energy          =      -0.3705132711047595 [Eh]
	 Opposite-Spin Energy      =      -1.1774336668479803 [Eh]
	 Correlation Energy        =      -1.5479469379527400 [Eh]
	 Total Energy              =    -382.3124337555602779 [Eh]

	 ================> DF-SCS-MP2 Energies <==================
	-----------------------------------------------------------
	 SCS Same-Spin Scale       =       0.3333333333333333 [-]
	 SCS Opposite-Spin Scale   =       1.2000000000000000 [-]
	 SCS Same-Spin Energy      =      -0.1235044237015865 [Eh]
	 SCS Opposite-Spin Energy  =      -1.4129204002175764 [Eh]
	 SCS Correlation Energy    =      -1.5364248239191629 [Eh]
	 SCS Total Energy          =    -382.3009116415266817 [Eh]
	-----------------------------------------------------------

  Dipole Moment: [D]
     X:     2.6199      Y:     0.0074      Z:    -0.4211     Total:     2.6535

*** Psi4 exiting successfully. Buy a developer a beer!
