                               Psi4 1.4a3.dev225

  ==> Input File <==

--------------------------------------------------------------------------
#psi4
#
memory 32 gb

molecule  {
0 1
  O       -1.2892700     0.0000060    -0.8145290
  O       -0.5960130    -0.0000230     1.3422680
  O       -2.6196050     0.0000040    -0.2122050
  C        1.0351820     0.0263304    -0.3627965
  C        1.7813420     1.2673450    -0.0261740
  C        1.7813650    -1.2673310    -0.0262020
  C       -0.3290300    -0.0000080     0.1485520
  H        0.9245400     0.0000150    -1.5545560
  H        1.8622080     1.2945800     1.0634230
  H        1.2577770     2.1678420    -0.3590640
  H        2.7877650     1.2776000    -0.4534740
  H        1.8622170    -1.2945980     1.0633950
  H        2.7877950    -1.2775480    -0.4534850
  H        1.2578290    -2.1678320    -0.3591270
  H       -2.3655580    -0.0000240     0.7475810
units angstrom
no_reorient  #important for SAPT in psi4, default
symmetry c1  #important for SAPT in psi4, default
}

set PROPERTIES_ORIGIN ["COM"]
properties('MP2/aug-cc-pvtz', properties = ['dipole'])
--------------------------------------------------------------------------

    Molecular point group: c1
  Charge       = 0
  Multiplicity = 1
  Basis Set: AUG-CC-PVTZ
    Blend: AUG-CC-PVTZ
  Basis Set: (AUG-CC-PVTZ AUX)
    Blend: AUG-CC-PVTZ-JKFIT

    Orbital Energies [Eh]
    ---------------------

    Doubly Occupied:

       1A    -20.675216     2A    -20.649213     3A    -20.572875
       4A    -11.404592     5A    -11.270468     6A    -11.240650
       7A    -11.238221     8A     -1.528709     9A     -1.403136
      10A     -1.264772    11A     -1.112625    12A     -0.960796
      13A     -0.900741    14A     -0.809469    15A     -0.730160
      16A     -0.689807    17A     -0.683912    18A     -0.645001
      19A     -0.613123    20A     -0.597875    21A     -0.596911
      22A     -0.562298    23A     -0.549167    24A     -0.539115
      25A     -0.511432    26A     -0.483148    27A     -0.475353
      28A     -0.466517

  @DF-RHF Final Energy:  -380.76277780952546

   => Energetics <=

    Nuclear Repulsion Energy =            322.1529961108732891
    One-Electron Energy =               -1159.4809403290416867
    Two-Electron Energy =                 456.5651664086428809
    Total Energy =                       -380.7627778095254598
  Basis Set: (AUG-CC-PVTZ AUX)
    Blend: AUG-CC-PVTZ-RI
    Molecular point group: c1

    Geometry (in Angstrom), charge = 0, multiplicity = 1:

       Center              X                  Y                   Z               Mass
    ------------   -----------------  -----------------  -----------------  -----------------
         O           -1.189572726122    -0.003029773211    -0.829328006794    15.994914619570
         O           -0.496315726122    -0.003058773211     1.327468993206    15.994914619570
         O           -2.519907726122    -0.003031773211    -0.227004006794    15.994914619570
         C            1.134879273878     0.023294626789    -0.377595506794    12.000000000000
         C            1.881039273878     1.264309226789    -0.040973006794    12.000000000000
         C            1.881062273878    -1.270366773211    -0.041001006794    12.000000000000
         C           -0.229332726122    -0.003043773211     0.133752993206    12.000000000000
         H            1.024237273878    -0.003020773211    -1.569355006794     1.007825032230
         H            1.961905273878     1.291544226789     1.048623993206     1.007825032230
         H            1.357474273878     2.164806226789    -0.373863006794     1.007825032230
         H            2.887462273878     1.274564226789    -0.468273006794     1.007825032230
         H            1.961914273878    -1.297633773211     1.048595993206     1.007825032230
         H            2.887492273878    -1.280583773211    -0.468284006794     1.007825032230
         H            1.357526273878    -2.170867773211    -0.373926006794     1.007825032230
         H           -2.265860726122    -0.003059773211     0.732781993206     1.007825032230

  Basis Set: AUG-CC-PVTZ
    Blend: AUG-CC-PVTZ
  Basis Set: (AUG-CC-PVTZ AUX)
    Blend: AUG-CC-PVTZ-JKFIT
	 Reference Energy          =    -380.7627778095254598 [Eh]
	 Singles Energy            =      -0.0000000000000000 [Eh]
	 Same-Spin Energy          =      -0.3709046194676508 [Eh]
	 Opposite-Spin Energy      =      -1.1781705269767420 [Eh]
	 Correlation Energy        =      -1.5490751464443928 [Eh]
	 Total Energy              =    -382.3118529559698686 [Eh]

	 ================> DF-SCS-MP2 Energies <==================
	-----------------------------------------------------------
	 SCS Same-Spin Scale       =       0.3333333333333333 [-]
	 SCS Opposite-Spin Scale   =       1.2000000000000000 [-]
	 SCS Same-Spin Energy      =      -0.1236348731558836 [Eh]
	 SCS Opposite-Spin Energy  =      -1.4138046323720903 [Eh]
	 SCS Correlation Energy    =      -1.5374395055279739 [Eh]
	 SCS Total Energy          =    -382.3002173150534304 [Eh]
	-----------------------------------------------------------

  Dipole Moment: [D]
     X:     2.6205      Y:     0.0105      Z:    -0.3903     Total:     2.6494

*** Psi4 exiting successfully. Buy a developer a beer!
