                               Psi4 1.4a3.dev225

  ==> Input File <==

--------------------------------------------------------------------------
#psi4
#
memory 32 gb

molecule  {
0 1
  O       -1.2892700     0.0000060    -0.8145290
  O       -0.5960130    -0.0000230     1.3422680
  O       -2.6196050     0.0000040    -0.2122050
  C        1.0351841    -0.0263257    -0.3627970
  C        1.7813420     1.2673450    -0.0261740
  C        1.7813650    -1.2673310    -0.0262020
  C       -0.3290300    -0.0000080     0.1485520
  H        0.9245400     0.0000150    -1.5545560
  H        1.8622080     1.2945800     1.0634230
  H        1.2577770     2.1678420    -0.3590640
  H        2.7877650     1.2776000    -0.4534740
  H        1.8622170    -1.2945980     1.0633950
  H        2.7877950    -1.2775480    -0.4534850
  H        1.2578290    -2.1678320    -0.3591270
  H       -2.3655580    -0.0000240     0.7475810
units angstrom
no_reorient  #important for SAPT in psi4, default
symmetry c1  #important for SAPT in psi4, default
}

set PROPERTIES_ORIGIN ["COM"]
properties('MP2/aug-cc-pvtz', properties = ['dipole'])
--------------------------------------------------------------------------

    Molecular point group: c1
  Charge       = 0
  Multiplicity = 1
  Basis Set: AUG-CC-PVTZ
    Blend: AUG-CC-PVTZ
  Basis Set: (AUG-CC-PVTZ AUX)
    Blend: AUG-CC-PVTZ-JKFIT

    Orbital Energies [Eh]
    ---------------------

    Doubly Occupied:

       1A    -20.675216     2A    -20.649213     3A    -20.572875
       4A    -11.404592     5A    -11.270468     6A    -11.240650
       7A    -11.238220     8A     -1.528709     9A     -1.403136
      10A     -1.264772    11A     -1.112625    12A     -0.960796
      13A     -0.900741    14A     -0.809469    15A     -0.730160
      16A     -0.689807    17A     -0.683912    18A     -0.645001
      19A     -0.613123    20A     -0.597876    21A     -0.596910
      22A     -0.562298    23A     -0.549167    24A     -0.539115
      25A     -0.511433    26A     -0.483148    27A     -0.475353
      28A     -0.466517

  @DF-RHF Final Energy:  -380.76277771752734

   => Energetics <=

    Nuclear Repulsion Energy =            322.1529780216050654
    One-Electron Energy =               -1159.4809043269945050
    Two-Electron Energy =                 456.5651485878620406
    Total Energy =                       -380.7627777175273422
  Basis Set: (AUG-CC-PVTZ AUX)
    Blend: AUG-CC-PVTZ-RI
    Molecular point group: c1

    Geometry (in Angstrom), charge = 0, multiplicity = 1:

       Center              X                  Y                   Z               Mass
    ------------   -----------------  -----------------  -----------------  -----------------
         O           -1.189572968320     0.003043166039    -0.829327949128    15.994914619570
         O           -0.496315968320     0.003014166039     1.327469050872    15.994914619570
         O           -2.519907968320     0.003041166039    -0.227003949128    15.994914619570
         C            1.134881131680    -0.023288533961    -0.377595949128    12.000000000000
         C            1.881039031680     1.270382166039    -0.040972949128    12.000000000000
         C            1.881062031680    -1.264293833961    -0.041000949128    12.000000000000
         C           -0.229332968320     0.003029166039     0.133753050872    12.000000000000
         H            1.024237031680     0.003052166039    -1.569354949128     1.007825032230
         H            1.961905031680     1.297617166039     1.048624050872     1.007825032230
         H            1.357474031680     2.170879166039    -0.373862949128     1.007825032230
         H            2.887462031680     1.280637166039    -0.468272949128     1.007825032230
         H            1.961914031680    -1.291560833961     1.048596050872     1.007825032230
         H            2.887492031680    -1.274510833961    -0.468283949128     1.007825032230
         H            1.357526031680    -2.164794833961    -0.373925949128     1.007825032230
         H           -2.265860968320     0.003013166039     0.732782050872     1.007825032230

  Basis Set: AUG-CC-PVTZ
    Blend: AUG-CC-PVTZ
  Basis Set: (AUG-CC-PVTZ AUX)
    Blend: AUG-CC-PVTZ-JKFIT
	 Reference Energy          =    -380.7627777175273422 [Eh]
	 Singles Energy            =      -0.0000000000000000 [Eh]
	 Same-Spin Energy          =      -0.3709046183014814 [Eh]
	 Opposite-Spin Energy      =      -1.1781705207424777 [Eh]
	 Correlation Energy        =      -1.5490751390439592 [Eh]
	 Total Energy              =    -382.3118528565713063 [Eh]

	 ================> DF-SCS-MP2 Energies <==================
	-----------------------------------------------------------
	 SCS Same-Spin Scale       =       0.3333333333333333 [-]
	 SCS Opposite-Spin Scale   =       1.2000000000000000 [-]
	 SCS Same-Spin Energy      =      -0.1236348727671605 [Eh]
	 SCS Opposite-Spin Energy  =      -1.4138046248909732 [Eh]
	 SCS Correlation Energy    =      -1.5374394976581336 [Eh]
	 SCS Total Energy          =    -382.3002172151854552 [Eh]
	-----------------------------------------------------------

  Dipole Moment: [D]
     X:     2.6205      Y:    -0.0105      Z:    -0.3903     Total:     2.6494

*** Psi4 exiting successfully. Buy a developer a beer!
