                               Psi4 1.4a3.dev225

  ==> Input File <==

--------------------------------------------------------------------------
#psi4
#
memory 32 gb

molecule  {
0 1
  O       -1.2892700     0.0000060    -0.8145290
  O       -0.5960130    -0.0000230     1.3422680
  O       -2.6196050     0.0000040    -0.2122050
  C        1.0437460     0.0000040    -0.4660030
  C        1.7813420     1.2673450    -0.0261740
  C        1.7813650    -1.2673310    -0.0262020
  C       -0.3290300    -0.0000080     0.1485520
  H        0.9245400     0.0000150    -1.5545560
  H        1.8622080     1.2945800     1.0634230
  H        1.2577770     2.1678420    -0.3590640
  H        2.7693564     1.2774124    -0.4456582
  H        1.8622170    -1.2945980     1.0633950
  H        2.7877950    -1.2775480    -0.4534850
  H        1.2578290    -2.1678320    -0.3591270
  H       -2.3655580    -0.0000240     0.7475810
units angstrom
no_reorient  #important for SAPT in psi4, default
symmetry c1  #important for SAPT in psi4, default
}

set PROPERTIES_ORIGIN ["COM"]
properties('MP2/aug-cc-pvtz', properties = ['dipole'])
--------------------------------------------------------------------------

    Molecular point group: c1
  Charge       = 0
  Multiplicity = 1
  Basis Set: AUG-CC-PVTZ
    Blend: AUG-CC-PVTZ
  Basis Set: (AUG-CC-PVTZ AUX)
    Blend: AUG-CC-PVTZ-JKFIT

    Orbital Energies [Eh]
    ---------------------

    Doubly Occupied:

       1A    -20.673102     2A    -20.646669     3A    -20.573595
       4A    -11.405008     5A    -11.267564     6A    -11.238973
       7A    -11.236540     8A     -1.526885     9A     -1.401021
      10A     -1.263246    11A     -1.105197    12A     -0.956778
      13A     -0.893487    14A     -0.807685    15A     -0.737823
      16A     -0.687343    17A     -0.686009    18A     -0.642454
      19A     -0.610098    20A     -0.596445    21A     -0.592050
      22A     -0.564131    23A     -0.543320    24A     -0.538675
      25A     -0.503997    26A     -0.501394    27A     -0.474192
      28A     -0.472300

  @DF-RHF Final Energy:  -380.77581944014554

   => Energetics <=

    Nuclear Repulsion Energy =            321.2738562925409269
    One-Electron Energy =               -1157.8073877103513496
    Two-Electron Energy =                 455.7577119776648829
    Total Energy =                       -380.7758194401455398
  Basis Set: (AUG-CC-PVTZ AUX)
    Blend: AUG-CC-PVTZ-RI
    Molecular point group: c1

    Geometry (in Angstrom), charge = 0, multiplicity = 1:

       Center              X                  Y                   Z               Mass
    ------------   -----------------  -----------------  -----------------  -----------------
         O           -1.190382120661     0.000008323250    -0.817500688648    15.994914619570
         O           -0.497125120661    -0.000020676750     1.339296311352    15.994914619570
         O           -2.520717120661     0.000006323250    -0.215176688648    15.994914619570
         C            1.142633879339     0.000006323250    -0.468974688648    12.000000000000
         C            1.880229879339     1.267347323250    -0.029145688648    12.000000000000
         C            1.880252879339    -1.267328676750    -0.029173688648    12.000000000000
         C           -0.230142120661    -0.000005676750     0.145580311352    12.000000000000
         H            1.023427879339     0.000017323250    -1.557527688648     1.007825032230
         H            1.961095879339     1.294582323250     1.060451311352     1.007825032230
         H            1.356664879339     2.167844323250    -0.362035688648     1.007825032230
         H            2.868244279339     1.277414723250    -0.448629888648     1.007825032230
         H            1.961104879339    -1.294595676750     1.060423311352     1.007825032230
         H            2.886682879339    -1.277545676750    -0.456456688648     1.007825032230
         H            1.356716879339    -2.167829676750    -0.362098688648     1.007825032230
         H           -2.266670120661    -0.000021676750     0.744609311352     1.007825032230

  Basis Set: AUG-CC-PVTZ
    Blend: AUG-CC-PVTZ
  Basis Set: (AUG-CC-PVTZ AUX)
    Blend: AUG-CC-PVTZ-JKFIT
	 Reference Energy          =    -380.7758194401455398 [Eh]
	 Singles Energy            =      -0.0000000000000000 [Eh]
	 Same-Spin Energy          =      -0.3702067269848363 [Eh]
	 Opposite-Spin Energy      =      -1.1767444728723317 [Eh]
	 Correlation Energy        =      -1.5469511998571681 [Eh]
	 Total Energy              =    -382.3227706400027159 [Eh]

	 ================> DF-SCS-MP2 Energies <==================
	-----------------------------------------------------------
	 SCS Same-Spin Scale       =       0.3333333333333333 [-]
	 SCS Opposite-Spin Scale   =       1.2000000000000000 [-]
	 SCS Same-Spin Energy      =      -0.1234022423282788 [Eh]
	 SCS Opposite-Spin Energy  =      -1.4120933674467981 [Eh]
	 SCS Correlation Energy    =      -1.5354956097750769 [Eh]
	 SCS Total Energy          =    -382.3113150499206085 [Eh]
	-----------------------------------------------------------

  Dipole Moment: [D]
     X:     2.6358      Y:     0.0022      Z:    -0.4340     Total:     2.6713

*** Psi4 exiting successfully. Buy a developer a beer!
