                               Psi4 1.4a3.dev225

  ==> Input File <==

--------------------------------------------------------------------------
#psi4
#
memory 32 gb

molecule  {
0 1
  O       -1.2892700     0.0000060    -0.8145290
  O       -0.5960130    -0.0000230     1.3422680
  O       -2.6196050     0.0000040    -0.2122050
  C        1.0412667    -0.0071628    -0.4403829
  C        1.7813420     1.2673450    -0.0261740
  C        1.7813650    -1.2673310    -0.0262020
  C       -0.3290300    -0.0000080     0.1485520
  H        0.9245400     0.0000150    -1.5545560
  H        1.8622080     1.2945800     1.0634230
  H        1.2577770     2.1678420    -0.3590640
  H        2.7877650     1.2776000    -0.4534740
  H        1.8622170    -1.2945980     1.0633950
  H        2.7877950    -1.2775480    -0.4534850
  H        1.2578290    -2.1678320    -0.3591270
  H       -2.3655580    -0.0000240     0.7475810
units angstrom
no_reorient  #important for SAPT in psi4, default
symmetry c1  #important for SAPT in psi4, default
}

set PROPERTIES_ORIGIN ["COM"]
properties('MP2/aug-cc-pvtz', properties = ['dipole'])
--------------------------------------------------------------------------

    Molecular point group: c1
  Charge       = 0
  Multiplicity = 1
  Basis Set: AUG-CC-PVTZ
    Blend: AUG-CC-PVTZ
  Basis Set: (AUG-CC-PVTZ AUX)
    Blend: AUG-CC-PVTZ-JKFIT

    Orbital Energies [Eh]
    ---------------------

    Doubly Occupied:

       1A    -20.673711     2A    -20.647421     3A    -20.573496
       4A    -11.404956     5A    -11.268151     6A    -11.239252
       7A    -11.238656     8A     -1.527437     9A     -1.401580
      10A     -1.263752    11A     -1.106773    12A     -0.956909
      13A     -0.894635    14A     -0.807713    15A     -0.735847
      16A     -0.687955    17A     -0.685466    18A     -0.643056
      19A     -0.610497    20A     -0.596691    21A     -0.592474
      22A     -0.563356    23A     -0.543769    24A     -0.538248
      25A     -0.504464    26A     -0.496787    27A     -0.474561
      28A     -0.473593

  @DF-RHF Final Energy:  -380.77476381478272

   => Energetics <=

    Nuclear Repulsion Energy =            321.4352372477877680
    One-Electron Energy =               -1158.1175923358878208
    Two-Electron Energy =                 455.9075912733173368
    Total Energy =                       -380.7747638147827161
  Basis Set: (AUG-CC-PVTZ AUX)
    Blend: AUG-CC-PVTZ-RI
    Molecular point group: c1

    Geometry (in Angstrom), charge = 0, multiplicity = 1:

       Center              X                  Y                   Z               Mass
    ------------   -----------------  -----------------  -----------------  -----------------
         O           -1.190274487427     0.000833068300    -0.820379803378    15.994914619570
         O           -0.497017487427     0.000804068300     1.336417196622    15.994914619570
         O           -2.520609487427     0.000831068300    -0.218055803378    15.994914619570
         C            1.140262212573    -0.006335731700    -0.446233703378    12.000000000000
         C            1.880337512573     1.268172068300    -0.032024803378    12.000000000000
         C            1.880360512573    -1.266503931700    -0.032052803378    12.000000000000
         C           -0.230034487427     0.000819068300     0.142701196622    12.000000000000
         H            1.023535512573     0.000842068300    -1.560406803378     1.007825032230
         H            1.961203512573     1.295407068300     1.057572196622     1.007825032230
         H            1.356772512573     2.168669068300    -0.364914803378     1.007825032230
         H            2.886760512573     1.278427068300    -0.459324803378     1.007825032230
         H            1.961212512573    -1.293770931700     1.057544196622     1.007825032230
         H            2.886790512573    -1.276720931700    -0.459335803378     1.007825032230
         H            1.356824512573    -2.167004931700    -0.364977803378     1.007825032230
         H           -2.266562487427     0.000803068300     0.741730196622     1.007825032230

  Basis Set: AUG-CC-PVTZ
    Blend: AUG-CC-PVTZ
  Basis Set: (AUG-CC-PVTZ AUX)
    Blend: AUG-CC-PVTZ-JKFIT
	 Reference Energy          =    -380.7747638147827161 [Eh]
	 Singles Energy            =      -0.0000000000000000 [Eh]
	 Same-Spin Energy          =      -0.3703252800290728 [Eh]
	 Opposite-Spin Energy      =      -1.1770522858829711 [Eh]
	 Correlation Energy        =      -1.5473775659120439 [Eh]
	 Total Energy              =    -382.3221413806947453 [Eh]

	 ================> DF-SCS-MP2 Energies <==================
	-----------------------------------------------------------
	 SCS Same-Spin Scale       =       0.3333333333333333 [-]
	 SCS Opposite-Spin Scale   =       1.2000000000000000 [-]
	 SCS Same-Spin Energy      =      -0.1234417600096909 [Eh]
	 SCS Opposite-Spin Energy  =      -1.4124627430595653 [Eh]
	 SCS Correlation Energy    =      -1.5359045030692562 [Eh]
	 SCS Total Energy          =    -382.3106683178519916 [Eh]
	-----------------------------------------------------------

  Dipole Moment: [D]
     X:     2.6225      Y:    -0.0031      Z:    -0.4242     Total:     2.6566

*** Psi4 exiting successfully. Buy a developer a beer!
