                               Psi4 1.4a3.dev225

  ==> Input File <==

--------------------------------------------------------------------------
#psi4
#
memory 32 gb

molecule  {
0 1
  O       -1.2892700     0.0000060    -0.8145290
  O       -0.5960130    -0.0000230     1.3422680
  O       -2.6196050     0.0000040    -0.2122050
  C        1.0437460     0.0000040    -0.4660030
  C        1.7813420     1.2673450    -0.0261740
  C        1.7813650    -1.2673310    -0.0262020
  C       -0.3290300    -0.0000080     0.1485520
  H        0.9245400     0.0000150    -1.5545560
  H        1.8622080     1.2945800     1.0634230
  H        1.2577770     2.1678420    -0.3590640
  H        2.7877650     1.2776000    -0.4534740
  H        1.8622170    -1.2945980     1.0633950
  H        2.8051227    -1.1780071    -0.3997230
  H        1.2578290    -2.1678320    -0.3591270
  H       -2.3655580    -0.0000240     0.7475810
units angstrom
no_reorient  #important for SAPT in psi4, default
symmetry c1  #important for SAPT in psi4, default
}

set PROPERTIES_ORIGIN ["COM"]
properties('MP2/aug-cc-pvtz', properties = ['dipole'])
--------------------------------------------------------------------------

    Molecular point group: c1
  Charge       = 0
  Multiplicity = 1
  Basis Set: AUG-CC-PVTZ
    Blend: AUG-CC-PVTZ
  Basis Set: (AUG-CC-PVTZ AUX)
    Blend: AUG-CC-PVTZ-JKFIT

    Orbital Energies [Eh]
    ---------------------

    Doubly Occupied:

       1A    -20.672983     2A    -20.646525     3A    -20.573367
       4A    -11.404614     5A    -11.267163     6A    -11.239315
       7A    -11.239242     8A     -1.526764     9A     -1.400828
      10A     -1.263128    11A     -1.105558    12A     -0.955456
      13A     -0.892960    14A     -0.807174    15A     -0.737799
      16A     -0.687161    17A     -0.686220    18A     -0.640661
      19A     -0.613950    20A     -0.596180    21A     -0.591575
      22A     -0.561728    23A     -0.540852    24A     -0.539604
      25A     -0.504363    26A     -0.500977    27A     -0.474056
      28A     -0.471601

  @DF-RHF Final Energy:  -380.77444929759588

   => Energetics <=

    Nuclear Repulsion Energy =            321.2856797892602572
    One-Electron Energy =               -1157.8366495551983917
    Two-Electron Energy =                 455.7765204683422553
    Total Energy =                       -380.7744492975958792
  Basis Set: (AUG-CC-PVTZ AUX)
    Blend: AUG-CC-PVTZ-RI
    Molecular point group: c1

    Geometry (in Angstrom), charge = 0, multiplicity = 1:

       Center              X                  Y                   Z               Mass
    ------------   -----------------  -----------------  -----------------  -----------------
         O           -1.190728270176    -0.000957668526    -0.817945733458    15.994914619570
         O           -0.497471270176    -0.000986668526     1.338851266542    15.994914619570
         O           -2.521063270176    -0.000959668526    -0.215621733458    15.994914619570
         C            1.142287729824    -0.000959668526    -0.469419733458    12.000000000000
         C            1.879883729824     1.266381331474    -0.029590733458    12.000000000000
         C            1.879906729824    -1.268294668526    -0.029618733458    12.000000000000
         C           -0.230488270176    -0.000971668526     0.145135266542    12.000000000000
         H            1.023081729824    -0.000948668526    -1.557972733458     1.007825032230
         H            1.960749729824     1.293616331474     1.060006266542     1.007825032230
         H            1.356318729824     2.166878331474    -0.362480733458     1.007825032230
         H            2.886306729824     1.276636331474    -0.456890733458     1.007825032230
         H            1.960758729824    -1.295561668526     1.059978266542     1.007825032230
         H            2.903664429824    -1.178970768526    -0.403139733458     1.007825032230
         H            1.356370729824    -2.168795668526    -0.362543733458     1.007825032230
         H           -2.267016270176    -0.000987668526     0.744164266542     1.007825032230

  Basis Set: AUG-CC-PVTZ
    Blend: AUG-CC-PVTZ
  Basis Set: (AUG-CC-PVTZ AUX)
    Blend: AUG-CC-PVTZ-JKFIT
	 Reference Energy          =    -380.7744492975958792 [Eh]
	 Singles Energy            =      -0.0000000000000000 [Eh]
	 Same-Spin Energy          =      -0.3703448132321773 [Eh]
	 Opposite-Spin Energy      =      -1.1770624863612298 [Eh]
	 Correlation Energy        =      -1.5474072995934072 [Eh]
	 Total Energy              =    -382.3218565971893099 [Eh]

	 ================> DF-SCS-MP2 Energies <==================
	-----------------------------------------------------------
	 SCS Same-Spin Scale       =       0.3333333333333333 [-]
	 SCS Opposite-Spin Scale   =       1.2000000000000000 [-]
	 SCS Same-Spin Energy      =      -0.1234482710773924 [Eh]
	 SCS Opposite-Spin Energy  =      -1.4124749836334758 [Eh]
	 SCS Correlation Energy    =      -1.5359232547108681 [Eh]
	 SCS Total Energy          =    -382.3103725523067737 [Eh]
	-----------------------------------------------------------

  Dipole Moment: [D]
     X:     2.6296      Y:     0.0270      Z:    -0.4061     Total:     2.6609

*** Psi4 exiting successfully. Buy a developer a beer!
