                               Psi4 1.4a3.dev225

  ==> Input File <==

--------------------------------------------------------------------------
#psi4
#
memory 32 gb

molecule  {
0 1
  O       -1.2892700     0.0000060    -0.8145290
  O       -0.5960130    -0.0000230     1.3422680
  O       -2.6196050     0.0000040    -0.2122050
  C        1.0633088     0.0510272    -0.6166398
  C        1.7813420     1.2673450    -0.0261740
  C        1.7813650    -1.2673310    -0.0262020
  C       -0.3290300    -0.0000080     0.1485520
  H        0.9245400     0.0000150    -1.5545560
  H        1.8622080     1.2945800     1.0634230
  H        1.2577770     2.1678420    -0.3590640
  H        2.7877650     1.2776000    -0.4534740
  H        1.8622170    -1.2945980     1.0633950
  H        2.7877950    -1.2775480    -0.4534850
  H        1.2578290    -2.1678320    -0.3591270
  H       -2.3655580    -0.0000240     0.7475810
units angstrom
no_reorient  #important for SAPT in psi4, default
symmetry c1  #important for SAPT in psi4, default
}

set PROPERTIES_ORIGIN ["COM"]
properties('MP2/aug-cc-pvtz', properties = ['dipole'])
--------------------------------------------------------------------------

    Molecular point group: c1
  Charge       = 0
  Multiplicity = 1
  Basis Set: AUG-CC-PVTZ
    Blend: AUG-CC-PVTZ
  Basis Set: (AUG-CC-PVTZ AUX)
    Blend: AUG-CC-PVTZ-JKFIT

    Orbital Energies [Eh]
    ---------------------

    Doubly Occupied:

       1A    -20.670327     2A    -20.642525     3A    -20.575439
       4A    -11.406909     5A    -11.268798     6A    -11.242313
       7A    -11.239527     8A     -1.524225     9A     -1.399408
      10A     -1.260445    11A     -1.096124    12A     -0.949222
      13A     -0.886504    14A     -0.813892    15A     -0.747820
      16A     -0.689727    17A     -0.683687    18A     -0.638519
      19A     -0.606353    20A     -0.594978    21A     -0.584973
      22A     -0.567159    23A     -0.548957    24A     -0.536916
      25A     -0.528939    26A     -0.482613    27A     -0.472559
      28A     -0.454721

  @DF-RHF Final Energy:  -380.74380889369706

   => Energetics <=

    Nuclear Repulsion Energy =            319.5751912573076083
    One-Electron Energy =               -1154.4108448182530537
    Two-Electron Energy =                 454.0918446672484379
    Total Energy =                       -380.7438088936970644
  Basis Set: (AUG-CC-PVTZ AUX)
    Blend: AUG-CC-PVTZ-RI
    Molecular point group: c1

    Geometry (in Angstrom), charge = 0, multiplicity = 1:

       Center              X                  Y                   Z               Mass
    ------------   -----------------  -----------------  -----------------  -----------------
         O           -1.192816649385    -0.005878107328    -0.800051722753    15.994914619570
         O           -0.499559649385    -0.005907107328     1.356745277247    15.994914619570
         O           -2.523151649385    -0.005880107328    -0.197727722753    15.994914619570
         C            1.159762150615     0.045143092672    -0.602162522753    12.000000000000
         C            1.877795350615     1.261460892672    -0.011696722753    12.000000000000
         C            1.877818350615    -1.273215107328    -0.011724722753    12.000000000000
         C           -0.232576649385    -0.005892107328     0.163029277247    12.000000000000
         H            1.020993350615    -0.005869107328    -1.540078722753     1.007825032230
         H            1.958661350615     1.288695892672     1.077900277247     1.007825032230
         H            1.354230350615     2.161957892672    -0.344586722753     1.007825032230
         H            2.884218350615     1.271715892672    -0.438996722753     1.007825032230
         H            1.958670350615    -1.300482107328     1.077872277247     1.007825032230
         H            2.884248350615    -1.283432107328    -0.439007722753     1.007825032230
         H            1.354282350615    -2.173716107328    -0.344649722753     1.007825032230
         H           -2.269104649385    -0.005908107328     0.762058277247     1.007825032230

  Basis Set: AUG-CC-PVTZ
    Blend: AUG-CC-PVTZ
  Basis Set: (AUG-CC-PVTZ AUX)
    Blend: AUG-CC-PVTZ-JKFIT
	 Reference Energy          =    -380.7438088936970644 [Eh]
	 Singles Energy            =      -0.0000000000000000 [Eh]
	 Same-Spin Energy          =      -0.3703236343944157 [Eh]
	 Opposite-Spin Energy      =      -1.1780115693533915 [Eh]
	 Correlation Energy        =      -1.5483352037478073 [Eh]
	 Total Energy              =    -382.2921440974448615 [Eh]

	 ================> DF-SCS-MP2 Energies <==================
	-----------------------------------------------------------
	 SCS Same-Spin Scale       =       0.3333333333333333 [-]
	 SCS Opposite-Spin Scale   =       1.2000000000000000 [-]
	 SCS Same-Spin Energy      =      -0.1234412114648052 [Eh]
	 SCS Opposite-Spin Energy  =      -1.4136138832240697 [Eh]
	 SCS Correlation Energy    =      -1.5370550946888748 [Eh]
	 SCS Total Energy          =    -382.2808639883859314 [Eh]
	-----------------------------------------------------------

  Dipole Moment: [D]
     X:     2.6539      Y:     0.0293      Z:    -0.4295     Total:     2.6886

*** Psi4 exiting successfully. Buy a developer a beer!
