                               Psi4 1.4a3.dev225

  ==> Input File <==

--------------------------------------------------------------------------
#psi4
#
memory 32 gb

molecule  {
0 1
  O       -1.2892700     0.0000060    -0.8145290
  O       -0.5960130    -0.0000230     1.3422680
  O       -2.6196050     0.0000040    -0.2122050
  C        1.0437460     0.0000040    -0.4660030
  C        1.7813420     1.2673450    -0.0261740
  C        1.7813650    -1.2673310    -0.0262020
  C       -0.3290300    -0.0000080     0.1485520
  H        0.9245400     0.0000150    -1.5545560
  H        1.8622080     1.2945800     1.0634230
  H        1.2577770     2.1678420    -0.3590640
  H        2.9718514     1.2794758    -0.5316321
  H        1.8622170    -1.2945980     1.0633950
  H        2.7877950    -1.2775480    -0.4534850
  H        1.2578290    -2.1678320    -0.3591270
  H       -2.3655580    -0.0000240     0.7475810
units angstrom
no_reorient  #important for SAPT in psi4, default
symmetry c1  #important for SAPT in psi4, default
}

set PROPERTIES_ORIGIN ["COM"]
properties('MP2/aug-cc-pvtz', properties = ['dipole'])
--------------------------------------------------------------------------

    Molecular point group: c1
  Charge       = 0
  Multiplicity = 1
  Basis Set: AUG-CC-PVTZ
    Blend: AUG-CC-PVTZ
  Basis Set: (AUG-CC-PVTZ AUX)
    Blend: AUG-CC-PVTZ-JKFIT

    Orbital Energies [Eh]
    ---------------------

    Doubly Occupied:

       1A    -20.674693     2A    -20.648192     3A    -20.575667
       4A    -11.407313     5A    -11.270041     6A    -11.261740
       7A    -11.239158     8A     -1.528505     9A     -1.402978
      10A     -1.264810    11A     -1.104111    12A     -0.949443
      13A     -0.887821    14A     -0.806884    15A     -0.739455
      16A     -0.688277    17A     -0.687321    18A     -0.642877
      19A     -0.608766    20A     -0.597671    21A     -0.585147
      22A     -0.562614    23A     -0.541258    24A     -0.515315
      25A     -0.505810    26A     -0.503879    27A     -0.475668
      28A     -0.469163

  @DF-RHF Final Energy:  -380.75561516973545

   => Energetics <=

    Nuclear Repulsion Energy =            320.3733775506165102
    One-Electron Energy =               -1155.9688280170407779
    Two-Electron Energy =                 454.8398352966888183
    Total Energy =                       -380.7556151697354494
  Basis Set: (AUG-CC-PVTZ AUX)
    Blend: AUG-CC-PVTZ-RI
    Molecular point group: c1

    Geometry (in Angstrom), charge = 0, multiplicity = 1:

       Center              X                  Y                   Z               Mass
    ------------   -----------------  -----------------  -----------------  -----------------
         O           -1.192343530937    -0.000011663288    -0.816667926896    15.994914619570
         O           -0.499086530937    -0.000040663288     1.340129073104    15.994914619570
         O           -2.522678530937    -0.000013663288    -0.214343926896    15.994914619570
         C            1.140672469063    -0.000013663288    -0.468141926896    12.000000000000
         C            1.878268469063     1.267327336712    -0.028312926896    12.000000000000
         C            1.878291469063    -1.267348663288    -0.028340926896    12.000000000000
         C           -0.232103530937    -0.000025663288     0.146413073104    12.000000000000
         H            1.021466469063    -0.000002663288    -1.556694926896     1.007825032230
         H            1.959134469063     1.294562336712     1.061284073104     1.007825032230
         H            1.354703469063     2.167824336712    -0.361202926896     1.007825032230
         H            3.068777869063     1.279458136712    -0.533771026896     1.007825032230
         H            1.959143469063    -1.294615663288     1.061256073104     1.007825032230
         H            2.884721469063    -1.277565663288    -0.455623926896     1.007825032230
         H            1.354755469063    -2.167849663288    -0.361265926896     1.007825032230
         H           -2.268631530937    -0.000041663288     0.745442073104     1.007825032230

  Basis Set: AUG-CC-PVTZ
    Blend: AUG-CC-PVTZ
  Basis Set: (AUG-CC-PVTZ AUX)
    Blend: AUG-CC-PVTZ-JKFIT
	 Reference Energy          =    -380.7556151697354494 [Eh]
	 Singles Energy            =      -0.0000000000000000 [Eh]
	 Same-Spin Energy          =      -0.3702147881750621 [Eh]
	 Opposite-Spin Energy      =      -1.1784805735681592 [Eh]
	 Correlation Energy        =      -1.5486953617432213 [Eh]
	 Total Energy              =    -382.3043105314786771 [Eh]

	 ================> DF-SCS-MP2 Energies <==================
	-----------------------------------------------------------
	 SCS Same-Spin Scale       =       0.3333333333333333 [-]
	 SCS Opposite-Spin Scale   =       1.2000000000000000 [-]
	 SCS Same-Spin Energy      =      -0.1234049293916874 [Eh]
	 SCS Opposite-Spin Energy  =      -1.4141766882817910 [Eh]
	 SCS Correlation Energy    =      -1.5375816176734785 [Eh]
	 SCS Total Energy          =    -382.2931967874089310 [Eh]
	-----------------------------------------------------------

  Dipole Moment: [D]
     X:     2.4826      Y:    -0.0294      Z:    -0.3884     Total:     2.5130

*** Psi4 exiting successfully. Buy a developer a beer!
