                               Psi4 1.4a3.dev225

  ==> Input File <==

--------------------------------------------------------------------------
#psi4
#
memory 32 gb

molecule  {
0 1
  O       -1.2892700     0.0000060    -0.8145290
  O       -0.5960130    -0.0000230     1.3422680
  O       -2.6196050     0.0000040    -0.2122050
  C        1.0437460     0.0000040    -0.4660030
  C        1.7813420     1.2673450    -0.0261740
  C        1.7813650    -1.2673310    -0.0262020
  C       -0.3290300    -0.0000080     0.1485520
  H        0.9245400     0.0000150    -1.5545560
  H        1.8622080     1.2945800     1.0634230
  H        1.2577770     2.1678420    -0.3590640
  H        2.8798082     1.2785379    -0.4925530
  H        1.8622170    -1.2945980     1.0633950
  H        2.7877950    -1.2775480    -0.4534850
  H        1.2578290    -2.1678320    -0.3591270
  H       -2.3655580    -0.0000240     0.7475810
units angstrom
no_reorient  #important for SAPT in psi4, default
symmetry c1  #important for SAPT in psi4, default
}

set PROPERTIES_ORIGIN ["COM"]
properties('MP2/aug-cc-pvtz', properties = ['dipole'])
--------------------------------------------------------------------------

    Molecular point group: c1
  Charge       = 0
  Multiplicity = 1
  Basis Set: AUG-CC-PVTZ
    Blend: AUG-CC-PVTZ
  Basis Set: (AUG-CC-PVTZ AUX)
    Blend: AUG-CC-PVTZ-JKFIT

    Orbital Energies [Eh]
    ---------------------

    Doubly Occupied:

       1A    -20.673881     2A    -20.647416     3A    -20.574620
       4A    -11.406132     5A    -11.268769     6A    -11.250745
       7A    -11.239025     8A     -1.527680     9A     -1.401987
      10A     -1.264012    11A     -1.104177    12A     -0.951656
      13A     -0.889861    14A     -0.807015    15A     -0.738605
      16A     -0.687620    17A     -0.686666    18A     -0.642314
      19A     -0.608810    20A     -0.596948    21A     -0.586944
      22A     -0.562820    23A     -0.540935    24A     -0.528410
      25A     -0.504913    26A     -0.502605    27A     -0.474906
      28A     -0.471280

  @DF-RHF Final Energy:  -380.76922660237670

   => Energetics <=

    Nuclear Repulsion Energy =            320.7561039783888646
    One-Electron Energy =               -1156.7691571182065218
    Two-Electron Energy =                 455.2438265374409525
    Total Energy =                       -380.7692266023767047
  Basis Set: (AUG-CC-PVTZ AUX)
    Blend: AUG-CC-PVTZ-RI
    Molecular point group: c1

    Geometry (in Angstrom), charge = 0, multiplicity = 1:

       Center              X                  Y                   Z               Mass
    ------------   -----------------  -----------------  -----------------  -----------------
         O           -1.191451980635    -0.000002578586    -0.817046455493    15.994914619570
         O           -0.498194980635    -0.000031578586     1.339750544507    15.994914619570
         O           -2.521786980635    -0.000004578586    -0.214722455493    15.994914619570
         C            1.141564019365    -0.000004578586    -0.468520455493    12.000000000000
         C            1.879160019365     1.267336421414    -0.028691455493    12.000000000000
         C            1.879183019365    -1.267339578586    -0.028719455493    12.000000000000
         C           -0.231211980635    -0.000016578586     0.146034544507    12.000000000000
         H            1.022358019365     0.000006421414    -1.557073455493     1.007825032230
         H            1.960026019365     1.294571421414     1.060905544507     1.007825032230
         H            1.355595019365     2.167833421414    -0.361581455493     1.007825032230
         H            2.977626219365     1.278529321414    -0.495070455493     1.007825032230
         H            1.960035019365    -1.294606578586     1.060877544507     1.007825032230
         H            2.885613019365    -1.277556578586    -0.456002455493     1.007825032230
         H            1.355647019365    -2.167840578586    -0.361644455493     1.007825032230
         H           -2.267739980635    -0.000032578586     0.745063544507     1.007825032230

  Basis Set: AUG-CC-PVTZ
    Blend: AUG-CC-PVTZ
  Basis Set: (AUG-CC-PVTZ AUX)
    Blend: AUG-CC-PVTZ-JKFIT
	 Reference Energy          =    -380.7692266023767047 [Eh]
	 Singles Energy            =      -0.0000000000000000 [Eh]
	 Same-Spin Energy          =      -0.3702112146912260 [Eh]
	 Opposite-Spin Energy      =      -1.1776001852556819 [Eh]
	 Correlation Energy        =      -1.5478113999469079 [Eh]
	 Total Energy              =    -382.3170380023236135 [Eh]

	 ================> DF-SCS-MP2 Energies <==================
	-----------------------------------------------------------
	 SCS Same-Spin Scale       =       0.3333333333333333 [-]
	 SCS Opposite-Spin Scale   =       1.2000000000000000 [-]
	 SCS Same-Spin Energy      =      -0.1234037382304087 [Eh]
	 SCS Opposite-Spin Energy  =      -1.4131202223068182 [Eh]
	 SCS Correlation Energy    =      -1.5365239605372270 [Eh]
	 SCS Total Energy          =    -382.3057505629139428 [Eh]
	-----------------------------------------------------------

  Dipole Moment: [D]
     X:     2.5603      Y:    -0.0132      Z:    -0.4118     Total:     2.5933

*** Psi4 exiting successfully. Buy a developer a beer!
