                               Psi4 1.4a3.dev225

  ==> Input File <==

--------------------------------------------------------------------------
#psi4
#
memory 32 gb

molecule  {
0 1
  O       -1.2892700     0.0000060    -0.8145290
  O       -0.5960130    -0.0000230     1.3422680
  O       -2.6196050     0.0000040    -0.2122050
  C        1.0437460     0.0000040    -0.4660030
  C        1.7813420     1.2673450    -0.0261740
  C        1.7813650    -1.2673310    -0.0262020
  C       -0.3290300    -0.0000080     0.1485520
  H        0.9245400     0.0000150    -1.5545560
  H        1.8622080     1.2945800     1.0634230
  H        1.2577770     2.1678420    -0.3590640
  H        2.7877650     1.2776000    -0.4534740
  H        1.8622170    -1.2945980     1.0633950
  H        2.7877950    -1.2775480    -0.4534850
  H        1.1620784    -2.3325266    -0.4200164
  H       -2.3655580    -0.0000240     0.7475810
units angstrom
no_reorient  #important for SAPT in psi4, default
symmetry c1  #important for SAPT in psi4, default
}

set PROPERTIES_ORIGIN ["COM"]
properties('MP2/aug-cc-pvtz', properties = ['dipole'])
--------------------------------------------------------------------------

    Molecular point group: c1
  Charge       = 0
  Multiplicity = 1
  Basis Set: AUG-CC-PVTZ
    Blend: AUG-CC-PVTZ
  Basis Set: (AUG-CC-PVTZ AUX)
    Blend: AUG-CC-PVTZ-JKFIT

    Orbital Energies [Eh]
    ---------------------

    Doubly Occupied:

       1A    -20.673314     2A    -20.646912     3A    -20.574063
       4A    -11.405798     5A    -11.270158     6A    -11.261679
       7A    -11.241115     8A     -1.527110     9A     -1.401452
      10A     -1.263475    11A     -1.104717    12A     -0.947873
      13A     -0.890614    14A     -0.806699    15A     -0.738634
      16A     -0.687515    17A     -0.685953    18A     -0.638288
      19A     -0.601965    20A     -0.596692    21A     -0.588778
      22A     -0.563879    23A     -0.543731    24A     -0.533125
      25A     -0.506229    26A     -0.485396    27A     -0.474392
      28A     -0.471774

  @DF-RHF Final Energy:  -380.75580625124286

   => Energetics <=

    Nuclear Repulsion Energy =            320.4298496295074301
    One-Electron Energy =               -1156.1086558887514002
    Two-Electron Energy =                 454.9230000080011109
    Total Energy =                       -380.7558062512428592
  Basis Set: (AUG-CC-PVTZ AUX)
    Blend: AUG-CC-PVTZ-RI
    Molecular point group: c1

    Geometry (in Angstrom), charge = 0, multiplicity = 1:

       Center              X                  Y                   Z               Mass
    ------------   -----------------  -----------------  -----------------  -----------------
         O           -1.189632969356     0.001601773558    -0.816835195252    15.994914619570
         O           -0.496375969356     0.001572773558     1.339961804748    15.994914619570
         O           -2.519967969356     0.001599773558    -0.214511195252    15.994914619570
         C            1.143383030644     0.001599773558    -0.468309195252    12.000000000000
         C            1.880979030644     1.268940773558    -0.028480195252    12.000000000000
         C            1.881002030644    -1.265735226442    -0.028508195252    12.000000000000
         C           -0.229392969356     0.001587773558     0.146245804748    12.000000000000
         H            1.024177030644     0.001610773558    -1.556862195252     1.007825032230
         H            1.961845030644     1.296175773558     1.061116804748     1.007825032230
         H            1.357414030644     2.169437773558    -0.361370195252     1.007825032230
         H            2.887402030644     1.279195773558    -0.455780195252     1.007825032230
         H            1.961854030644    -1.293002226442     1.061088804748     1.007825032230
         H            2.887432030644    -1.275952226442    -0.455791195252     1.007825032230
         H            1.261715430644    -2.330930826442    -0.422322595252     1.007825032230
         H           -2.265920969356     0.001571773558     0.745274804748     1.007825032230

  Basis Set: AUG-CC-PVTZ
    Blend: AUG-CC-PVTZ
  Basis Set: (AUG-CC-PVTZ AUX)
    Blend: AUG-CC-PVTZ-JKFIT
	 Reference Energy          =    -380.7558062512428592 [Eh]
	 Singles Energy            =      -0.0000000000000000 [Eh]
	 Same-Spin Energy          =      -0.3701501161999852 [Eh]
	 Opposite-Spin Energy      =      -1.1784035443380128 [Eh]
	 Correlation Energy        =      -1.5485536605379979 [Eh]
	 Total Energy              =    -382.3043599117808640 [Eh]

	 ================> DF-SCS-MP2 Energies <==================
	-----------------------------------------------------------
	 SCS Same-Spin Scale       =       0.3333333333333333 [-]
	 SCS Opposite-Spin Scale   =       1.2000000000000000 [-]
	 SCS Same-Spin Energy      =      -0.1233833720666617 [Eh]
	 SCS Opposite-Spin Energy  =      -1.4140842532056153 [Eh]
	 SCS Correlation Energy    =      -1.5374676252722770 [Eh]
	 SCS Total Energy          =    -382.2932738765151157 [Eh]
	-----------------------------------------------------------

  Dipole Moment: [D]
     X:     2.6560      Y:     0.1334      Z:    -0.4045     Total:     2.6899

*** Psi4 exiting successfully. Buy a developer a beer!
