                               Psi4 1.4a3.dev225

  ==> Input File <==

--------------------------------------------------------------------------
#psi4
#
memory 32 gb

molecule  {
0 1
  O       -1.2892700     0.0000060    -0.8145290
  O       -0.5960130    -0.0000230     1.3422680
  O       -2.6196050     0.0000040    -0.2122050
  C        1.0437460     0.0000040    -0.4660030
  C        1.7813420     1.2673450    -0.0261740
  C        1.7813650    -1.2673310    -0.0262020
  C       -0.3290300    -0.0000080     0.1485520
  H        0.9245400     0.0000150    -1.5545560
  H        1.8622080     1.2945800     1.0634230
  H        1.2577770     2.1678420    -0.3590640
  H        2.7877650     1.2776000    -0.4534740
  H        1.8636965    -1.2950970     1.0833340
  H        2.7877950    -1.2775480    -0.4534850
  H        1.2578290    -2.1678320    -0.3591270
  H       -2.3655580    -0.0000240     0.7475810
units angstrom
no_reorient  #important for SAPT in psi4, default
symmetry c1  #important for SAPT in psi4, default
}

set PROPERTIES_ORIGIN ["COM"]
properties('MP2/aug-cc-pvtz', properties = ['dipole'])
--------------------------------------------------------------------------

    Molecular point group: c1
  Charge       = 0
  Multiplicity = 1
  Basis Set: AUG-CC-PVTZ
    Blend: AUG-CC-PVTZ
  Basis Set: (AUG-CC-PVTZ AUX)
    Blend: AUG-CC-PVTZ-JKFIT

    Orbital Energies [Eh]
    ---------------------

    Doubly Occupied:

       1A    -20.673243     2A    -20.646806     3A    -20.573727
       4A    -11.405196     5A    -11.267943     6A    -11.241287
       7A    -11.238988     8A     -1.527024     9A     -1.401146
      10A     -1.263387    11A     -1.104678    12A     -0.954665
      13A     -0.892283    14A     -0.807366    15A     -0.737671
      16A     -0.687350    17A     -0.685878    18A     -0.642188
      19A     -0.609808    20A     -0.596463    21A     -0.590874
      22A     -0.561678    23A     -0.541894    24A     -0.537948
      25A     -0.503247    26A     -0.501659    27A     -0.474279
      28A     -0.472230

  @DF-RHF Final Energy:  -380.77525693532209

   => Energetics <=

    Nuclear Repulsion Energy =            321.1017089341461315
    One-Electron Energy =               -1157.4721200221474646
    Two-Electron Energy =                 455.5951541526792425
    Total Energy =                       -380.7752569353220906
  Basis Set: (AUG-CC-PVTZ AUX)
    Blend: AUG-CC-PVTZ-RI
    Molecular point group: c1

    Geometry (in Angstrom), charge = 0, multiplicity = 1:

       Center              X                  Y                   Z               Mass
    ------------   -----------------  -----------------  -----------------  -----------------
         O           -1.190574761090     0.000011339538    -0.817618116580    15.994914619570
         O           -0.497317761090    -0.000017660462     1.339178883420    15.994914619570
         O           -2.520909761090     0.000009339538    -0.215294116580    15.994914619570
         C            1.142441238910     0.000009339538    -0.469092116580    12.000000000000
         C            1.880037238910     1.267350339538    -0.029263116580    12.000000000000
         C            1.880060238910    -1.267325660462    -0.029291116580    12.000000000000
         C           -0.230334761090    -0.000002660462     0.145462883420    12.000000000000
         H            1.023235238910     0.000020339538    -1.557645116580     1.007825032230
         H            1.960903238910     1.294585339538     1.060333883420     1.007825032230
         H            1.356472238910     2.167847339538    -0.362153116580     1.007825032230
         H            2.886460238910     1.277605339538    -0.456563116580     1.007825032230
         H            1.962391738910    -1.295091660462     1.080244883420     1.007825032230
         H            2.886490238910    -1.277542660462    -0.456574116580     1.007825032230
         H            1.356524238910    -2.167826660462    -0.362216116580     1.007825032230
         H           -2.266862761090    -0.000018660462     0.744491883420     1.007825032230

  Basis Set: AUG-CC-PVTZ
    Blend: AUG-CC-PVTZ
  Basis Set: (AUG-CC-PVTZ AUX)
    Blend: AUG-CC-PVTZ-JKFIT
	 Reference Energy          =    -380.7752569353220906 [Eh]
	 Singles Energy            =      -0.0000000000000000 [Eh]
	 Same-Spin Energy          =      -0.3702166730367418 [Eh]
	 Opposite-Spin Energy      =      -1.1770044213685584 [Eh]
	 Correlation Energy        =      -1.5472210944053002 [Eh]
	 Total Energy              =    -382.3224780297273924 [Eh]

	 ================> DF-SCS-MP2 Energies <==================
	-----------------------------------------------------------
	 SCS Same-Spin Scale       =       0.3333333333333333 [-]
	 SCS Opposite-Spin Scale   =       1.2000000000000000 [-]
	 SCS Same-Spin Energy      =      -0.1234055576789139 [Eh]
	 SCS Opposite-Spin Energy  =      -1.4124053056422701 [Eh]
	 SCS Correlation Energy    =      -1.5358108633211840 [Eh]
	 SCS Total Energy          =    -382.3110677986432506 [Eh]
	-----------------------------------------------------------

  Dipole Moment: [D]
     X:     2.6215      Y:     0.0022      Z:    -0.4373     Total:     2.6577

*** Psi4 exiting successfully. Buy a developer a beer!
