                               Psi4 1.4a3.dev225

  ==> Input File <==

--------------------------------------------------------------------------
#psi4
#
memory 32 gb

molecule  {
0 1
  O       -1.2892700     0.0000060    -0.8145290
  O       -0.5960130    -0.0000230     1.3422680
  O       -2.6196050     0.0000040    -0.2122050
  C        1.0633121    -0.0510142    -0.6166409
  C        1.7813420     1.2673450    -0.0261740
  C        1.7813650    -1.2673310    -0.0262020
  C       -0.3290300    -0.0000080     0.1485520
  H        0.9245400     0.0000150    -1.5545560
  H        1.8622080     1.2945800     1.0634230
  H        1.2577770     2.1678420    -0.3590640
  H        2.7877650     1.2776000    -0.4534740
  H        1.8622170    -1.2945980     1.0633950
  H        2.7877950    -1.2775480    -0.4534850
  H        1.2578290    -2.1678320    -0.3591270
  H       -2.3655580    -0.0000240     0.7475810
units angstrom
no_reorient  #important for SAPT in psi4, default
symmetry c1  #important for SAPT in psi4, default
}

set PROPERTIES_ORIGIN ["COM"]
properties('MP2/aug-cc-pvtz', properties = ['dipole'])
--------------------------------------------------------------------------

    Molecular point group: c1
  Charge       = 0
  Multiplicity = 1
  Basis Set: AUG-CC-PVTZ
    Blend: AUG-CC-PVTZ
  Basis Set: (AUG-CC-PVTZ AUX)
    Blend: AUG-CC-PVTZ-JKFIT

    Orbital Energies [Eh]
    ---------------------

    Doubly Occupied:

       1A    -20.670327     2A    -20.642525     3A    -20.575438
       4A    -11.406909     5A    -11.268798     6A    -11.242313
       7A    -11.239526     8A     -1.524225     9A     -1.399408
      10A     -1.260445    11A     -1.096125    12A     -0.949223
      13A     -0.886504    14A     -0.813892    15A     -0.747820
      16A     -0.689727    17A     -0.683687    18A     -0.638519
      19A     -0.606353    20A     -0.594978    21A     -0.584973
      22A     -0.567159    23A     -0.548957    24A     -0.536916
      25A     -0.528939    26A     -0.482613    27A     -0.472559
      28A     -0.454720

  @DF-RHF Final Energy:  -380.74380888836401

   => Energetics <=

    Nuclear Repulsion Energy =            319.5751644852911113
    One-Electron Energy =               -1154.4107926691465309
    Two-Electron Energy =                 454.0918192954914048
    Total Energy =                       -380.7438088883640148
  Basis Set: (AUG-CC-PVTZ AUX)
    Blend: AUG-CC-PVTZ-RI
    Molecular point group: c1

    Geometry (in Angstrom), charge = 0, multiplicity = 1:

       Center              X                  Y                   Z               Mass
    ------------   -----------------  -----------------  -----------------  -----------------
         O           -1.192817029981     0.005890542899    -0.800051595888    15.994914619570
         O           -0.499560029981     0.005861542899     1.356745404112    15.994914619570
         O           -2.523152029981     0.005888542899    -0.197727595888    15.994914619570
         C            1.159765070019    -0.045129657101    -0.602163495888    12.000000000000
         C            1.877794970019     1.273229542899    -0.011696595888    12.000000000000
         C            1.877817970019    -1.261446457101    -0.011724595888    12.000000000000
         C           -0.232577029981     0.005876542899     0.163029404112    12.000000000000
         H            1.020992970019     0.005899542899    -1.540078595888     1.007825032230
         H            1.958660970019     1.300464542899     1.077900404112     1.007825032230
         H            1.354229970019     2.173726542899    -0.344586595888     1.007825032230
         H            2.884217970019     1.283484542899    -0.438996595888     1.007825032230
         H            1.958669970019    -1.288713457101     1.077872404112     1.007825032230
         H            2.884247970019    -1.271663457101    -0.439007595888     1.007825032230
         H            1.354281970019    -2.161947457101    -0.344649595888     1.007825032230
         H           -2.269105029981     0.005860542899     0.762058404112     1.007825032230

  Basis Set: AUG-CC-PVTZ
    Blend: AUG-CC-PVTZ
  Basis Set: (AUG-CC-PVTZ AUX)
    Blend: AUG-CC-PVTZ-JKFIT
	 Reference Energy          =    -380.7438088883640148 [Eh]
	 Singles Energy            =      -0.0000000000000000 [Eh]
	 Same-Spin Energy          =      -0.3703236332323908 [Eh]
	 Opposite-Spin Energy      =      -1.1780115588737750 [Eh]
	 Correlation Energy        =      -1.5483351921061659 [Eh]
	 Total Energy              =    -382.2921440804701660 [Eh]

	 ================> DF-SCS-MP2 Energies <==================
	-----------------------------------------------------------
	 SCS Same-Spin Scale       =       0.3333333333333333 [-]
	 SCS Opposite-Spin Scale   =       1.2000000000000000 [-]
	 SCS Same-Spin Energy      =      -0.1234412110774636 [Eh]
	 SCS Opposite-Spin Energy  =      -1.4136138706485299 [Eh]
	 SCS Correlation Energy    =      -1.5370550817259936 [Eh]
	 SCS Total Energy          =    -382.2808639700900244 [Eh]
	-----------------------------------------------------------

  Dipole Moment: [D]
     X:     2.6539      Y:    -0.0293      Z:    -0.4295     Total:     2.6886

*** Psi4 exiting successfully. Buy a developer a beer!
