                               Psi4 1.4a3.dev225

  ==> Input File <==

--------------------------------------------------------------------------
#psi4
#
memory 32 gb

molecule  {
0 1
  O       -1.2892700     0.0000060    -0.8145290
  O       -0.5960130    -0.0000230     1.3422680
  O       -2.6196050     0.0000040    -0.2122050
  C        1.0437460     0.0000040    -0.4660030
  C        1.7813420     1.2673450    -0.0261740
  C        1.7813650    -1.2673310    -0.0262020
  C       -0.3290300    -0.0000080     0.1485520
  H        0.9245400     0.0000150    -1.5545560
  H        1.8622080     1.2945800     1.0634230
  H        1.2577770     2.1678420    -0.3590640
  H        2.7877650     1.2776000    -0.4534740
  H        1.8585181    -1.2933506     1.0135476
  H        2.7877950    -1.2775480    -0.4534850
  H        1.2578290    -2.1678320    -0.3591270
  H       -2.3655580    -0.0000240     0.7475810
units angstrom
no_reorient  #important for SAPT in psi4, default
symmetry c1  #important for SAPT in psi4, default
}

set PROPERTIES_ORIGIN ["COM"]
properties('MP2/aug-cc-pvtz', properties = ['dipole'])
--------------------------------------------------------------------------

    Molecular point group: c1
  Charge       = 0
  Multiplicity = 1
  Basis Set: AUG-CC-PVTZ
    Blend: AUG-CC-PVTZ
  Basis Set: (AUG-CC-PVTZ AUX)
    Blend: AUG-CC-PVTZ-JKFIT

    Orbital Energies [Eh]
    ---------------------

    Doubly Occupied:

       1A    -20.673160     2A    -20.646721     3A    -20.573803
       4A    -11.405127     5A    -11.267277     6A    -11.238952
       7A    -11.233082     8A     -1.526958     9A     -1.401216
      10A     -1.263297    11A     -1.105770    12A     -0.958690
      13A     -0.894206    14A     -0.808021    15A     -0.738676
      16A     -0.687452    17A     -0.686679    18A     -0.642837
      19A     -0.609536    20A     -0.596551    21A     -0.591589
      22A     -0.569540    23A     -0.543027    24A     -0.538072
      25A     -0.505989    26A     -0.501272    27A     -0.474326
      28A     -0.472106

  @DF-RHF Final Energy:  -380.77481645745934

   => Energetics <=

    Nuclear Repulsion Energy =            321.3929868188766932
    One-Electron Energy =               -1158.0277408061072038
    Two-Electron Energy =                 455.8599375297711731
    Total Energy =                       -380.7748164574593375
  Basis Set: (AUG-CC-PVTZ AUX)
    Blend: AUG-CC-PVTZ-RI
    Molecular point group: c1

    Geometry (in Angstrom), charge = 0, multiplicity = 1:

       Center              X                  Y                   Z               Mass
    ------------   -----------------  -----------------  -----------------  -----------------
         O           -1.190524601990    -0.000005576470    -0.816942150447    15.994914619570
         O           -0.497267601990    -0.000034576470     1.339854849553    15.994914619570
         O           -2.520859601990    -0.000007576470    -0.214618150447    15.994914619570
         C            1.142491398010    -0.000007576470    -0.468416150447    12.000000000000
         C            1.880087398010     1.267333423530    -0.028587150447    12.000000000000
         C            1.880110398010    -1.267342576470    -0.028615150447    12.000000000000
         C           -0.230284601990    -0.000019576470     0.146138849553    12.000000000000
         H            1.023285398010     0.000003423530    -1.556969150447     1.007825032230
         H            1.960953398010     1.294568423530     1.061009849553     1.007825032230
         H            1.356522398010     2.167830423530    -0.361477150447     1.007825032230
         H            2.886510398010     1.277588423530    -0.455887150447     1.007825032230
         H            1.957263498010    -1.293362176470     1.011134449553     1.007825032230
         H            2.886540398010    -1.277559576470    -0.455898150447     1.007825032230
         H            1.356574398010    -2.167843576470    -0.361540150447     1.007825032230
         H           -2.266812601990    -0.000035576470     0.745167849553     1.007825032230

  Basis Set: AUG-CC-PVTZ
    Blend: AUG-CC-PVTZ
  Basis Set: (AUG-CC-PVTZ AUX)
    Blend: AUG-CC-PVTZ-JKFIT
	 Reference Energy          =    -380.7748164574593375 [Eh]
	 Singles Energy            =      -0.0000000000000000 [Eh]
	 Same-Spin Energy          =      -0.3701852408644115 [Eh]
	 Opposite-Spin Energy      =      -1.1765692153253013 [Eh]
	 Correlation Energy        =      -1.5467544561897129 [Eh]
	 Total Energy              =    -382.3215709136490545 [Eh]

	 ================> DF-SCS-MP2 Energies <==================
	-----------------------------------------------------------
	 SCS Same-Spin Scale       =       0.3333333333333333 [-]
	 SCS Opposite-Spin Scale   =       1.2000000000000000 [-]
	 SCS Same-Spin Energy      =      -0.1233950802881372 [Eh]
	 SCS Opposite-Spin Energy  =      -1.4118830583903617 [Eh]
	 SCS Correlation Energy    =      -1.5352781386784988 [Eh]
	 SCS Total Energy          =    -382.3100945961378443 [Eh]
	-----------------------------------------------------------

  Dipole Moment: [D]
     X:     2.6320      Y:    -0.0050      Z:    -0.4164     Total:     2.6647

*** Psi4 exiting successfully. Buy a developer a beer!
