                               Psi4 1.4a3.dev225

  ==> Input File <==

--------------------------------------------------------------------------
#psi4
#
memory 32 gb

molecule  {
0 1
  O       -1.2892700     0.0000060    -0.8145290
  O       -0.5960130    -0.0000230     1.3422680
  O       -2.6196050     0.0000040    -0.2122050
  C        1.0437460     0.0000040    -0.4660030
  C        1.7813420     1.2673450    -0.0261740
  C        1.8650112    -1.2341360    -0.0838164
  C       -0.3290300    -0.0000080     0.1485520
  H        0.9245400     0.0000150    -1.5545560
  H        1.8622080     1.2945800     1.0634230
  H        1.2577770     2.1678420    -0.3590640
  H        2.7877650     1.2776000    -0.4534740
  H        1.8622170    -1.2945980     1.0633950
  H        2.7877950    -1.2775480    -0.4534850
  H        1.2578290    -2.1678320    -0.3591270
  H       -2.3655580    -0.0000240     0.7475810
units angstrom
no_reorient  #important for SAPT in psi4, default
symmetry c1  #important for SAPT in psi4, default
}

set PROPERTIES_ORIGIN ["COM"]
properties('MP2/aug-cc-pvtz', properties = ['dipole'])
--------------------------------------------------------------------------

    Molecular point group: c1
  Charge       = 0
  Multiplicity = 1
  Basis Set: AUG-CC-PVTZ
    Blend: AUG-CC-PVTZ
  Basis Set: (AUG-CC-PVTZ AUX)
    Blend: AUG-CC-PVTZ-JKFIT

    Orbital Energies [Eh]
    ---------------------

    Doubly Occupied:

       1A    -20.674459     2A    -20.648112     3A    -20.575465
       4A    -11.407610     5A    -11.268027     6A    -11.240318
       7A    -11.238192     8A     -1.528186     9A     -1.402395
      10A     -1.264496    11A     -1.105203    12A     -0.954791
      13A     -0.896400    14A     -0.809330    15A     -0.737938
      16A     -0.689115    17A     -0.686324    18A     -0.643860
      19A     -0.611093    20A     -0.602234    21A     -0.596598
      22A     -0.555745    23A     -0.552950    24A     -0.538331
      25A     -0.496170    26A     -0.488654    27A     -0.476324
      28A     -0.474878

  @DF-RHF Final Energy:  -380.76191797546943

   => Energetics <=

    Nuclear Repulsion Energy =            320.7391504764231058
    One-Electron Energy =               -1156.6757389594706638
    Two-Electron Energy =                 455.1746705075781279
    Total Energy =                       -380.7619179754694301
  Basis Set: (AUG-CC-PVTZ AUX)
    Blend: AUG-CC-PVTZ-RI
    Molecular point group: c1

    Geometry (in Angstrom), charge = 0, multiplicity = 1:

       Center              X                  Y                   Z               Mass
    ------------   -----------------  -----------------  -----------------  -----------------
         O           -1.200207523285    -0.003821943360    -0.810780192658    15.994914619570
         O           -0.506950523285    -0.003850943360     1.346016807342    15.994914619570
         O           -2.530542523285    -0.003823943360    -0.208456192658    15.994914619570
         C            1.132808476715    -0.003823943360    -0.462254192658    12.000000000000
         C            1.870404476715     1.263517056640    -0.022425192658    12.000000000000
         C            1.954073676715    -1.237963943360    -0.080067592658    12.000000000000
         C           -0.239967523285    -0.003835943360     0.152300807342    12.000000000000
         H            1.013602476715    -0.003812943360    -1.550807192658     1.007825032230
         H            1.951270476715     1.290752056640     1.067171807342     1.007825032230
         H            1.346839476715     2.164014056640    -0.355315192658     1.007825032230
         H            2.876827476715     1.273772056640    -0.449725192658     1.007825032230
         H            1.951279476715    -1.298425943360     1.067143807342     1.007825032230
         H            2.876857476715    -1.281375943360    -0.449736192658     1.007825032230
         H            1.346891476715    -2.171659943360    -0.355378192658     1.007825032230
         H           -2.276495523285    -0.003851943360     0.751329807342     1.007825032230

  Basis Set: AUG-CC-PVTZ
    Blend: AUG-CC-PVTZ
  Basis Set: (AUG-CC-PVTZ AUX)
    Blend: AUG-CC-PVTZ-JKFIT
	 Reference Energy          =    -380.7619179754694301 [Eh]
	 Singles Energy            =      -0.0000000000000000 [Eh]
	 Same-Spin Energy          =      -0.3703215940418550 [Eh]
	 Opposite-Spin Energy      =      -1.1775022027219906 [Eh]
	 Correlation Energy        =      -1.5478237967638455 [Eh]
	 Total Energy              =    -382.3097417722332807 [Eh]

	 ================> DF-SCS-MP2 Energies <==================
	-----------------------------------------------------------
	 SCS Same-Spin Scale       =       0.3333333333333333 [-]
	 SCS Opposite-Spin Scale   =       1.2000000000000000 [-]
	 SCS Same-Spin Energy      =      -0.1234405313472850 [Eh]
	 SCS Opposite-Spin Energy  =      -1.4130026432663887 [Eh]
	 SCS Correlation Energy    =      -1.5364431746136737 [Eh]
	 SCS Total Energy          =    -382.2983611500831103 [Eh]
	-----------------------------------------------------------

  Dipole Moment: [D]
     X:     2.5906      Y:     0.0179      Z:    -0.4362     Total:     2.6272

*** Psi4 exiting successfully. Buy a developer a beer!
