                               Psi4 1.4a3.dev225

  ==> Input File <==

--------------------------------------------------------------------------
#psi4
#
memory 32 gb

molecule  {
0 1
  O       -1.2892700     0.0000060    -0.8145290
  O       -0.5960130    -0.0000230     1.3422680
  O       -2.6196050     0.0000040    -0.2122050
  C        1.0437460     0.0000040    -0.4660030
  C        1.7813420     1.2673450    -0.0261740
  C        1.7813650    -1.2673310    -0.0262020
  C       -0.3290300    -0.0000080     0.1485520
  H        0.9245400     0.0000150    -1.5545560
  H        1.8622080     1.2945800     1.0634230
  H        1.2577770     2.1678420    -0.3590640
  H        2.7877650     1.2776000    -0.4534740
  H        1.8696147    -1.2970928     1.1630898
  H        2.7877950    -1.2775480    -0.4534850
  H        1.2578290    -2.1678320    -0.3591270
  H       -2.3655580    -0.0000240     0.7475810
units angstrom
no_reorient  #important for SAPT in psi4, default
symmetry c1  #important for SAPT in psi4, default
}

set PROPERTIES_ORIGIN ["COM"]
properties('MP2/aug-cc-pvtz', properties = ['dipole'])
--------------------------------------------------------------------------

    Molecular point group: c1
  Charge       = 0
  Multiplicity = 1
  Basis Set: AUG-CC-PVTZ
    Blend: AUG-CC-PVTZ
  Basis Set: (AUG-CC-PVTZ AUX)
    Blend: AUG-CC-PVTZ-JKFIT

    Orbital Energies [Eh]
    ---------------------

    Doubly Occupied:

       1A    -20.673368     2A    -20.646935     3A    -20.573656
       4A    -11.405316     5A    -11.268848     6A    -11.250235
       7A    -11.239069     8A     -1.527130     9A     -1.401078
      10A     -1.263525    11A     -1.103950    12A     -0.951444
      13A     -0.890469    14A     -0.806820    15A     -0.736790
      16A     -0.687451    17A     -0.685111    18A     -0.641712
      19A     -0.610231    20A     -0.596510    21A     -0.590734
      22A     -0.554877    23A     -0.540117    24A     -0.537038
      25A     -0.502557    26A     -0.497899    27A     -0.474175
      28A     -0.472415

  @DF-RHF Final Energy:  -380.76915954265240

   => Energetics <=

    Nuclear Repulsion Energy =            320.7963737035319696
    One-Electron Energy =               -1156.8721456708271944
    Two-Electron Energy =                 455.3066124246427648
    Total Energy =                       -380.7691595426524032
  Basis Set: (AUG-CC-PVTZ AUX)
    Blend: AUG-CC-PVTZ-RI
    Molecular point group: c1

    Geometry (in Angstrom), charge = 0, multiplicity = 1:

       Center              X                  Y                   Z               Mass
    ------------   -----------------  -----------------  -----------------  -----------------
         O           -1.190632086053     0.000030671287    -0.818390648473    15.994914619570
         O           -0.497375086053     0.000001671287     1.338406351527    15.994914619570
         O           -2.520967086053     0.000028671287    -0.216066648473    15.994914619570
         C            1.142383913947     0.000028671287    -0.469864648473    12.000000000000
         C            1.879979913947     1.267369671287    -0.030035648473    12.000000000000
         C            1.880002913947    -1.267306328713    -0.030063648473    12.000000000000
         C           -0.230392086053     0.000016671287     0.144690351527    12.000000000000
         H            1.023177913947     0.000039671287    -1.558417648473     1.007825032230
         H            1.960845913947     1.294604671287     1.059561351527     1.007825032230
         H            1.356414913947     2.167866671287    -0.362925648473     1.007825032230
         H            2.886402913947     1.277624671287    -0.457335648473     1.007825032230
         H            1.968252613947    -1.297068128713     1.159228151527     1.007825032230
         H            2.886432913947    -1.277523328713    -0.457346648473     1.007825032230
         H            1.356466913947    -2.167807328713    -0.362988648473     1.007825032230
         H           -2.266920086053     0.000000671287     0.743719351527     1.007825032230

  Basis Set: AUG-CC-PVTZ
    Blend: AUG-CC-PVTZ
  Basis Set: (AUG-CC-PVTZ AUX)
    Blend: AUG-CC-PVTZ-JKFIT
	 Reference Energy          =    -380.7691595426524032 [Eh]
	 Singles Energy            =      -0.0000000000000000 [Eh]
	 Same-Spin Energy          =      -0.3702682683325628 [Eh]
	 Opposite-Spin Energy      =      -1.1776406278322082 [Eh]
	 Correlation Energy        =      -1.5479088961647709 [Eh]
	 Total Energy              =    -382.3170684388171594 [Eh]

	 ================> DF-SCS-MP2 Energies <==================
	-----------------------------------------------------------
	 SCS Same-Spin Scale       =       0.3333333333333333 [-]
	 SCS Opposite-Spin Scale   =       1.2000000000000000 [-]
	 SCS Same-Spin Energy      =      -0.1234227561108543 [Eh]
	 SCS Opposite-Spin Energy  =      -1.4131687533986499 [Eh]
	 SCS Correlation Energy    =      -1.5365915095095042 [Eh]
	 SCS Total Energy          =    -382.3057510521618951 [Eh]
	-----------------------------------------------------------

  Dipole Moment: [D]
     X:     2.6074      Y:     0.0125      Z:    -0.4672     Total:     2.6490

*** Psi4 exiting successfully. Buy a developer a beer!
