                               Psi4 1.3.2 release

  ==> Input File <==

--------------------------------------------------------------------------
#psi4
#
memory 32 gb

molecule  {
0 1
 Br       -1.8067700     0.0000000    -0.0000600
  C        0.1006220     0.0000530     0.0000060
  C        0.7815690     1.2175950     0.0000440
  C        0.7815260    -1.2175610     0.0000100
  C        2.1776820     1.2083560     0.0000890
  C        2.1776190    -1.2084040     0.0000560
  C        2.8781420    -0.0000300     0.0000940
  H        0.2284300     2.1526090     0.0000410
  H        0.2283001    -2.1525114    -0.2500210
  H        2.7160930     2.1530860     0.0001180
  H        2.7160100    -2.1531480     0.0000600
  H        3.9651640    -0.0000500     0.0001280
units angstrom
no_reorient  #important for SAPT in psi4, default
symmetry c1  #important for SAPT in psi4, default
}

set PROPERTIES_ORIGIN ["COM"]
properties('MP2/aug-cc-pvtz', properties = ['dipole'])
--------------------------------------------------------------------------

    Molecular point group: c1
  Charge       = 0
  Multiplicity = 1
  Basis Set: AUG-CC-PVTZ
    Blend: AUG-CC-PVTZ
  Basis Set: (AUG-CC-PVTZ AUX)
    Blend: AUG-CC-PVTZ-JKFIT

    Orbital Energies [Eh]
    ---------------------

    Doubly Occupied:

       1A   -490.024740     2A    -65.164482     3A    -58.519791
       4A    -58.518411     5A    -58.518386     6A    -11.304028
       7A    -11.257770     8A    -11.255763     9A    -11.253965
      10A    -11.253758    11A    -11.250459    12A     -9.837216
      13A     -7.448792    14A     -7.442041    15A     -7.441989
      16A     -3.192544    17A     -3.189037    18A     -3.188828
      19A     -3.180196    20A     -3.180189    21A     -1.174653
      22A     -1.069952    23A     -1.032280    24A     -0.974029
      25A     -0.844367    26A     -0.817313    27A     -0.707557
      28A     -0.644808    29A     -0.642281    30A     -0.602793
      31A     -0.573565    32A     -0.534305    33A     -0.512610
      34A     -0.490923    35A     -0.438659    36A     -0.416390
      37A     -0.353029    38A     -0.335406

  @DF-RHF Final Energy: -2802.65291721722360

   => Energetics <=

    Nuclear Repulsion Energy =            429.9621689244543745
    One-Electron Energy =               -4748.0555617076843191
    Two-Electron Energy =                1515.4404755660066257
    Total Energy =                      -2802.6529172172236031
  Basis Set: (AUG-CC-PVTZ AUX)
    Blend: AUG-CC-PVTZ-RI
    Molecular point group: c1

    Geometry (in Angstrom), charge = 0, multiplicity = 1:

       Center              X                  Y                   Z               Mass
    ------------   -----------------  -----------------  -----------------  -----------------
         BR          -1.640761529342    -0.000000599441     0.001560793278    78.918337600000
         C            0.266630470658     0.000052400559     0.001626793278    12.000000000000
         C            0.947577470658     1.217594400559     0.001664793278    12.000000000000
         C            0.947534470658    -1.217561599441     0.001630793278    12.000000000000
         C            2.343690470658     1.208355400559     0.001709793278    12.000000000000
         C            2.343627470658    -1.208404599441     0.001676793278    12.000000000000
         C            3.044150470658    -0.000030599441     0.001714793278    12.000000000000
         H            0.394438470658     2.152608400559     0.001661793278     1.007825032230
         H            0.394308570658    -2.152511999441    -0.248400206722     1.007825032230
         H            2.882101470658     2.153085400559     0.001738793278     1.007825032230
         H            2.882018470658    -2.153148599441     0.001680793278     1.007825032230
         H            4.131172470658    -0.000050599441     0.001748793278     1.007825032230

  Basis Set: AUG-CC-PVTZ
    Blend: AUG-CC-PVTZ
  Basis Set: (AUG-CC-PVTZ AUX)
    Blend: AUG-CC-PVTZ-JKFIT
	 Reference Energy          =   -2802.6529172172236031 [Eh]
	 Singles Energy            =      -0.0000000000000000 [Eh]
	 Same-Spin Energy          =      -0.3496966556319165 [Eh]
	 Opposite-Spin Energy      =      -1.0134098640425666 [Eh]
	 Correlation Energy        =      -1.3631065196744832 [Eh]
	 Total Energy              =   -2804.0160237368982052 [Eh]

	 ================> DF-SCS-MP2 Energies <==================
	-----------------------------------------------------------
	 SCS Same-Spin Scale       =       0.3333333333333333 [-]
	 SCS Opposite-Spin Scale   =       1.2000000000000000 [-]
	 SCS Same-Spin Energy      =      -0.1165655518773055 [Eh]
	 SCS Opposite-Spin Energy  =      -1.2160918368510798 [Eh]
	 SCS Correlation Energy    =      -1.3326573887283852 [Eh]
	 SCS Total Energy          =   -2803.9855746059520243 [Eh]
	-----------------------------------------------------------

  Dipole Moment: [D]
     X:     1.7959      Y:     0.0377      Z:    -0.1504     Total:     1.8026

*** Psi4 exiting successfully. Buy a developer a beer!
