                               Psi4 1.3.2 release

  ==> Input File <==

--------------------------------------------------------------------------
#psi4
#
memory 32 gb

molecule  {
0 1
 Br       -1.8067700     0.0000000    -0.0000600
  C        0.1006220     0.0000530     0.0000060
  C        0.7815690     1.2175950     0.0000440
  C        0.7815260    -1.2175610     0.0000100
  C        2.1776820     1.2083560     0.0000890
  C        2.1776190    -1.2084040     0.0000560
  C        2.8781420    -0.0000300     0.0000940
  H        0.2284300     2.1526090     0.0000410
  H        0.2283017    -2.1525107    -0.3000210
  H        2.7160930     2.1530860     0.0001180
  H        2.7160100    -2.1531480     0.0000600
  H        3.9651640    -0.0000500     0.0001280
units angstrom
no_reorient  #important for SAPT in psi4, default
symmetry c1  #important for SAPT in psi4, default
}

set PROPERTIES_ORIGIN ["COM"]
properties('MP2/aug-cc-pvtz', properties = ['dipole'])
--------------------------------------------------------------------------

    Molecular point group: c1
  Charge       = 0
  Multiplicity = 1
  Basis Set: AUG-CC-PVTZ
    Blend: AUG-CC-PVTZ
  Basis Set: (AUG-CC-PVTZ AUX)
    Blend: AUG-CC-PVTZ-JKFIT

    Orbital Energies [Eh]
    ---------------------

    Doubly Occupied:

       1A   -490.024742     2A    -65.164485     3A    -58.519794
       4A    -58.518414     5A    -58.518387     6A    -11.304219
       7A    -11.258727     8A    -11.255857     9A    -11.254179
      10A    -11.253983    11A    -11.250535    12A     -9.837220
      13A     -7.448796    14A     -7.442047    15A     -7.441987
      16A     -3.192549    17A     -3.189044    18A     -3.188827
      19A     -3.180197    20A     -3.180189    21A     -1.174700
      22A     -1.070003    23A     -1.032099    24A     -0.974003
      25A     -0.843977    26A     -0.817165    27A     -0.706735
      28A     -0.644897    29A     -0.641670    30A     -0.601894
      31A     -0.573421    32A     -0.534811    33A     -0.511314
      34A     -0.490710    35A     -0.438689    36A     -0.416364
      37A     -0.352918    38A     -0.335437

  @DF-RHF Final Energy: -2802.65087137121918

   => Energetics <=

    Nuclear Repulsion Energy =            429.9094400283283903
    One-Electron Energy =               -4747.9506564407656697
    Two-Electron Energy =                1515.3903450412183247
    Total Energy =                      -2802.6508713712191820
  Basis Set: (AUG-CC-PVTZ AUX)
    Blend: AUG-CC-PVTZ-RI
    Molecular point group: c1

    Geometry (in Angstrom), charge = 0, multiplicity = 1:

       Center              X                  Y                   Z               Mass
    ------------   -----------------  -----------------  -----------------  -----------------
         BR          -1.640761539682    -0.000000603965     0.001883902226    78.918337600000
         C            0.266630460318     0.000052396035     0.001949902226    12.000000000000
         C            0.947577460318     1.217594396035     0.001987902226    12.000000000000
         C            0.947534460318    -1.217561603965     0.001953902226    12.000000000000
         C            2.343690460318     1.208355396035     0.002032902226    12.000000000000
         C            2.343627460318    -1.208404603965     0.001999902226    12.000000000000
         C            3.044150460318    -0.000030603965     0.002037902226    12.000000000000
         H            0.394438460318     2.152608396035     0.001984902226     1.007825032230
         H            0.394310160318    -2.152511303965    -0.298077097774     1.007825032230
         H            2.882101460318     2.153085396035     0.002061902226     1.007825032230
         H            2.882018460318    -2.153148603965     0.002003902226     1.007825032230
         H            4.131172460318    -0.000050603965     0.002071902226     1.007825032230

  Basis Set: AUG-CC-PVTZ
    Blend: AUG-CC-PVTZ
  Basis Set: (AUG-CC-PVTZ AUX)
    Blend: AUG-CC-PVTZ-JKFIT
	 Reference Energy          =   -2802.6508713712191820 [Eh]
	 Singles Energy            =      -0.0000000000000000 [Eh]
	 Same-Spin Energy          =      -0.3497907151223172 [Eh]
	 Opposite-Spin Energy      =      -1.0136429216551337 [Eh]
	 Correlation Energy        =      -1.3634336367774509 [Eh]
	 Total Energy              =   -2804.0143050079964269 [Eh]

	 ================> DF-SCS-MP2 Energies <==================
	-----------------------------------------------------------
	 SCS Same-Spin Scale       =       0.3333333333333333 [-]
	 SCS Opposite-Spin Scale   =       1.2000000000000000 [-]
	 SCS Same-Spin Energy      =      -0.1165969050407724 [Eh]
	 SCS Opposite-Spin Energy  =      -1.2163715059861604 [Eh]
	 SCS Correlation Energy    =      -1.3329684110269329 [Eh]
	 SCS Total Energy          =   -2803.9838397822459228 [Eh]
	-----------------------------------------------------------

  Dipole Moment: [D]
     X:     1.8051      Y:     0.0538      Z:    -0.1795     Total:     1.8148

*** Psi4 exiting successfully. Buy a developer a beer!
