                               Psi4 1.3.2 release

  ==> Input File <==

--------------------------------------------------------------------------
#psi4
#
memory 32 gb

molecule  {
0 1
 Br       -1.8067700     0.0000000    -0.0000600
  C        0.1006220     0.0000530     0.0000060
  C        0.7815690     1.2175950     0.0000440
  C        0.7815260    -1.2175610     0.0000100
  C        2.1776820     1.2083560     0.0000890
  C        2.1776190    -1.2084040     0.0000560
  C        2.8781420    -0.0000300     0.0000940
  H        0.2284300     2.1526090     0.0000410
  H        0.2282920    -2.1525150    -0.0000210
  H        2.7160930     2.1530860     0.0001180
  H        2.7160197    -2.1531440    -0.2999400
  H        3.9651640    -0.0000500     0.0001280
units angstrom
no_reorient  #important for SAPT in psi4, default
symmetry c1  #important for SAPT in psi4, default
}

set PROPERTIES_ORIGIN ["COM"]
properties('MP2/aug-cc-pvtz', properties = ['dipole'])
--------------------------------------------------------------------------

    Molecular point group: c1
  Charge       = 0
  Multiplicity = 1
  Basis Set: AUG-CC-PVTZ
    Blend: AUG-CC-PVTZ
  Basis Set: (AUG-CC-PVTZ AUX)
    Blend: AUG-CC-PVTZ-JKFIT

    Orbital Energies [Eh]
    ---------------------

    Doubly Occupied:

       1A   -490.024951     2A    -65.164692     3A    -58.520002
       4A    -58.518620     5A    -58.518599     6A    -11.303873
       7A    -11.257294     8A    -11.256386     9A    -11.255817
      10A    -11.253696    11A    -11.251065    12A     -9.837425
      13A     -7.449000    14A     -7.442235    15A     -7.442218
      16A     -3.192750    17A     -3.189235    18A     -3.189048
      19A     -3.180409    20A     -3.180402    21A     -1.174889
      22A     -1.069933    23A     -1.032258    24A     -0.974363
      25A     -0.843887    26A     -0.816625    27A     -0.709006
      28A     -0.645005    29A     -0.639538    30A     -0.602186
      31A     -0.574277    32A     -0.534888    33A     -0.511975
      34A     -0.490868    35A     -0.438208    36A     -0.416640
      37A     -0.352921    38A     -0.335545

  @DF-RHF Final Energy: -2802.65083333722214

   => Energetics <=

    Nuclear Repulsion Energy =            429.9333074547686806
    One-Electron Energy =               -4747.9868279636493753
    Two-Electron Energy =                1515.4026871716587266
    Total Energy =                      -2802.6508333372221387
  Basis Set: (AUG-CC-PVTZ AUX)
    Blend: AUG-CC-PVTZ-RI
    Molecular point group: c1

    Geometry (in Angstrom), charge = 0, multiplicity = 1:

       Center              X                  Y                   Z               Mass
    ------------   -----------------  -----------------  -----------------  -----------------
         BR          -1.640761539682    -0.000000602026     0.001883902226    78.918337600000
         C            0.266630460318     0.000052397974     0.001949902226    12.000000000000
         C            0.947577460318     1.217594397974     0.001987902226    12.000000000000
         C            0.947534460318    -1.217561602026     0.001953902226    12.000000000000
         C            2.343690460318     1.208355397974     0.002032902226    12.000000000000
         C            2.343627460318    -1.208404602026     0.001999902226    12.000000000000
         C            3.044150460318    -0.000030602026     0.002037902226    12.000000000000
         H            0.394438460318     2.152608397974     0.001984902226     1.007825032230
         H            0.394300460318    -2.152515602026     0.001922902226     1.007825032230
         H            2.882101460318     2.153085397974     0.002061902226     1.007825032230
         H            2.882028160318    -2.153144602026    -0.297996097774     1.007825032230
         H            4.131172460318    -0.000050602026     0.002071902226     1.007825032230

  Basis Set: AUG-CC-PVTZ
    Blend: AUG-CC-PVTZ
  Basis Set: (AUG-CC-PVTZ AUX)
    Blend: AUG-CC-PVTZ-JKFIT
	 Reference Energy          =   -2802.6508333372221387 [Eh]
	 Singles Energy            =      -0.0000000000000000 [Eh]
	 Same-Spin Energy          =      -0.3497643108023514 [Eh]
	 Opposite-Spin Energy      =      -1.0136929264444396 [Eh]
	 Correlation Energy        =      -1.3634572372467910 [Eh]
	 Total Energy              =   -2804.0142905744687596 [Eh]

	 ================> DF-SCS-MP2 Energies <==================
	-----------------------------------------------------------
	 SCS Same-Spin Scale       =       0.3333333333333333 [-]
	 SCS Opposite-Spin Scale   =       1.2000000000000000 [-]
	 SCS Same-Spin Energy      =      -0.1165881036007838 [Eh]
	 SCS Opposite-Spin Energy  =      -1.2164315117333275 [Eh]
	 SCS Correlation Energy    =      -1.3330196153341114 [Eh]
	 SCS Total Energy          =   -2803.9838529525563899 [Eh]
	-----------------------------------------------------------

  Dipole Moment: [D]
     X:     1.7366      Y:     0.0616      Z:    -0.1824     Total:     1.7473

*** Psi4 exiting successfully. Buy a developer a beer!
