                               Psi4 1.3.2 release

  ==> Input File <==

--------------------------------------------------------------------------
#psi4
#
memory 32 gb

molecule  {
0 1
 Br       -1.8067700     0.0000000    -0.0000600
  C        0.1006220     0.0000530     0.0000060
  C        0.7815690     1.2175950     0.0000440
  C        0.7815260    -1.2175610     0.0000100
  C        2.1776820     1.2083560     0.0000890
  C        2.1776190    -1.2084040     0.0000560
  C        2.8781420    -0.0000300     0.0000940
  H        0.2284300     2.1526090     0.0000410
  H        0.2282952    -2.1525136    -0.1000210
  H        2.7160930     2.1530860     0.0001180
  H        2.7160100    -2.1531480     0.0000600
  H        3.9651640    -0.0000500     0.0001280
units angstrom
no_reorient  #important for SAPT in psi4, default
symmetry c1  #important for SAPT in psi4, default
}

set PROPERTIES_ORIGIN ["COM"]
properties('MP2/aug-cc-pvtz', properties = ['dipole'])
--------------------------------------------------------------------------

    Molecular point group: c1
  Charge       = 0
  Multiplicity = 1
  Basis Set: AUG-CC-PVTZ
    Blend: AUG-CC-PVTZ
  Basis Set: (AUG-CC-PVTZ AUX)
    Blend: AUG-CC-PVTZ-JKFIT

    Orbital Energies [Eh]
    ---------------------

    Doubly Occupied:

       1A   -490.024739     2A    -65.164479     3A    -58.519789
       4A    -58.518408     5A    -58.518386     6A    -11.303665
       7A    -11.255920     8A    -11.255598     9A    -11.253539
      10A    -11.253312    11A    -11.250317    12A     -9.837211
      13A     -7.448785    14A     -7.442027    15A     -7.441999
      16A     -3.192535    17A     -3.189023    18A     -3.188831
      19A     -3.180196    20A     -3.180189    21A     -1.174575
      22A     -1.069861    23A     -1.032673    24A     -0.974093
      25A     -0.845229    26A     -0.817624    27A     -0.709334
      28A     -0.644649    29A     -0.643551    30A     -0.604499
      31A     -0.573807    32A     -0.533144    33A     -0.515332
      34A     -0.491243    35A     -0.438603    36A     -0.416444
      37A     -0.353261    38A     -0.335351

  @DF-RHF Final Energy: -2802.65650268238096

   => Energetics <=

    Nuclear Repulsion Energy =            430.0661577905189574
    One-Electron Energy =               -4748.2608703108016925
    Two-Electron Energy =                1515.5382098379013769
    Total Energy =                      -2802.6565026823809603
  Basis Set: (AUG-CC-PVTZ AUX)
    Blend: AUG-CC-PVTZ-RI
    Molecular point group: c1

    Geometry (in Angstrom), charge = 0, multiplicity = 1:

       Center              X                  Y                   Z               Mass
    ------------   -----------------  -----------------  -----------------  -----------------
         BR          -1.640761497678    -0.000000585224     0.000591466437    78.918337600000
         C            0.266630502322     0.000052414776     0.000657466437    12.000000000000
         C            0.947577502322     1.217594414776     0.000695466437    12.000000000000
         C            0.947534502322    -1.217561585224     0.000661466437    12.000000000000
         C            2.343690502322     1.208355414776     0.000740466437    12.000000000000
         C            2.343627502322    -1.208404585224     0.000707466437    12.000000000000
         C            3.044150502322    -0.000030585224     0.000745466437    12.000000000000
         H            0.394438502322     2.152608414776     0.000692466437     1.007825032230
         H            0.394303702322    -2.152514185224    -0.099369533563     1.007825032230
         H            2.882101502322     2.153085414776     0.000769466437     1.007825032230
         H            2.882018502322    -2.153148585224     0.000711466437     1.007825032230
         H            4.131172502322    -0.000050585224     0.000779466437     1.007825032230

  Basis Set: AUG-CC-PVTZ
    Blend: AUG-CC-PVTZ
  Basis Set: (AUG-CC-PVTZ AUX)
    Blend: AUG-CC-PVTZ-JKFIT
	 Reference Energy          =   -2802.6565026823809603 [Eh]
	 Singles Energy            =      -0.0000000000000000 [Eh]
	 Same-Spin Energy          =      -0.3495169209678302 [Eh]
	 Opposite-Spin Energy      =      -1.0129911129335323 [Eh]
	 Correlation Energy        =      -1.3625080339013624 [Eh]
	 Total Energy              =   -2804.0190107162825370 [Eh]

	 ================> DF-SCS-MP2 Energies <==================
	-----------------------------------------------------------
	 SCS Same-Spin Scale       =       0.3333333333333333 [-]
	 SCS Opposite-Spin Scale   =       1.2000000000000000 [-]
	 SCS Same-Spin Energy      =      -0.1165056403226100 [Eh]
	 SCS Opposite-Spin Energy  =      -1.2155893355202387 [Eh]
	 SCS Correlation Energy    =      -1.3320949758428489 [Eh]
	 SCS Total Energy          =   -2803.9885976582236253 [Eh]
	-----------------------------------------------------------

  Dipole Moment: [D]
     X:     1.7779      Y:     0.0062      Z:    -0.0608     Total:     1.7790

*** Psi4 exiting successfully. Buy a developer a beer!
