                               Psi4 1.3.2 release

  ==> Input File <==

--------------------------------------------------------------------------
#psi4
#
memory 32 gb

molecule  {
0 1
 Br       -1.8067700     0.0000000    -0.0000600
  C        0.1006220     0.0000530     0.0000060
  C        0.7815690     1.2175950     0.0000440
  C        0.7815260    -1.2175610     0.0000100
  C        2.1776820     1.2083560     0.0000890
  C        2.1776190    -1.2084040     0.0000560
  C        2.8781420    -0.0000300     0.0000940
  H        0.2284300     2.1526090     0.0000410
  H        0.2282985    -2.1525121    -0.2000210
  H        2.7160930     2.1530860     0.0001180
  H        2.7160100    -2.1531480     0.0000600
  H        3.9651640    -0.0000500     0.0001280
units angstrom
no_reorient  #important for SAPT in psi4, default
symmetry c1  #important for SAPT in psi4, default
}

set PROPERTIES_ORIGIN ["COM"]
properties('MP2/aug-cc-pvtz', properties = ['dipole'])
--------------------------------------------------------------------------

    Molecular point group: c1
  Charge       = 0
  Multiplicity = 1
  Basis Set: AUG-CC-PVTZ
    Blend: AUG-CC-PVTZ
  Basis Set: (AUG-CC-PVTZ AUX)
    Blend: AUG-CC-PVTZ-JKFIT

    Orbital Energies [Eh]
    ---------------------

    Doubly Occupied:

       1A   -490.024739     2A    -65.164481     3A    -58.519790
       4A    -58.518409     5A    -58.518385     6A    -11.303872
       7A    -11.256978     8A    -11.255690     9A    -11.253786
      10A    -11.253570    11A    -11.250397    12A     -9.837214
      13A     -7.448789    14A     -7.442036    15A     -7.441992
      16A     -3.192540    17A     -3.189031    18A     -3.188828
      19A     -3.180196    20A     -3.180189    21A     -1.174617
      22A     -1.069911    23A     -1.032440    24A     -0.974054
      25A     -0.844717    26A     -0.817442    27A     -0.708283
      28A     -0.644737    29A     -0.642809    30A     -0.603526
      31A     -0.573674    32A     -0.533845    33A     -0.513732
      34A     -0.491073    35A     -0.438634    36A     -0.416413
      37A     -0.353125    38A     -0.335381

  @DF-RHF Final Energy: -2802.65450969067615

   => Energetics <=

    Nuclear Repulsion Energy =            430.0061848343440261
    One-Electron Energy =               -4748.1427371410818523
    Two-Electron Energy =                1515.4820426160617899
    Total Energy =                      -2802.6545096906761501
  Basis Set: (AUG-CC-PVTZ AUX)
    Blend: AUG-CC-PVTZ-RI
    Molecular point group: c1

    Geometry (in Angstrom), charge = 0, multiplicity = 1:

       Center              X                  Y                   Z               Mass
    ------------   -----------------  -----------------  -----------------  -----------------
         BR          -1.640761519003    -0.000000594918     0.001237684331    78.918337600000
         C            0.266630480997     0.000052405082     0.001303684331    12.000000000000
         C            0.947577480997     1.217594405082     0.001341684331    12.000000000000
         C            0.947534480997    -1.217561594918     0.001307684331    12.000000000000
         C            2.343690480997     1.208355405082     0.001386684331    12.000000000000
         C            2.343627480997    -1.208404594918     0.001353684331    12.000000000000
         C            3.044150480997    -0.000030594918     0.001391684331    12.000000000000
         H            0.394438480997     2.152608405082     0.001338684331     1.007825032230
         H            0.394306980997    -2.152512694918    -0.198723315669     1.007825032230
         H            2.882101480997     2.153085405082     0.001415684331     1.007825032230
         H            2.882018480997    -2.153148594918     0.001357684331     1.007825032230
         H            4.131172480997    -0.000050594918     0.001425684331     1.007825032230

  Basis Set: AUG-CC-PVTZ
    Blend: AUG-CC-PVTZ
  Basis Set: (AUG-CC-PVTZ AUX)
    Blend: AUG-CC-PVTZ-JKFIT
	 Reference Energy          =   -2802.6545096906761501 [Eh]
	 Singles Energy            =      -0.0000000000000000 [Eh]
	 Same-Spin Energy          =      -0.3496193795060367 [Eh]
	 Opposite-Spin Energy      =      -1.0132247772858702 [Eh]
	 Correlation Energy        =      -1.3628441567919070 [Eh]
	 Total Energy              =   -2804.0173538474682573 [Eh]

	 ================> DF-SCS-MP2 Energies <==================
	-----------------------------------------------------------
	 SCS Same-Spin Scale       =       0.3333333333333333 [-]
	 SCS Opposite-Spin Scale   =       1.2000000000000000 [-]
	 SCS Same-Spin Energy      =      -0.1165397931686789 [Eh]
	 SCS Opposite-Spin Energy  =      -1.2158697327430443 [Eh]
	 SCS Correlation Energy    =      -1.3324095259117232 [Eh]
	 SCS Total Energy          =   -2803.9869192165879213 [Eh]
	-----------------------------------------------------------

  Dipole Moment: [D]
     X:     1.7883      Y:     0.0243      Z:    -0.1209     Total:     1.7925

*** Psi4 exiting successfully. Buy a developer a beer!
