                               Psi4 1.3.2 release

  ==> Input File <==

--------------------------------------------------------------------------
#psi4
#
memory 32 gb

molecule  {
0 1
 Br       -1.8067700     0.0000000    -0.0000600
  C        0.1006220     0.0000530     0.0000060
  C        0.7815690     1.2175950     0.0000440
  C        0.7815327    -1.2175582    -0.1999900
  C        2.1776820     1.2083560     0.0000890
  C        2.1776190    -1.2084040     0.0000560
  C        2.8781420    -0.0000300     0.0000940
  H        0.2284300     2.1526090     0.0000410
  H        0.2282920    -2.1525150    -0.0000210
  H        2.7160930     2.1530860     0.0001180
  H        2.7160100    -2.1531480     0.0000600
  H        3.9651640    -0.0000500     0.0001280
units angstrom
no_reorient  #important for SAPT in psi4, default
symmetry c1  #important for SAPT in psi4, default
}

set PROPERTIES_ORIGIN ["COM"]
properties('MP2/aug-cc-pvtz', properties = ['dipole'])
--------------------------------------------------------------------------

    Molecular point group: c1
  Charge       = 0
  Multiplicity = 1
  Basis Set: AUG-CC-PVTZ
    Blend: AUG-CC-PVTZ
  Basis Set: (AUG-CC-PVTZ AUX)
    Blend: AUG-CC-PVTZ-JKFIT

    Orbital Energies [Eh]
    ---------------------

    Doubly Occupied:

       1A   -490.024863     2A    -65.164620     3A    -58.519924
       4A    -58.518548     5A    -58.518521     6A    -11.306831
       7A    -11.258768     8A    -11.256682     9A    -11.255910
      10A    -11.254644    11A    -11.250070    12A     -9.837371
      13A     -7.448940    14A     -7.442194    15A     -7.442148
      16A     -3.192690    17A     -3.189188    18A     -3.188971
      19A     -3.180356    20A     -3.180350    21A     -1.173182
      22A     -1.069775    23A     -1.031164    24A     -0.973652
      25A     -0.844334    26A     -0.815475    27A     -0.707141
      28A     -0.643604    29A     -0.641134    30A     -0.601933
      31A     -0.573407    32A     -0.531947    33A     -0.512462
      34A     -0.490800    35A     -0.437942    36A     -0.416225
      37A     -0.353116    38A     -0.334722

  @DF-RHF Final Energy: -2802.64479094930130

   => Energetics <=

    Nuclear Repulsion Energy =            429.5866814030840146
    One-Electron Energy =               -4747.2957406412788259
    Two-Electron Energy =                1515.0642682888935724
    Total Energy =                      -2802.6447909493008410
  Basis Set: (AUG-CC-PVTZ AUX)
    Blend: AUG-CC-PVTZ-RI
    Molecular point group: c1

    Geometry (in Angstrom), charge = 0, multiplicity = 1:

       Center              X                  Y                   Z               Mass
    ------------   -----------------  -----------------  -----------------  -----------------
         BR          -1.640761992524    -0.000000791621     0.015334060065    78.918337600000
         C            0.266630007476     0.000052208379     0.015400060065    12.000000000000
         C            0.947577007476     1.217594208379     0.015438060065    12.000000000000
         C            0.947540707476    -1.217558991621    -0.184595939935    12.000000000000
         C            2.343690007476     1.208355208379     0.015483060065    12.000000000000
         C            2.343627007476    -1.208404791621     0.015450060065    12.000000000000
         C            3.044150007476    -0.000030791621     0.015488060065    12.000000000000
         H            0.394438007476     2.152608208379     0.015435060065     1.007825032230
         H            0.394300007476    -2.152515791621     0.015373060065     1.007825032230
         H            2.882101007476     2.153085208379     0.015512060065     1.007825032230
         H            2.882018007476    -2.153148791621     0.015454060065     1.007825032230
         H            4.131172007476    -0.000050791621     0.015522060065     1.007825032230

  Basis Set: AUG-CC-PVTZ
    Blend: AUG-CC-PVTZ
  Basis Set: (AUG-CC-PVTZ AUX)
    Blend: AUG-CC-PVTZ-JKFIT
	 Reference Energy          =   -2802.6447909493012958 [Eh]
	 Singles Energy            =      -0.0000000000000000 [Eh]
	 Same-Spin Energy          =      -0.3500504348180485 [Eh]
	 Opposite-Spin Energy      =      -1.0147534243455123 [Eh]
	 Correlation Energy        =      -1.3648038591635610 [Eh]
	 Total Energy              =   -2804.0095948084649535 [Eh]

	 ================> DF-SCS-MP2 Energies <==================
	-----------------------------------------------------------
	 SCS Same-Spin Scale       =       0.3333333333333333 [-]
	 SCS Opposite-Spin Scale   =       1.2000000000000000 [-]
	 SCS Same-Spin Energy      =      -0.1166834782726828 [Eh]
	 SCS Opposite-Spin Energy  =      -1.2177041092146148 [Eh]
	 SCS Correlation Energy    =      -1.3343875874872977 [Eh]
	 SCS Total Energy          =   -2803.9791785367883676 [Eh]
	-----------------------------------------------------------

  Dipole Moment: [D]
     X:     1.8158      Y:     0.0715      Z:     0.0881     Total:     1.8193

*** Psi4 exiting successfully. Buy a developer a beer!
