                               Psi4 1.3.2 release

  ==> Input File <==

--------------------------------------------------------------------------
#psi4
#
memory 32 gb

molecule  {
0 1
 Br       -1.8067700     0.0000000    -0.0000600
  C        0.1006220     0.0000530     0.0000060
  C        0.7815690     1.2175950     0.0000440
  C        0.7815344    -1.2175575    -0.2499900
  C        2.1776820     1.2083560     0.0000890
  C        2.1776190    -1.2084040     0.0000560
  C        2.8781420    -0.0000300     0.0000940
  H        0.2284300     2.1526090     0.0000410
  H        0.2282920    -2.1525150    -0.0000210
  H        2.7160930     2.1530860     0.0001180
  H        2.7160100    -2.1531480     0.0000600
  H        3.9651640    -0.0000500     0.0001280
units angstrom
no_reorient  #important for SAPT in psi4, default
symmetry c1  #important for SAPT in psi4, default
}

set PROPERTIES_ORIGIN ["COM"]
properties('MP2/aug-cc-pvtz', properties = ['dipole'])
--------------------------------------------------------------------------

    Molecular point group: c1
  Charge       = 0
  Multiplicity = 1
  Basis Set: AUG-CC-PVTZ
    Blend: AUG-CC-PVTZ
  Basis Set: (AUG-CC-PVTZ AUX)
    Blend: AUG-CC-PVTZ-JKFIT

    Orbital Energies [Eh]
    ---------------------

    Doubly Occupied:

       1A   -490.024960     2A    -65.164720     3A    -58.520023
       4A    -58.518649     5A    -58.518619     6A    -11.308606
       7A    -11.260497     8A    -11.258534     9A    -11.256831
      10A    -11.254751    11A    -11.249951    12A     -9.837476
      13A     -7.449041    14A     -7.442305    15A     -7.442243
      16A     -3.192792    17A     -3.189297    18A     -3.189064
      19A     -3.180461    20A     -3.180454    21A     -1.172464
      22A     -1.069768    23A     -1.030291    24A     -0.973387
      25A     -0.843800    26A     -0.814333    27A     -0.705957
      28A     -0.643492    29A     -0.639319    30A     -0.600406
      31A     -0.573090    32A     -0.531534    33A     -0.510388
      34A     -0.490481    35A     -0.437608    36A     -0.416095
      37A     -0.353082    38A     -0.334410

  @DF-RHF Final Energy: -2802.63773816524645

   => Energetics <=

    Nuclear Repulsion Energy =            429.3108444673309805
    One-Electron Energy =               -4746.7388062653171801
    Two-Electron Energy =                1514.7902236327399805
    Total Energy =                      -2802.6377381652464464
  Basis Set: (AUG-CC-PVTZ AUX)
    Blend: AUG-CC-PVTZ-RI
    Molecular point group: c1

    Geometry (in Angstrom), charge = 0, multiplicity = 1:

       Center              X                  Y                   Z               Mass
    ------------   -----------------  -----------------  -----------------  -----------------
         BR          -1.640762123329    -0.000000845481     0.019181262945    78.918337600000
         C            0.266629876671     0.000052154519     0.019247262945    12.000000000000
         C            0.947576876671     1.217594154519     0.019285262945    12.000000000000
         C            0.947542276671    -1.217558345481    -0.230748737055    12.000000000000
         C            2.343689876671     1.208355154519     0.019330262945    12.000000000000
         C            2.343626876671    -1.208404845481     0.019297262945    12.000000000000
         C            3.044149876671    -0.000030845481     0.019335262945    12.000000000000
         H            0.394437876671     2.152608154519     0.019282262945     1.007825032230
         H            0.394299876671    -2.152515845481     0.019220262945     1.007825032230
         H            2.882100876671     2.153085154519     0.019359262945     1.007825032230
         H            2.882017876671    -2.153148845481     0.019301262945     1.007825032230
         H            4.131171876671    -0.000050845481     0.019369262945     1.007825032230

  Basis Set: AUG-CC-PVTZ
    Blend: AUG-CC-PVTZ
  Basis Set: (AUG-CC-PVTZ AUX)
    Blend: AUG-CC-PVTZ-JKFIT
	 Reference Energy          =   -2802.6377381652464464 [Eh]
	 Singles Energy            =      -0.0000000000000000 [Eh]
	 Same-Spin Energy          =      -0.3503871625649014 [Eh]
	 Opposite-Spin Energy      =      -1.0157970649646848 [Eh]
	 Correlation Energy        =      -1.3661842275295861 [Eh]
	 Total Energy              =   -2804.0039223927760759 [Eh]

	 ================> DF-SCS-MP2 Energies <==================
	-----------------------------------------------------------
	 SCS Same-Spin Scale       =       0.3333333333333333 [-]
	 SCS Opposite-Spin Scale   =       1.2000000000000000 [-]
	 SCS Same-Spin Energy      =      -0.1167957208549671 [Eh]
	 SCS Opposite-Spin Energy  =      -1.2189564779576216 [Eh]
	 SCS Correlation Energy    =      -1.3357521988125887 [Eh]
	 SCS Total Energy          =   -2803.9734903640592165 [Eh]
	-----------------------------------------------------------

  Dipole Moment: [D]
     X:     1.8385      Y:     0.1108      Z:     0.1127     Total:     1.8452

*** Psi4 exiting successfully. Buy a developer a beer!
