                               Psi4 1.3.2 release

  ==> Input File <==

--------------------------------------------------------------------------
#psi4
#
memory 32 gb

molecule  {
0 1
 Br       -1.8067700     0.0000000    -0.0000600
  C        0.1006220     0.0000530     0.0000060
  C        0.7815690     1.2175950     0.0000440
  C        0.7815310    -1.2175589    -0.1499900
  C        2.1776820     1.2083560     0.0000890
  C        2.1776190    -1.2084040     0.0000560
  C        2.8781420    -0.0000300     0.0000940
  H        0.2284300     2.1526090     0.0000410
  H        0.2282920    -2.1525150    -0.0000210
  H        2.7160930     2.1530860     0.0001180
  H        2.7160100    -2.1531480     0.0000600
  H        3.9651640    -0.0000500     0.0001280
units angstrom
no_reorient  #important for SAPT in psi4, default
symmetry c1  #important for SAPT in psi4, default
}

set PROPERTIES_ORIGIN ["COM"]
properties('MP2/aug-cc-pvtz', properties = ['dipole'])
--------------------------------------------------------------------------

    Molecular point group: c1
  Charge       = 0
  Multiplicity = 1
  Basis Set: AUG-CC-PVTZ
    Blend: AUG-CC-PVTZ
  Basis Set: (AUG-CC-PVTZ AUX)
    Blend: AUG-CC-PVTZ-JKFIT

    Orbital Energies [Eh]
    ---------------------

    Doubly Occupied:

       1A   -490.024793     2A    -65.164546     3A    -58.519852
       4A    -58.518474     5A    -58.518449     6A    -11.305422
       7A    -11.257382     8A    -11.255569     9A    -11.255216
      10A    -11.254222    11A    -11.250166    12A     -9.837294
      13A     -7.448864    14A     -7.442112    15A     -7.442077
      16A     -3.192614    17A     -3.189107    18A     -3.188902
      19A     -3.180279    20A     -3.180272    21A     -1.173764
      22A     -1.069792    23A     -1.031849    24A     -0.973849
      25A     -0.844778    26A     -0.816408    27A     -0.708181
      28A     -0.643757    29A     -0.642544    30A     -0.603170
      31A     -0.573614    32A     -0.532319    33A     -0.514005
      34A     -0.491022    35A     -0.438214    36A     -0.416322
      37A     -0.353175    38A     -0.334978

  @DF-RHF Final Energy: -2802.65022897815243

   => Energetics <=

    Nuclear Repulsion Energy =            429.8038357738374771
    One-Electron Energy =               -4747.7334269997345473
    Two-Electron Energy =                1515.2793622477443023
    Total Energy =                      -2802.6502289781524269
  Basis Set: (AUG-CC-PVTZ AUX)
    Blend: AUG-CC-PVTZ-RI
    Molecular point group: c1

    Geometry (in Angstrom), charge = 0, multiplicity = 1:

       Center              X                  Y                   Z               Mass
    ------------   -----------------  -----------------  -----------------  -----------------
         BR          -1.640761861719    -0.000000737760     0.011486857184    78.918337600000
         C            0.266630138281     0.000052262240     0.011552857184    12.000000000000
         C            0.947577138281     1.217594262240     0.011590857184    12.000000000000
         C            0.947539138281    -1.217559637760    -0.138443142816    12.000000000000
         C            2.343690138281     1.208355262240     0.011635857184    12.000000000000
         C            2.343627138281    -1.208404737760     0.011602857184    12.000000000000
         C            3.044150138281    -0.000030737760     0.011640857184    12.000000000000
         H            0.394438138281     2.152608262240     0.011587857184     1.007825032230
         H            0.394300138281    -2.152515737760     0.011525857184     1.007825032230
         H            2.882101138281     2.153085262240     0.011664857184     1.007825032230
         H            2.882018138281    -2.153148737760     0.011606857184     1.007825032230
         H            4.131172138281    -0.000050737760     0.011674857184     1.007825032230

  Basis Set: AUG-CC-PVTZ
    Blend: AUG-CC-PVTZ
  Basis Set: (AUG-CC-PVTZ AUX)
    Blend: AUG-CC-PVTZ-JKFIT
	 Reference Energy          =   -2802.6502289781524269 [Eh]
	 Singles Energy            =      -0.0000000000000000 [Eh]
	 Same-Spin Energy          =      -0.3497879691900216 [Eh]
	 Opposite-Spin Energy      =      -1.0139358311395830 [Eh]
	 Correlation Energy        =      -1.3637238003296046 [Eh]
	 Total Energy              =   -2804.0139527784822349 [Eh]

	 ================> DF-SCS-MP2 Energies <==================
	-----------------------------------------------------------
	 SCS Same-Spin Scale       =       0.3333333333333333 [-]
	 SCS Opposite-Spin Scale   =       1.2000000000000000 [-]
	 SCS Same-Spin Energy      =      -0.1165959897300072 [Eh]
	 SCS Opposite-Spin Energy  =      -1.2167229973674996 [Eh]
	 SCS Correlation Energy    =      -1.3333189870975068 [Eh]
	 SCS Total Energy          =   -2803.9835479652497270 [Eh]
	-----------------------------------------------------------

  Dipole Moment: [D]
     X:     1.7979      Y:     0.0406      Z:     0.0648     Total:     1.7995

*** Psi4 exiting successfully. Buy a developer a beer!
