                               Psi4 1.3.2 release

  ==> Input File <==

--------------------------------------------------------------------------
#psi4
#
memory 32 gb

molecule  {
0 1
 Br       -1.8067700     0.0000000    -0.0000600
  C        0.1006220     0.0000530     0.0000060
  C        0.7815690     1.2175950     0.0000440
  C        0.7815294    -1.2175596    -0.0999900
  C        2.1776820     1.2083560     0.0000890
  C        2.1776190    -1.2084040     0.0000560
  C        2.8781420    -0.0000300     0.0000940
  H        0.2284300     2.1526090     0.0000410
  H        0.2282920    -2.1525150    -0.0000210
  H        2.7160930     2.1530860     0.0001180
  H        2.7160100    -2.1531480     0.0000600
  H        3.9651640    -0.0000500     0.0001280
units angstrom
no_reorient  #important for SAPT in psi4, default
symmetry c1  #important for SAPT in psi4, default
}

set PROPERTIES_ORIGIN ["COM"]
properties('MP2/aug-cc-pvtz', properties = ['dipole'])
--------------------------------------------------------------------------

    Molecular point group: c1
  Charge       = 0
  Multiplicity = 1
  Basis Set: AUG-CC-PVTZ
    Blend: AUG-CC-PVTZ
  Basis Set: (AUG-CC-PVTZ AUX)
    Blend: AUG-CC-PVTZ-JKFIT

    Orbital Energies [Eh]
    ---------------------

    Doubly Occupied:

       1A   -490.024751     2A    -65.164500     3A    -58.519807
       4A    -58.518428     5A    -58.518404     6A    -11.304405
       7A    -11.256373     8A    -11.255527     9A    -11.254181
      10A    -11.253730    11A    -11.250234    12A     -9.837242
      13A     -7.448814    14A     -7.442056    15A     -7.442030
      16A     -3.192564    17A     -3.189053    18A     -3.188856
      19A     -3.180227    20A     -3.180221    21A     -1.174195
      22A     -1.069812    23A     -1.032344    24A     -0.973988
      25A     -0.845117    26A     -0.817103    27A     -0.708997
      28A     -0.644014    29A     -0.643443    30A     -0.604075
      31A     -0.573744    32A     -0.532619    33A     -0.515066
      34A     -0.491171    35A     -0.438417    36A     -0.416392
      37A     -0.353237    38A     -0.335171

  @DF-RHF Final Energy: -2802.65408088964705

   => Energetics <=

    Nuclear Repulsion Energy =            429.9603787146211857
    One-Electron Energy =               -4748.0483111134853971
    Two-Electron Energy =                1515.4338515092167654
    Total Energy =                      -2802.6540808896470480
  Basis Set: (AUG-CC-PVTZ AUX)
    Blend: AUG-CC-PVTZ-RI
    Molecular point group: c1

    Geometry (in Angstrom), charge = 0, multiplicity = 1:

       Center              X                  Y                   Z               Mass
    ------------   -----------------  -----------------  -----------------  -----------------
         BR          -1.640761738608    -0.000000683899     0.007639654303    78.918337600000
         C            0.266630261392     0.000052316101     0.007705654303    12.000000000000
         C            0.947577261392     1.217594316101     0.007743654303    12.000000000000
         C            0.947537661392    -1.217560283899    -0.092290345697    12.000000000000
         C            2.343690261392     1.208355316101     0.007788654303    12.000000000000
         C            2.343627261392    -1.208404683899     0.007755654303    12.000000000000
         C            3.044150261392    -0.000030683899     0.007793654303    12.000000000000
         H            0.394438261392     2.152608316101     0.007740654303     1.007825032230
         H            0.394300261392    -2.152515683899     0.007678654303     1.007825032230
         H            2.882101261392     2.153085316101     0.007817654303     1.007825032230
         H            2.882018261392    -2.153148683899     0.007759654303     1.007825032230
         H            4.131172261392    -0.000050683899     0.007827654303     1.007825032230

  Basis Set: AUG-CC-PVTZ
    Blend: AUG-CC-PVTZ
  Basis Set: (AUG-CC-PVTZ AUX)
    Blend: AUG-CC-PVTZ-JKFIT
	 Reference Energy          =   -2802.6540808896470480 [Eh]
	 Singles Energy            =      -0.0000000000000000 [Eh]
	 Same-Spin Energy          =      -0.3496049539176657 [Eh]
	 Opposite-Spin Energy      =      -1.0133530896298444 [Eh]
	 Correlation Energy        =      -1.3629580435475099 [Eh]
	 Total Energy              =   -2804.0170389331947263 [Eh]

	 ================> DF-SCS-MP2 Energies <==================
	-----------------------------------------------------------
	 SCS Same-Spin Scale       =       0.3333333333333333 [-]
	 SCS Opposite-Spin Scale   =       1.2000000000000000 [-]
	 SCS Same-Spin Energy      =      -0.1165349846392219 [Eh]
	 SCS Opposite-Spin Energy  =      -1.2160237075558131 [Eh]
	 SCS Correlation Energy    =      -1.3325586921950350 [Eh]
	 SCS Total Energy          =   -2803.9866395818421552 [Eh]
	-----------------------------------------------------------

  Dipole Moment: [D]
     X:     1.7850      Y:     0.0183      Z:     0.0425     Total:     1.7856

*** Psi4 exiting successfully. Buy a developer a beer!
