                               Psi4 1.3.2 release

  ==> Input File <==

--------------------------------------------------------------------------
#psi4
#
memory 32 gb

molecule  {
0 1
 Br       -1.8067700     0.0000000    -0.0000600
  C        0.1006220     0.0000530     0.0000060
  C        0.7815690     1.2175950     0.0000440
  C        0.7815260    -1.2175610     0.0000100
  C        2.1776820     1.2083560     0.0000890
  C        2.1776190    -1.2084040     0.0000560
  C        2.8781420    -0.0000300     0.0000940
  H        0.2284300     2.1526090     0.0000410
  H        0.2282920    -2.1525150    -0.0000210
  H        2.7160930     2.1530860     0.0001180
  H        2.7160165    -2.1531453    -0.1999400
  H        3.9651640    -0.0000500     0.0001280
units angstrom
no_reorient  #important for SAPT in psi4, default
symmetry c1  #important for SAPT in psi4, default
}

set PROPERTIES_ORIGIN ["COM"]
properties('MP2/aug-cc-pvtz', properties = ['dipole'])
--------------------------------------------------------------------------

    Molecular point group: c1
  Charge       = 0
  Multiplicity = 1
  Basis Set: AUG-CC-PVTZ
    Blend: AUG-CC-PVTZ
  Basis Set: (AUG-CC-PVTZ AUX)
    Blend: AUG-CC-PVTZ-JKFIT

    Orbital Energies [Eh]
    ---------------------

    Doubly Occupied:

       1A   -490.024830     2A    -65.164570     3A    -58.519879
       4A    -58.518498     5A    -58.518477     6A    -11.303715
       7A    -11.256074     8A    -11.255930     9A    -11.254717
      10A    -11.253486    11A    -11.250640    12A     -9.837303
      13A     -7.448877    14A     -7.442113    15A     -7.442096
      16A     -3.192626    17A     -3.189112    18A     -3.188924
      19A     -3.180287    20A     -3.180281    21A     -1.174701
      22A     -1.069873    23A     -1.032513    24A     -0.974215
      25A     -0.844662    26A     -0.817199    27A     -0.709348
      28A     -0.644787    29A     -0.641785    30A     -0.603701
      31A     -0.574035    32A     -0.533877    33A     -0.514037
      34A     -0.491132    35A     -0.438416    36A     -0.416535
      37A     -0.353123    38A     -0.335428

  @DF-RHF Final Energy: -2802.65449171542969

   => Energetics <=

    Nuclear Repulsion Energy =            430.0168485306215302
    One-Electron Energy =               -4748.1590743724364074
    Two-Electron Energy =                1515.4877341263852486
    Total Energy =                      -2802.6544917154296854
  Basis Set: (AUG-CC-PVTZ AUX)
    Blend: AUG-CC-PVTZ-RI
    Molecular point group: c1

    Geometry (in Angstrom), charge = 0, multiplicity = 1:

       Center              X                  Y                   Z               Mass
    ------------   -----------------  -----------------  -----------------  -----------------
         BR          -1.640761519003    -0.000000593625     0.001237684331    78.918337600000
         C            0.266630480997     0.000052406375     0.001303684331    12.000000000000
         C            0.947577480997     1.217594406375     0.001341684331    12.000000000000
         C            0.947534480997    -1.217561593625     0.001307684331    12.000000000000
         C            2.343690480997     1.208355406375     0.001386684331    12.000000000000
         C            2.343627480997    -1.208404593625     0.001353684331    12.000000000000
         C            3.044150480997    -0.000030593625     0.001391684331    12.000000000000
         H            0.394438480997     2.152608406375     0.001338684331     1.007825032230
         H            0.394300480997    -2.152515593625     0.001276684331     1.007825032230
         H            2.882101480997     2.153085406375     0.001415684331     1.007825032230
         H            2.882024980997    -2.153145893625    -0.198642315669     1.007825032230
         H            4.131172480997    -0.000050593625     0.001425684331     1.007825032230

  Basis Set: AUG-CC-PVTZ
    Blend: AUG-CC-PVTZ
  Basis Set: (AUG-CC-PVTZ AUX)
    Blend: AUG-CC-PVTZ-JKFIT
	 Reference Energy          =   -2802.6544917154296854 [Eh]
	 Singles Energy            =      -0.0000000000000000 [Eh]
	 Same-Spin Energy          =      -0.3496037233984240 [Eh]
	 Opposite-Spin Energy      =      -1.0132434392129421 [Eh]
	 Correlation Energy        =      -1.3628471626113661 [Eh]
	 Total Energy              =   -2804.0173388780408459 [Eh]

	 ================> DF-SCS-MP2 Energies <==================
	-----------------------------------------------------------
	 SCS Same-Spin Scale       =       0.3333333333333333 [-]
	 SCS Opposite-Spin Scale   =       1.2000000000000000 [-]
	 SCS Same-Spin Energy      =      -0.1165345744661413 [Eh]
	 SCS Opposite-Spin Energy  =      -1.2158921270555305 [Eh]
	 SCS Correlation Energy    =      -1.3324267015216718 [Eh]
	 SCS Total Energy          =   -2803.9869184169515393 [Eh]
	-----------------------------------------------------------

  Dipole Moment: [D]
     X:     1.7575      Y:     0.0278      Z:    -0.1232     Total:     1.7620

*** Psi4 exiting successfully. Buy a developer a beer!
