                               Psi4 1.3.2 release

  ==> Input File <==

--------------------------------------------------------------------------
#psi4
#
memory 32 gb

molecule  {
0 1
 Br       -1.8067700     0.0000000    -0.0000600
  C        0.1006220     0.0000530     0.0000060
  C        0.7815690     1.2175950     0.0000440
  C        0.7815260    -1.2175610     0.0000100
  C        2.1776820     1.2083560     0.0000890
  C        2.1776190    -1.2084040     0.0000560
  C        2.8781420    -0.0000300     0.0000940
  H        0.2284300     2.1526090     0.0000410
  H        0.2282936    -2.1525143    -0.0500210
  H        2.7160930     2.1530860     0.0001180
  H        2.7160100    -2.1531480     0.0000600
  H        3.9651640    -0.0000500     0.0001280
units angstrom
no_reorient  #important for SAPT in psi4, default
symmetry c1  #important for SAPT in psi4, default
}

set PROPERTIES_ORIGIN ["COM"]
properties('MP2/aug-cc-pvtz', properties = ['dipole'])
--------------------------------------------------------------------------

    Molecular point group: c1
  Charge       = 0
  Multiplicity = 1
  Basis Set: AUG-CC-PVTZ
    Blend: AUG-CC-PVTZ
  Basis Set: (AUG-CC-PVTZ AUX)
    Blend: AUG-CC-PVTZ-JKFIT

    Orbital Energies [Eh]
    ---------------------

    Doubly Occupied:

       1A   -490.024740     2A    -65.164480     3A    -58.519789
       4A    -58.518408     5A    -58.518386     6A    -11.303614
       7A    -11.255660     8A    -11.255575     9A    -11.253475
      10A    -11.253246    11A    -11.250298    12A     -9.837211
      13A     -7.448785    14A     -7.442024    15A     -7.442002
      16A     -3.192534    17A     -3.189022    18A     -3.188831
      19A     -3.180197    20A     -3.180190    21A     -1.174565
      22A     -1.069849    23A     -1.032735    24A     -0.974104
      25A     -0.845367    26A     -0.817672    27A     -0.709613
      28A     -0.644630    29A     -0.643743    30A     -0.604740
      31A     -0.573839    32A     -0.532949    33A     -0.515755
      34A     -0.491281    35A     -0.438595    36A     -0.416452
      37A     -0.353297    38A     -0.335344

  @DF-RHF Final Energy: -2802.65697509046231

   => Energetics <=

    Nuclear Repulsion Energy =            430.0813895831210516
    One-Electron Energy =               -4748.2907325124888303
    Two-Electron Energy =                1515.5523678389063207
    Total Energy =                      -2802.6569750904618559
  Basis Set: (AUG-CC-PVTZ AUX)
    Blend: AUG-CC-PVTZ-RI
    Molecular point group: c1

    Geometry (in Angstrom), charge = 0, multiplicity = 1:

       Center              X                  Y                   Z               Mass
    ------------   -----------------  -----------------  -----------------  -----------------
         BR          -1.640761487338    -0.000000580701     0.000268357489    78.918337600000
         C            0.266630512662     0.000052419299     0.000334357489    12.000000000000
         C            0.947577512662     1.217594419299     0.000372357489    12.000000000000
         C            0.947534512662    -1.217561580701     0.000338357489    12.000000000000
         C            2.343690512662     1.208355419299     0.000417357489    12.000000000000
         C            2.343627512662    -1.208404580701     0.000384357489    12.000000000000
         C            3.044150512662    -0.000030580701     0.000422357489    12.000000000000
         H            0.394438512662     2.152608419299     0.000369357489     1.007825032230
         H            0.394302112662    -2.152514880701    -0.049692642511     1.007825032230
         H            2.882101512662     2.153085419299     0.000446357489     1.007825032230
         H            2.882018512662    -2.153148580701     0.000388357489     1.007825032230
         H            4.131172512662    -0.000050580701     0.000456357489     1.007825032230

  Basis Set: AUG-CC-PVTZ
    Blend: AUG-CC-PVTZ
  Basis Set: (AUG-CC-PVTZ AUX)
    Blend: AUG-CC-PVTZ-JKFIT
	 Reference Energy          =   -2802.6569750904623106 [Eh]
	 Singles Energy            =      -0.0000000000000000 [Eh]
	 Same-Spin Energy          =      -0.3494917509275079 [Eh]
	 Opposite-Spin Energy      =      -1.0129366944623985 [Eh]
	 Correlation Energy        =      -1.3624284453899065 [Eh]
	 Total Energy              =   -2804.0194035358522342 [Eh]

	 ================> DF-SCS-MP2 Energies <==================
	-----------------------------------------------------------
	 SCS Same-Spin Scale       =       0.3333333333333333 [-]
	 SCS Opposite-Spin Scale   =       1.2000000000000000 [-]
	 SCS Same-Spin Energy      =      -0.1164972503091693 [Eh]
	 SCS Opposite-Spin Energy  =      -1.2155240333548782 [Eh]
	 SCS Correlation Energy    =      -1.3320212836640475 [Eh]
	 SCS Total Energy          =   -2803.9889963741261454 [Eh]
	-----------------------------------------------------------

  Dipole Moment: [D]
     X:     1.7753      Y:     0.0016      Z:    -0.0304     Total:     1.7756

*** Psi4 exiting successfully. Buy a developer a beer!
