                               Psi4 1.3.2 release

  ==> Input File <==

--------------------------------------------------------------------------
#psi4
#
memory 32 gb

molecule  {
0 1
 Br       -1.8067700     0.0000000    -0.0000600
  C        0.1006220     0.0000530     0.0000060
  C        0.7815690     1.2175950     0.0000440
  C        0.7815260    -1.2175610     0.0000100
  C        2.1776820     1.2083560     0.0000890
  C        2.1776190    -1.2084040     0.0000560
  C        2.8781420    -0.0000300     0.0000940
  H        0.2284300     2.1526090     0.0000410
  H        0.2282920    -2.1525150    -0.0000210
  H        2.7160930     2.1530860     0.0001180
  H        2.7160100    -2.1531480     0.0000600
  H        3.9651547    -0.0000541     0.3001280
units angstrom
no_reorient  #important for SAPT in psi4, default
symmetry c1  #important for SAPT in psi4, default
}

set PROPERTIES_ORIGIN ["COM"]
properties('MP2/aug-cc-pvtz', properties = ['dipole'])
--------------------------------------------------------------------------

    Molecular point group: c1
  Charge       = 0
  Multiplicity = 1
  Basis Set: AUG-CC-PVTZ
    Blend: AUG-CC-PVTZ
  Basis Set: (AUG-CC-PVTZ AUX)
    Blend: AUG-CC-PVTZ-JKFIT

    Orbital Energies [Eh]
    ---------------------

    Doubly Occupied:

       1A   -490.025262     2A    -65.164999     3A    -58.520309
       4A    -58.518927     5A    -58.518904     6A    -11.304436
       7A    -11.255885     8A    -11.255878     9A    -11.254705
      10A    -11.253874    11A    -11.253101    12A     -9.837728
      13A     -7.449304    14A     -7.442540    15A     -7.442515
      16A     -3.193056    17A     -3.189543    18A     -3.189347
      19A     -3.180709    20A     -3.180702    21A     -1.174898
      22A     -1.069665    23A     -1.033178    24A     -0.973356
      25A     -0.845762    26A     -0.816042    27A     -0.704844
      28A     -0.644977    29A     -0.643894    30A     -0.605171
      31A     -0.569473    32A     -0.531963    33A     -0.516294
      34A     -0.490187    35A     -0.437794    36A     -0.416918
      37A     -0.353672    38A     -0.335094

  @DF-RHF Final Energy: -2802.65085819033811

   => Energetics <=

    Nuclear Repulsion Energy =            429.9355736366831593
    One-Electron Energy =               -4747.9830443818918866
    Two-Electron Energy =                1515.3966125548702166
    Total Energy =                      -2802.6508581903381128
  Basis Set: (AUG-CC-PVTZ AUX)
    Blend: AUG-CC-PVTZ-RI
    Molecular point group: c1

    Geometry (in Angstrom), charge = 0, multiplicity = 1:

       Center              X                  Y                   Z               Mass
    ------------   -----------------  -----------------  -----------------  -----------------
         BR          -1.640761416900    -0.000000549682    -0.001993405142    78.918337600000
         C            0.266630583100     0.000052450318    -0.001927405142    12.000000000000
         C            0.947577583100     1.217594450318    -0.001889405142    12.000000000000
         C            0.947534583100    -1.217561549682    -0.001923405142    12.000000000000
         C            2.343690583100     1.208355450318    -0.001844405142    12.000000000000
         C            2.343627583100    -1.208404549682    -0.001877405142    12.000000000000
         C            3.044150583100    -0.000030549682    -0.001839405142    12.000000000000
         H            0.394438583100     2.152608450318    -0.001892405142     1.007825032230
         H            0.394300583100    -2.152515549682    -0.001954405142     1.007825032230
         H            2.882101583100     2.153085450318    -0.001815405142     1.007825032230
         H            2.882018583100    -2.153148549682    -0.001873405142     1.007825032230
         H            4.131163283100    -0.000054649682     0.298194594858     1.007825032230

  Basis Set: AUG-CC-PVTZ
    Blend: AUG-CC-PVTZ
  Basis Set: (AUG-CC-PVTZ AUX)
    Blend: AUG-CC-PVTZ-JKFIT
	 Reference Energy          =   -2802.6508581903381128 [Eh]
	 Singles Energy            =      -0.0000000000000000 [Eh]
	 Same-Spin Energy          =      -0.3497833948320606 [Eh]
	 Opposite-Spin Energy      =      -1.0137454515096023 [Eh]
	 Correlation Energy        =      -1.3635288463416628 [Eh]
	 Total Energy              =   -2804.0143870366796364 [Eh]

	 ================> DF-SCS-MP2 Energies <==================
	-----------------------------------------------------------
	 SCS Same-Spin Scale       =       0.3333333333333333 [-]
	 SCS Opposite-Spin Scale   =       1.2000000000000000 [-]
	 SCS Same-Spin Energy      =      -0.1165944649440202 [Eh]
	 SCS Opposite-Spin Energy  =      -1.2164945418115227 [Eh]
	 SCS Correlation Energy    =      -1.3330890067555430 [Eh]
	 SCS Total Energy          =   -2803.9839471970935847 [Eh]
	-----------------------------------------------------------

  Dipole Moment: [D]
     X:     1.6920      Y:     0.0000      Z:     0.1876     Total:     1.7024

*** Psi4 exiting successfully. Buy a developer a beer!
