                               Psi4 1.3.2 release

  ==> Input File <==

--------------------------------------------------------------------------
#psi4
#
memory 32 gb

molecule  {
0 1
 Br       -1.8067700     0.0000000    -0.0000600
  C        0.1006220     0.0000530     0.0000060
  C        0.7815690     1.2175950     0.0000440
  C        0.7815260    -1.2175610     0.0000100
  C        2.1776820     1.2083560     0.0000890
  C        2.1776190    -1.2084040     0.0000560
  C        2.8781420    -0.0000300     0.0000940
  H        0.2284300     2.1526090     0.0000410
  H        0.2282920    -2.1525150    -0.0000210
  H        2.7160930     2.1530860     0.0001180
  H        2.7160181    -2.1531447    -0.2499400
  H        3.9651640    -0.0000500     0.0001280
units angstrom
no_reorient  #important for SAPT in psi4, default
symmetry c1  #important for SAPT in psi4, default
}

set PROPERTIES_ORIGIN ["COM"]
properties('MP2/aug-cc-pvtz', properties = ['dipole'])
--------------------------------------------------------------------------

    Molecular point group: c1
  Charge       = 0
  Multiplicity = 1
  Basis Set: AUG-CC-PVTZ
    Blend: AUG-CC-PVTZ
  Basis Set: (AUG-CC-PVTZ AUX)
    Blend: AUG-CC-PVTZ-JKFIT

    Orbital Energies [Eh]
    ---------------------

    Doubly Occupied:

       1A   -490.024884     2A    -65.164624     3A    -58.519934
       4A    -58.518553     5A    -58.518531     6A    -11.303785
       7A    -11.256519     8A    -11.256135     9A    -11.255320
      10A    -11.253581    11A    -11.250832    12A     -9.837357
      13A     -7.448932    14A     -7.442167    15A     -7.442150
      16A     -3.192681    17A     -3.189167    18A     -3.188979
      19A     -3.180341    20A     -3.180335    21A     -1.174784
      22A     -1.069898    23A     -1.032392    24A     -0.974281
      25A     -0.844293    26A     -0.816936    27A     -0.709181
      28A     -0.644884    29A     -0.640736    30A     -0.603035
      31A     -0.574143    32A     -0.534358    33A     -0.513079
      34A     -0.491023    35A     -0.438321    36A     -0.416582
      37A     -0.353029    38A     -0.335480

  @DF-RHF Final Energy: -2802.65288950159766

   => Energetics <=

    Nuclear Repulsion Energy =            429.9787913456764841
    One-Electron Energy =               -4748.0808769558034328
    Two-Electron Energy =                1515.4491961085288949
    Total Energy =                      -2802.6528895015981107
  Basis Set: (AUG-CC-PVTZ AUX)
    Blend: AUG-CC-PVTZ-RI
    Molecular point group: c1

    Geometry (in Angstrom), charge = 0, multiplicity = 1:

       Center              X                  Y                   Z               Mass
    ------------   -----------------  -----------------  -----------------  -----------------
         BR          -1.640761529342    -0.000000597502     0.001560793278    78.918337600000
         C            0.266630470658     0.000052402498     0.001626793278    12.000000000000
         C            0.947577470658     1.217594402498     0.001664793278    12.000000000000
         C            0.947534470658    -1.217561597502     0.001630793278    12.000000000000
         C            2.343690470658     1.208355402498     0.001709793278    12.000000000000
         C            2.343627470658    -1.208404597502     0.001676793278    12.000000000000
         C            3.044150470658    -0.000030597502     0.001714793278    12.000000000000
         H            0.394438470658     2.152608402498     0.001661793278     1.007825032230
         H            0.394300470658    -2.152515597502     0.001599793278     1.007825032230
         H            2.882101470658     2.153085402498     0.001738793278     1.007825032230
         H            2.882026570658    -2.153145297502    -0.248319206722     1.007825032230
         H            4.131172470658    -0.000050597502     0.001748793278     1.007825032230

  Basis Set: AUG-CC-PVTZ
    Blend: AUG-CC-PVTZ
  Basis Set: (AUG-CC-PVTZ AUX)
    Blend: AUG-CC-PVTZ-JKFIT
	 Reference Energy          =   -2802.6528895015976559 [Eh]
	 Singles Energy            =      -0.0000000000000000 [Eh]
	 Same-Spin Energy          =      -0.3496760094002012 [Eh]
	 Opposite-Spin Energy      =      -1.0134435172688951 [Eh]
	 Correlation Energy        =      -1.3631195266690963 [Eh]
	 Total Energy              =   -2804.0160090282665806 [Eh]

	 ================> DF-SCS-MP2 Energies <==================
	-----------------------------------------------------------
	 SCS Same-Spin Scale       =       0.3333333333333333 [-]
	 SCS Opposite-Spin Scale   =       1.2000000000000000 [-]
	 SCS Same-Spin Energy      =      -0.1165586698000670 [Eh]
	 SCS Opposite-Spin Energy  =      -1.2161322207226741 [Eh]
	 SCS Correlation Energy    =      -1.3326908905227413 [Eh]
	 SCS Total Energy          =   -2803.9855803921204824 [Eh]
	-----------------------------------------------------------

  Dipole Moment: [D]
     X:     1.7481      Y:     0.0431      Z:    -0.1531     Total:     1.7553

*** Psi4 exiting successfully. Buy a developer a beer!
