                               Psi4 1.3.2 release

  ==> Input File <==

--------------------------------------------------------------------------
#psi4
#
memory 32 gb

molecule  {
0 1
 Br       -1.8067700     0.0000000    -0.0000600
  C        0.1006220     0.0000530     0.0000060
  C        0.7815690     1.2175950     0.0000440
  C        0.7815260    -1.2175610     0.0000100
  C        2.1776820     1.2083560     0.0000890
  C        2.1776190    -1.2084040     0.0000560
  C        2.8781420    -0.0000300     0.0000940
  H        0.2284300     2.1526090     0.0000410
  H        0.2282920    -2.1525150    -0.0000210
  H        2.7160930     2.1530860     0.0001180
  H        2.7160100    -2.1531480     0.0000600
  H        3.9651640    -0.0000500     0.0001280
units angstrom
no_reorient  #important for SAPT in psi4, default
symmetry c1  #important for SAPT in psi4, default
}

set PROPERTIES_ORIGIN ["COM"]
properties('MP2/aug-cc-pvtz', properties = ['dipole'])
--------------------------------------------------------------------------

    Molecular point group: c1
  Charge       = 0
  Multiplicity = 1
  Basis Set: AUG-CC-PVTZ
    Blend: AUG-CC-PVTZ
  Basis Set: (AUG-CC-PVTZ AUX)
    Blend: AUG-CC-PVTZ-JKFIT

    Orbital Energies [Eh]
    ---------------------

    Doubly Occupied:

       1A   -490.024741     2A    -65.164480     3A    -58.519789
       4A    -58.518408     5A    -58.518387     6A    -11.303597
       7A    -11.255583     8A    -11.255557     9A    -11.253454
      10A    -11.253224    11A    -11.250291    12A     -9.837211
      13A     -7.448785    14A     -7.442023    15A     -7.442003
      16A     -3.192534    17A     -3.189021    18A     -3.188832
      19A     -3.180197    20A     -3.180190    21A     -1.174562
      22A     -1.069845    23A     -1.032756    24A     -0.974108
      25A     -0.845413    26A     -0.817688    27A     -0.709707
      28A     -0.644624    29A     -0.643807    30A     -0.604821
      31A     -0.573849    32A     -0.532883    33A     -0.515898
      34A     -0.491294    35A     -0.438593    36A     -0.416455
      37A     -0.353309    38A     -0.335341

  @DF-RHF Final Energy: -2802.65713010453601

   => Energetics <=

    Nuclear Repulsion Energy =            430.0864885383485330
    One-Electron Energy =               -4748.3007131273679988
    Two-Electron Energy =                1515.5570944844832866
    Total Energy =                      -2802.6571301045360087
  Basis Set: (AUG-CC-PVTZ AUX)
    Blend: AUG-CC-PVTZ-RI
    Molecular point group: c1

    Geometry (in Angstrom), charge = 0, multiplicity = 1:

       Center              X                  Y                   Z               Mass
    ------------   -----------------  -----------------  -----------------  -----------------
         BR          -1.640761476999    -0.000000576177    -0.000054751458    78.918337600000
         C            0.266630523001     0.000052423823     0.000011248542    12.000000000000
         C            0.947577523001     1.217594423823     0.000049248542    12.000000000000
         C            0.947534523001    -1.217561576177     0.000015248542    12.000000000000
         C            2.343690523001     1.208355423823     0.000094248542    12.000000000000
         C            2.343627523001    -1.208404576177     0.000061248542    12.000000000000
         C            3.044150523001    -0.000030576177     0.000099248542    12.000000000000
         H            0.394438523001     2.152608423823     0.000046248542     1.007825032230
         H            0.394300523001    -2.152515576177    -0.000015751458     1.007825032230
         H            2.882101523001     2.153085423823     0.000123248542     1.007825032230
         H            2.882018523001    -2.153148576177     0.000065248542     1.007825032230
         H            4.131172523001    -0.000050576177     0.000133248542     1.007825032230

  Basis Set: AUG-CC-PVTZ
    Blend: AUG-CC-PVTZ
  Basis Set: (AUG-CC-PVTZ AUX)
    Blend: AUG-CC-PVTZ-JKFIT
	 Reference Energy          =   -2802.6571301045360087 [Eh]
	 Singles Energy            =      -0.0000000000000000 [Eh]
	 Same-Spin Energy          =      -0.3494834503555418 [Eh]
	 Opposite-Spin Energy      =      -1.0129191494278764 [Eh]
	 Correlation Energy        =      -1.3624025997834184 [Eh]
	 Total Energy              =   -2804.0195327043193174 [Eh]

	 ================> DF-SCS-MP2 Energies <==================
	-----------------------------------------------------------
	 SCS Same-Spin Scale       =       0.3333333333333333 [-]
	 SCS Opposite-Spin Scale   =       1.2000000000000000 [-]
	 SCS Same-Spin Energy      =      -0.1164944834518473 [Eh]
	 SCS Opposite-Spin Energy  =      -1.2155029793134517 [Eh]
	 SCS Correlation Energy    =      -1.3319974627652991 [Eh]
	 SCS Total Energy          =   -2803.9891275673012387 [Eh]
	-----------------------------------------------------------

  Dipole Moment: [D]
     X:     1.7745      Y:     0.0000      Z:     0.0001     Total:     1.7745

*** Psi4 exiting successfully. Buy a developer a beer!
