                               Psi4 1.3.2 release

  ==> Input File <==

--------------------------------------------------------------------------
#psi4
#
memory 32 gb

molecule  {
0 1
 Br       -1.8067700     0.0000000    -0.0000600
  C        0.1006220     0.0000530     0.0000060
  C        0.7815690     1.2175950     0.0000440
  C        0.7815260    -1.2175610     0.0000100
  C        2.1776820     1.2083560     0.0000890
  C        2.1776190    -1.2084040     0.0000560
  C        2.8781420    -0.0000300     0.0000940
  H        0.2284300     2.1526090     0.0000410
  H        0.2282920    -2.1525150    -0.0000210
  H        2.7160930     2.1530860     0.0001180
  H        2.7160100    -2.1531480     0.0000600
  H        3.9651624    -0.0000507     0.0501280
units angstrom
no_reorient  #important for SAPT in psi4, default
symmetry c1  #important for SAPT in psi4, default
}

set PROPERTIES_ORIGIN ["COM"]
properties('MP2/aug-cc-pvtz', properties = ['dipole'])
--------------------------------------------------------------------------

    Molecular point group: c1
  Charge       = 0
  Multiplicity = 1
  Basis Set: AUG-CC-PVTZ
    Blend: AUG-CC-PVTZ
  Basis Set: (AUG-CC-PVTZ AUX)
    Blend: AUG-CC-PVTZ-JKFIT

    Orbital Energies [Eh]
    ---------------------

    Doubly Occupied:

       1A   -490.024755     2A    -65.164494     3A    -58.519804
       4A    -58.518423     5A    -58.518401     6A    -11.303621
       7A    -11.255590     8A    -11.255564     9A    -11.253477
      10A    -11.253241    11A    -11.250382    12A     -9.837225
      13A     -7.448799    14A     -7.442037    15A     -7.442018
      16A     -3.192548    17A     -3.189036    18A     -3.188846
      19A     -3.180211    20A     -3.180204    21A     -1.174571
      22A     -1.069838    23A     -1.032767    24A     -0.974083
      25A     -0.845422    26A     -0.817635    27A     -0.709559
      28A     -0.644633    29A     -0.643809    30A     -0.604829
      31A     -0.573725    32A     -0.532857    33A     -0.515908
      34A     -0.491266    35A     -0.438570    36A     -0.416467
      37A     -0.353319    38A     -0.335333

  @DF-RHF Final Energy: -2802.65697489457216

   => Energetics <=

    Nuclear Repulsion Energy =            430.0821219375164333
    One-Electron Energy =               -4748.2916665513521366
    Two-Electron Energy =                1515.5525697192633743
    Total Energy =                      -2802.6569748945721585
  Basis Set: (AUG-CC-PVTZ AUX)
    Blend: AUG-CC-PVTZ-RI
    Molecular point group: c1

    Geometry (in Angstrom), charge = 0, multiplicity = 1:

       Center              X                  Y                   Z               Mass
    ------------   -----------------  -----------------  -----------------  -----------------
         BR          -1.640761466659    -0.000000571654    -0.000377860405    78.918337600000
         C            0.266630533341     0.000052428346    -0.000311860405    12.000000000000
         C            0.947577533341     1.217594428346    -0.000273860405    12.000000000000
         C            0.947534533341    -1.217561571654    -0.000307860405    12.000000000000
         C            2.343690533341     1.208355428346    -0.000228860405    12.000000000000
         C            2.343627533341    -1.208404571654    -0.000261860405    12.000000000000
         C            3.044150533341    -0.000030571654    -0.000223860405    12.000000000000
         H            0.394438533341     2.152608428346    -0.000276860405     1.007825032230
         H            0.394300533341    -2.152515571654    -0.000338860405     1.007825032230
         H            2.882101533341     2.153085428346    -0.000199860405     1.007825032230
         H            2.882018533341    -2.153148571654    -0.000257860405     1.007825032230
         H            4.131170933341    -0.000051271654     0.049810139595     1.007825032230

  Basis Set: AUG-CC-PVTZ
    Blend: AUG-CC-PVTZ
  Basis Set: (AUG-CC-PVTZ AUX)
    Blend: AUG-CC-PVTZ-JKFIT
	 Reference Energy          =   -2802.6569748945721585 [Eh]
	 Singles Energy            =      -0.0000000000000000 [Eh]
	 Same-Spin Energy          =      -0.3494915893072212 [Eh]
	 Opposite-Spin Energy      =      -1.0129407965311894 [Eh]
	 Correlation Energy        =      -1.3624323858384106 [Eh]
	 Total Energy              =   -2804.0194072804106327 [Eh]

	 ================> DF-SCS-MP2 Energies <==================
	-----------------------------------------------------------
	 SCS Same-Spin Scale       =       0.3333333333333333 [-]
	 SCS Opposite-Spin Scale   =       1.2000000000000000 [-]
	 SCS Same-Spin Energy      =      -0.1164971964357404 [Eh]
	 SCS Opposite-Spin Energy  =      -1.2155289558374271 [Eh]
	 SCS Correlation Energy    =      -1.3320261522731676 [Eh]
	 SCS Total Energy          =   -2803.9890010468452601 [Eh]
	-----------------------------------------------------------

  Dipole Moment: [D]
     X:     1.7721      Y:     0.0000      Z:     0.0321     Total:     1.7724

*** Psi4 exiting successfully. Buy a developer a beer!
