                               Psi4 1.3.2 release

  ==> Input File <==

--------------------------------------------------------------------------
#psi4
#
memory 32 gb

molecule  {
0 1
 Br       -1.8067700     0.0000000    -0.0000600
  C        0.1006220     0.0000530     0.0000060
  C        0.7815690     1.2175950     0.0000440
  C        0.7815260    -1.2175610     0.0000100
  C        2.1776820     1.2083560     0.0000890
  C        2.1776190    -1.2084040     0.0000560
  C        2.8781420    -0.0000300     0.0000940
  H        0.2284300     2.1526090     0.0000410
  H        0.2282920    -2.1525150    -0.0000210
  H        2.7160930     2.1530860     0.0001180
  H        2.7160148    -2.1531460    -0.1499400
  H        3.9651640    -0.0000500     0.0001280
units angstrom
no_reorient  #important for SAPT in psi4, default
symmetry c1  #important for SAPT in psi4, default
}

set PROPERTIES_ORIGIN ["COM"]
properties('MP2/aug-cc-pvtz', properties = ['dipole'])
--------------------------------------------------------------------------

    Molecular point group: c1
  Charge       = 0
  Multiplicity = 1
  Basis Set: AUG-CC-PVTZ
    Blend: AUG-CC-PVTZ
  Basis Set: (AUG-CC-PVTZ AUX)
    Blend: AUG-CC-PVTZ-JKFIT

    Orbital Energies [Eh]
    ---------------------

    Doubly Occupied:

       1A   -490.024789     2A    -65.164529     3A    -58.519839
       4A    -58.518458     5A    -58.518436     6A    -11.303662
       7A    -11.255826     8A    -11.255769     9A    -11.254153
      10A    -11.253409    11A    -11.250488    12A     -9.837261
      13A     -7.448835    14A     -7.442073    15A     -7.442054
      16A     -3.192585    17A     -3.189071    18A     -3.188883
      19A     -3.180247    20A     -3.180240    21A     -1.174638
      22A     -1.069858    23A     -1.032614    24A     -0.974166
      25A     -0.844974    26A     -0.817409    27A     -0.709494
      28A     -0.644713    29A     -0.642645    30A     -0.604200
      31A     -0.573952    32A     -0.533467    33A     -0.514823
      34A     -0.491207    35A     -0.438492    36A     -0.416499
      37A     -0.353201    38A     -0.335389

  @DF-RHF Final Energy: -2802.65568175141334

   => Energetics <=

    Nuclear Repulsion Energy =            430.0469956548409982
    One-Electron Energy =               -4748.2206582485059698
    Two-Electron Energy =                1515.5179808422512906
    Total Energy =                      -2802.6556817514133400
  Basis Set: (AUG-CC-PVTZ AUX)
    Blend: AUG-CC-PVTZ-RI
    Molecular point group: c1

    Geometry (in Angstrom), charge = 0, multiplicity = 1:

       Center              X                  Y                   Z               Mass
    ------------   -----------------  -----------------  -----------------  -----------------
         BR          -1.640761508017    -0.000000589102     0.000914575384    78.918337600000
         C            0.266630491983     0.000052410898     0.000980575384    12.000000000000
         C            0.947577491983     1.217594410898     0.001018575384    12.000000000000
         C            0.947534491983    -1.217561589102     0.000984575384    12.000000000000
         C            2.343690491983     1.208355410898     0.001063575384    12.000000000000
         C            2.343627491983    -1.208404589102     0.001030575384    12.000000000000
         C            3.044150491983    -0.000030589102     0.001068575384    12.000000000000
         H            0.394438491983     2.152608410898     0.001015575384     1.007825032230
         H            0.394300491983    -2.152515589102     0.000953575384     1.007825032230
         H            2.882101491983     2.153085410898     0.001092575384     1.007825032230
         H            2.882023291983    -2.153146589102    -0.148965424616     1.007825032230
         H            4.131172491983    -0.000050589102     0.001102575384     1.007825032230

  Basis Set: AUG-CC-PVTZ
    Blend: AUG-CC-PVTZ
  Basis Set: (AUG-CC-PVTZ AUX)
    Blend: AUG-CC-PVTZ-JKFIT
	 Reference Energy          =   -2802.6556817514133400 [Eh]
	 Singles Energy            =      -0.0000000000000000 [Eh]
	 Same-Spin Energy          =      -0.3495485252924620 [Eh]
	 Opposite-Spin Energy      =      -1.0130933171575323 [Eh]
	 Correlation Energy        =      -1.3626418424499942 [Eh]
	 Total Energy              =   -2804.0183235938634425 [Eh]

	 ================> DF-SCS-MP2 Energies <==================
	-----------------------------------------------------------
	 SCS Same-Spin Scale       =       0.3333333333333333 [-]
	 SCS Opposite-Spin Scale   =       1.2000000000000000 [-]
	 SCS Same-Spin Energy      =      -0.1165161750974873 [Eh]
	 SCS Opposite-Spin Energy  =      -1.2157119805890386 [Eh]
	 SCS Correlation Energy    =      -1.3322281556865259 [Eh]
	 SCS Total Energy          =   -2803.9879099070999473 [Eh]
	-----------------------------------------------------------

  Dipole Moment: [D]
     X:     1.7649      Y:     0.0158      Z:    -0.0928     Total:     1.7674

*** Psi4 exiting successfully. Buy a developer a beer!
