                               Psi4 1.3.2 release

  ==> Input File <==

--------------------------------------------------------------------------
#psi4
#
memory 32 gb

molecule  {
0 1
 Br       -1.8067700     0.0000000    -0.0000600
  C        0.1006220     0.0000530     0.0000060
  C        0.7815690     1.2175950     0.0000440
  C        0.7815277    -1.2175603    -0.0499900
  C        2.1776820     1.2083560     0.0000890
  C        2.1776190    -1.2084040     0.0000560
  C        2.8781420    -0.0000300     0.0000940
  H        0.2284300     2.1526090     0.0000410
  H        0.2282920    -2.1525150    -0.0000210
  H        2.7160930     2.1530860     0.0001180
  H        2.7160100    -2.1531480     0.0000600
  H        3.9651640    -0.0000500     0.0001280
units angstrom
no_reorient  #important for SAPT in psi4, default
symmetry c1  #important for SAPT in psi4, default
}

set PROPERTIES_ORIGIN ["COM"]
properties('MP2/aug-cc-pvtz', properties = ['dipole'])
--------------------------------------------------------------------------

    Molecular point group: c1
  Charge       = 0
  Multiplicity = 1
  Basis Set: AUG-CC-PVTZ
    Blend: AUG-CC-PVTZ
  Basis Set: (AUG-CC-PVTZ AUX)
    Blend: AUG-CC-PVTZ-JKFIT

    Orbital Energies [Eh]
    ---------------------

    Doubly Occupied:

       1A   -490.024737     2A    -65.164480     3A    -58.519789
       4A    -58.518408     5A    -58.518386     6A    -11.303796
       7A    -11.255768     8A    -11.255551     9A    -11.253609
      10A    -11.253370    11A    -11.250275    12A     -9.837216
      13A     -7.448789    14A     -7.442028    15A     -7.442008
      16A     -3.192539    17A     -3.189026    18A     -3.188835
      19A     -3.180202    20A     -3.180195    21A     -1.174466
      22A     -1.069833    23A     -1.032649    24A     -0.974075
      25A     -0.845334    26A     -0.817537    27A     -0.709522
      28A     -0.644435    29A     -0.643743    30A     -0.604630
      31A     -0.573820    32A     -0.532815    33A     -0.515689
      34A     -0.491261    35A     -0.438546    36A     -0.416437
      37A     -0.353287    38A     -0.335295

  @DF-RHF Final Energy: -2802.65637276642155

   => Energetics <=

    Nuclear Repulsion Energy =            430.0548874843691465
    One-Electron Energy =               -4748.2377544845139710
    Two-Electron Energy =                1515.5264942337234970
    Total Energy =                      -2802.6563727664215548
  Basis Set: (AUG-CC-PVTZ AUX)
    Blend: AUG-CC-PVTZ-RI
    Molecular point group: c1

    Geometry (in Angstrom), charge = 0, multiplicity = 1:

       Center              X                  Y                   Z               Mass
    ------------   -----------------  -----------------  -----------------  -----------------
         BR          -1.640761607803    -0.000000630038     0.003792451423    78.918337600000
         C            0.266630392197     0.000052369962     0.003858451423    12.000000000000
         C            0.947577392197     1.217594369962     0.003896451423    12.000000000000
         C            0.947536092197    -1.217560930038    -0.046137548577    12.000000000000
         C            2.343690392197     1.208355369962     0.003941451423    12.000000000000
         C            2.343627392197    -1.208404630038     0.003908451423    12.000000000000
         C            3.044150392197    -0.000030630038     0.003946451423    12.000000000000
         H            0.394438392197     2.152608369962     0.003893451423     1.007825032230
         H            0.394300392197    -2.152515630038     0.003831451423     1.007825032230
         H            2.882101392197     2.153085369962     0.003970451423     1.007825032230
         H            2.882018392197    -2.153148630038     0.003912451423     1.007825032230
         H            4.131172392197    -0.000050630038     0.003980451423     1.007825032230

  Basis Set: AUG-CC-PVTZ
    Blend: AUG-CC-PVTZ
  Basis Set: (AUG-CC-PVTZ AUX)
    Blend: AUG-CC-PVTZ-JKFIT
	 Reference Energy          =   -2802.6563727664215548 [Eh]
	 Singles Energy            =      -0.0000000000000000 [Eh]
	 Same-Spin Energy          =      -0.3495064813323496 [Eh]
	 Opposite-Spin Energy      =      -1.0130176643645235 [Eh]
	 Correlation Energy        =      -1.3625241456968731 [Eh]
	 Total Energy              =   -2804.0188969121186346 [Eh]

	 ================> DF-SCS-MP2 Energies <==================
	-----------------------------------------------------------
	 SCS Same-Spin Scale       =       0.3333333333333333 [-]
	 SCS Opposite-Spin Scale   =       1.2000000000000000 [-]
	 SCS Same-Spin Energy      =      -0.1165021604441165 [Eh]
	 SCS Opposite-Spin Energy  =      -1.2156211972374280 [Eh]
	 SCS Correlation Energy    =      -1.3321233576815446 [Eh]
	 SCS Total Energy          =   -2803.9884961241032215 [Eh]
	-----------------------------------------------------------

  Dipole Moment: [D]
     X:     1.7771      Y:     0.0047      Z:     0.0211     Total:     1.7773

*** Psi4 exiting successfully. Buy a developer a beer!
