                               Psi4 1.3.2 release

  ==> Input File <==

--------------------------------------------------------------------------
#psi4
#
memory 32 gb

molecule  {
0 1
 Br       -1.8067700     0.0000000    -0.0000600
  C        0.1006220     0.0000530     0.0000060
  C        0.7815690     1.2175950     0.0000440
  C        0.7815361    -1.2175568    -0.2999900
  C        2.1776820     1.2083560     0.0000890
  C        2.1776190    -1.2084040     0.0000560
  C        2.8781420    -0.0000300     0.0000940
  H        0.2284300     2.1526090     0.0000410
  H        0.2282920    -2.1525150    -0.0000210
  H        2.7160930     2.1530860     0.0001180
  H        2.7160100    -2.1531480     0.0000600
  H        3.9651640    -0.0000500     0.0001280
units angstrom
no_reorient  #important for SAPT in psi4, default
symmetry c1  #important for SAPT in psi4, default
}

set PROPERTIES_ORIGIN ["COM"]
properties('MP2/aug-cc-pvtz', properties = ['dipole'])
--------------------------------------------------------------------------

    Molecular point group: c1
  Charge       = 0
  Multiplicity = 1
  Basis Set: AUG-CC-PVTZ
    Blend: AUG-CC-PVTZ
  Basis Set: (AUG-CC-PVTZ AUX)
    Blend: AUG-CC-PVTZ-JKFIT

    Orbital Energies [Eh]
    ---------------------

    Doubly Occupied:

       1A   -490.025085     2A    -65.164849     3A    -58.520150
       4A    -58.518778     5A    -58.518744     6A    -11.310718
       7A    -11.262532     8A    -11.260740     9A    -11.258190
      10A    -11.254698    11A    -11.249822    12A     -9.837607
      13A     -7.449169    14A     -7.442443    15A     -7.442364
      16A     -3.192921    17A     -3.189435    18A     -3.189182
      19A     -3.180592    20A     -3.180586    21A     -1.171630
      22A     -1.069777    23A     -1.029234    24A     -0.973043
      25A     -0.843196    26A     -0.813025    27A     -0.704721
      28A     -0.643434    29A     -0.637138    30A     -0.598667
      31A     -0.572614    32A     -0.531102    33A     -0.507738
      34A     -0.490035    35A     -0.437222    36A     -0.415926
      37A     -0.353101    38A     -0.334053

  @DF-RHF Final Energy: -2802.62904505996357

   => Energetics <=

    Nuclear Repulsion Energy =            428.9786994928915078
    One-Electron Energy =               -4746.0669698224673994
    Two-Electron Energy =                1514.4592252696118067
    Total Energy =                      -2802.6290450599635733
  Basis Set: (AUG-CC-PVTZ AUX)
    Blend: AUG-CC-PVTZ-RI
    Molecular point group: c1

    Geometry (in Angstrom), charge = 0, multiplicity = 1:

       Center              X                  Y                   Z               Mass
    ------------   -----------------  -----------------  -----------------  -----------------
         BR          -1.640762254134    -0.000000899342     0.023028465826    78.918337600000
         C            0.266629745866     0.000052100658     0.023094465826    12.000000000000
         C            0.947576745866     1.217594100658     0.023132465826    12.000000000000
         C            0.947543845866    -1.217557699342    -0.276901534174    12.000000000000
         C            2.343689745866     1.208355100658     0.023177465826    12.000000000000
         C            2.343626745866    -1.208404899342     0.023144465826    12.000000000000
         C            3.044149745866    -0.000030899342     0.023182465826    12.000000000000
         H            0.394437745866     2.152608100658     0.023129465826     1.007825032230
         H            0.394299745866    -2.152515899342     0.023067465826     1.007825032230
         H            2.882100745866     2.153085100658     0.023206465826     1.007825032230
         H            2.882017745866    -2.153148899342     0.023148465826     1.007825032230
         H            4.131171745866    -0.000050899342     0.023216465826     1.007825032230

  Basis Set: AUG-CC-PVTZ
    Blend: AUG-CC-PVTZ
  Basis Set: (AUG-CC-PVTZ AUX)
    Blend: AUG-CC-PVTZ-JKFIT
	 Reference Energy          =   -2802.6290450599635733 [Eh]
	 Singles Energy            =      -0.0000000000000000 [Eh]
	 Same-Spin Energy          =      -0.3507919476484704 [Eh]
	 Opposite-Spin Energy      =      -1.0170583570031164 [Eh]
	 Correlation Energy        =      -1.3678503046515869 [Eh]
	 Total Energy              =   -2803.9968953646152841 [Eh]

	 ================> DF-SCS-MP2 Energies <==================
	-----------------------------------------------------------
	 SCS Same-Spin Scale       =       0.3333333333333333 [-]
	 SCS Opposite-Spin Scale   =       1.2000000000000000 [-]
	 SCS Same-Spin Energy      =      -0.1169306492161568 [Eh]
	 SCS Opposite-Spin Energy  =      -1.2204700284037397 [Eh]
	 SCS Correlation Energy    =      -1.3374006776198966 [Eh]
	 SCS Total Energy          =   -2803.9664457375833990 [Eh]
	-----------------------------------------------------------

  Dipole Moment: [D]
     X:     1.8658      Y:     0.1581      Z:     0.1382     Total:     1.8776

*** Psi4 exiting successfully. Buy a developer a beer!
