                               Psi4 1.3.2 release

  ==> Input File <==

--------------------------------------------------------------------------
#psi4
#
memory 32 gb

molecule  {
0 1
 Br       -1.8067700     0.0000000    -0.0000600
  C        0.1006220     0.0000530     0.0000060
  C        0.7815690     1.2175950     0.0000440
  C        0.7815260    -1.2175610     0.0000100
  C        2.1776820     1.2083560     0.0000890
  C        2.1776190    -1.2084040     0.0000560
  C        2.8781420    -0.0000300     0.0000940
  H        0.2284300     2.1526090     0.0000410
  H        0.2282920    -2.1525150    -0.0000210
  H        2.7160930     2.1530860     0.0001180
  H        2.7160132    -2.1531467    -0.0999400
  H        3.9651640    -0.0000500     0.0001280
units angstrom
no_reorient  #important for SAPT in psi4, default
symmetry c1  #important for SAPT in psi4, default
}

set PROPERTIES_ORIGIN ["COM"]
properties('MP2/aug-cc-pvtz', properties = ['dipole'])
--------------------------------------------------------------------------

    Molecular point group: c1
  Charge       = 0
  Multiplicity = 1
  Basis Set: AUG-CC-PVTZ
    Blend: AUG-CC-PVTZ
  Basis Set: (AUG-CC-PVTZ AUX)
    Blend: AUG-CC-PVTZ-JKFIT

    Orbital Energies [Eh]
    ---------------------

    Doubly Occupied:

       1A   -490.024761     2A    -65.164501     3A    -58.519811
       4A    -58.518430     5A    -58.518408     6A    -11.303625
       7A    -11.255683     8A    -11.255652     9A    -11.253733
      10A    -11.253342    11A    -11.250379    12A     -9.837233
      13A     -7.448807    14A     -7.442044    15A     -7.442026
      16A     -3.192556    17A     -3.189043    18A     -3.188854
      19A     -3.180218    20A     -3.180212    21A     -1.174595
      22A     -1.069850    23A     -1.032691    24A     -0.974133
      25A     -0.845212    26A     -0.817563    27A     -0.709608
      28A     -0.644663    29A     -0.643283    30A     -0.604548
      31A     -0.573894    32A     -0.533151    33A     -0.515410
      34A     -0.491256    35A     -0.438547    36A     -0.416474
      37A     -0.353260    38A     -0.335362

  @DF-RHF Final Energy: -2802.65649851087028

   => Energetics <=

    Nuclear Repulsion Energy =            430.0688322433204007
    One-Electron Energy =               -4748.2650271686534325
    Two-Electron Energy =                1515.5396964144624690
    Total Energy =                      -2802.6564985108702786
  Basis Set: (AUG-CC-PVTZ AUX)
    Blend: AUG-CC-PVTZ-RI
    Molecular point group: c1

    Geometry (in Angstrom), charge = 0, multiplicity = 1:

       Center              X                  Y                   Z               Mass
    ------------   -----------------  -----------------  -----------------  -----------------
         BR          -1.640761497678    -0.000000584578     0.000591466437    78.918337600000
         C            0.266630502322     0.000052415422     0.000657466437    12.000000000000
         C            0.947577502322     1.217594415422     0.000695466437    12.000000000000
         C            0.947534502322    -1.217561584578     0.000661466437    12.000000000000
         C            2.343690502322     1.208355415422     0.000740466437    12.000000000000
         C            2.343627502322    -1.208404584578     0.000707466437    12.000000000000
         C            3.044150502322    -0.000030584578     0.000745466437    12.000000000000
         H            0.394438502322     2.152608415422     0.000692466437     1.007825032230
         H            0.394300502322    -2.152515584578     0.000630466437     1.007825032230
         H            2.882101502322     2.153085415422     0.000769466437     1.007825032230
         H            2.882021702322    -2.153147284578    -0.099288533563     1.007825032230
         H            4.131172502322    -0.000050584578     0.000779466437     1.007825032230

  Basis Set: AUG-CC-PVTZ
    Blend: AUG-CC-PVTZ
  Basis Set: (AUG-CC-PVTZ AUX)
    Blend: AUG-CC-PVTZ-JKFIT
	 Reference Energy          =   -2802.6564985108702786 [Eh]
	 Singles Energy            =      -0.0000000000000000 [Eh]
	 Same-Spin Energy          =      -0.3495108827919998 [Eh]
	 Opposite-Spin Energy      =      -1.0129922782175558 [Eh]
	 Correlation Energy        =      -1.3625031610095557 [Eh]
	 Total Energy              =   -2804.0190016718797779 [Eh]

	 ================> DF-SCS-MP2 Energies <==================
	-----------------------------------------------------------
	 SCS Same-Spin Scale       =       0.3333333333333333 [-]
	 SCS Opposite-Spin Scale   =       1.2000000000000000 [-]
	 SCS Same-Spin Energy      =      -0.1165036275973333 [Eh]
	 SCS Opposite-Spin Energy  =      -1.2155907338610670 [Eh]
	 SCS Correlation Energy    =      -1.3320943614584002 [Eh]
	 SCS Total Energy          =   -2803.9885928723288089 [Eh]
	-----------------------------------------------------------

  Dipole Moment: [D]
     X:     1.7702      Y:     0.0070      Z:    -0.0620     Total:     1.7713

*** Psi4 exiting successfully. Buy a developer a beer!
