                               Psi4 1.3.2 release

  ==> Input File <==

--------------------------------------------------------------------------
#psi4
#
memory 32 gb

molecule  {
0 1
 Br       -1.8067700     0.0000000    -0.0000600
  C        0.1006220     0.0000530     0.0000060
  C        0.7815690     1.2175950     0.0000440
  C        0.7815260    -1.2175610     0.0000100
  C        2.1776820     1.2083560     0.0000890
  C        2.1776190    -1.2084040     0.0000560
  C        2.8781420    -0.0000300     0.0000940
  H        0.2284300     2.1526090     0.0000410
  H        0.2282969    -2.1525128    -0.1500210
  H        2.7160930     2.1530860     0.0001180
  H        2.7160100    -2.1531480     0.0000600
  H        3.9651640    -0.0000500     0.0001280
units angstrom
no_reorient  #important for SAPT in psi4, default
symmetry c1  #important for SAPT in psi4, default
}

set PROPERTIES_ORIGIN ["COM"]
properties('MP2/aug-cc-pvtz', properties = ['dipole'])
--------------------------------------------------------------------------

    Molecular point group: c1
  Charge       = 0
  Multiplicity = 1
  Basis Set: AUG-CC-PVTZ
    Blend: AUG-CC-PVTZ
  Basis Set: (AUG-CC-PVTZ AUX)
    Blend: AUG-CC-PVTZ-JKFIT

    Orbital Energies [Eh]
    ---------------------

    Doubly Occupied:

       1A   -490.024739     2A    -65.164480     3A    -58.519789
       4A    -58.518408     5A    -58.518385     6A    -11.303751
       7A    -11.256360     8A    -11.255636     9A    -11.253643
      10A    -11.253421    11A    -11.250350    12A     -9.837212
      13A     -7.448787    14A     -7.442031    15A     -7.441996
      16A     -3.192537    17A     -3.189026    18A     -3.188829
      19A     -3.180196    20A     -3.180189    21A     -1.174592
      22A     -1.069881    23A     -1.032573    24A     -0.974076
      25A     -0.845009    26A     -0.817546    27A     -0.708884
      28A     -0.644685    29A     -0.643237    30A     -0.604095
      31A     -0.573753    32A     -0.533450    33A     -0.514649
      34A     -0.491176    35A     -0.438616    36A     -0.416430
      37A     -0.353203    38A     -0.335363

  @DF-RHF Final Energy: -2802.65569162029351

   => Energetics <=

    Nuclear Repulsion Energy =            430.0409863525586047
    One-Electron Energy =               -4748.2113871126157392
    Two-Electron Energy =                1515.5147091397639088
    Total Energy =                      -2802.6556916202935099
  Basis Set: (AUG-CC-PVTZ AUX)
    Blend: AUG-CC-PVTZ-RI
    Molecular point group: c1

    Geometry (in Angstrom), charge = 0, multiplicity = 1:

       Center              X                  Y                   Z               Mass
    ------------   -----------------  -----------------  -----------------  -----------------
         BR          -1.640761508663    -0.000000590394     0.000914575384    78.918337600000
         C            0.266630491337     0.000052409606     0.000980575384    12.000000000000
         C            0.947577491337     1.217594409606     0.001018575384    12.000000000000
         C            0.947534491337    -1.217561590394     0.000984575384    12.000000000000
         C            2.343690491337     1.208355409606     0.001063575384    12.000000000000
         C            2.343627491337    -1.208404590394     0.001030575384    12.000000000000
         C            3.044150491337    -0.000030590394     0.001068575384    12.000000000000
         H            0.394438491337     2.152608409606     0.001015575384     1.007825032230
         H            0.394305391337    -2.152513390394    -0.149046424616     1.007825032230
         H            2.882101491337     2.153085409606     0.001092575384     1.007825032230
         H            2.882018491337    -2.153148590394     0.001034575384     1.007825032230
         H            4.131172491337    -0.000050590394     0.001102575384     1.007825032230

  Basis Set: AUG-CC-PVTZ
    Blend: AUG-CC-PVTZ
  Basis Set: (AUG-CC-PVTZ AUX)
    Blend: AUG-CC-PVTZ-JKFIT
	 Reference Energy          =   -2802.6556916202935099 [Eh]
	 Singles Energy            =      -0.0000000000000000 [Eh]
	 Same-Spin Energy          =      -0.3495594036192349 [Eh]
	 Opposite-Spin Energy      =      -1.0130860227801355 [Eh]
	 Correlation Energy        =      -1.3626454263993704 [Eh]
	 Total Energy              =   -2804.0183370466929773 [Eh]

	 ================> DF-SCS-MP2 Energies <==================
	-----------------------------------------------------------
	 SCS Same-Spin Scale       =       0.3333333333333333 [-]
	 SCS Opposite-Spin Scale   =       1.2000000000000000 [-]
	 SCS Same-Spin Energy      =      -0.1165198012064116 [Eh]
	 SCS Opposite-Spin Energy  =      -1.2157032273361625 [Eh]
	 SCS Correlation Energy    =      -1.3322230285425742 [Eh]
	 SCS Total Energy          =   -2803.9879146488360675 [Eh]
	-----------------------------------------------------------

  Dipole Moment: [D]
     X:     1.7823      Y:     0.0138      Z:    -0.0910     Total:     1.7846

*** Psi4 exiting successfully. Buy a developer a beer!
