                               Psi4 1.3.2 release

  ==> Input File <==

--------------------------------------------------------------------------
#psi4
#
memory 32 gb

molecule  {
0 1
 Br       -1.8067700     0.0000000    -0.0000600
  C        0.1006220     0.0000530     0.0000060
  C        0.7815690     1.2175950     0.0000440
  C        0.7815260    -1.2175610     0.0000100
  C        2.1776820     1.2083560     0.0000890
  C        2.1776190    -1.2084040     0.0000560
  C        2.8781420    -0.0000300     0.0000940
  H        0.2284300     2.1526090     0.0000410
  H        0.2282920    -2.1525150    -0.0000210
  H        2.7160930     2.1530860     0.0001180
  H        2.7160116    -2.1531473    -0.0499400
  H        3.9651640    -0.0000500     0.0001280
units angstrom
no_reorient  #important for SAPT in psi4, default
symmetry c1  #important for SAPT in psi4, default
}

set PROPERTIES_ORIGIN ["COM"]
properties('MP2/aug-cc-pvtz', properties = ['dipole'])
--------------------------------------------------------------------------

    Molecular point group: c1
  Charge       = 0
  Multiplicity = 1
  Basis Set: AUG-CC-PVTZ
    Blend: AUG-CC-PVTZ
  Basis Set: (AUG-CC-PVTZ AUX)
    Blend: AUG-CC-PVTZ-JKFIT

    Orbital Energies [Eh]
    ---------------------

    Doubly Occupied:

       1A   -490.024746     2A    -65.164485     3A    -58.519795
       4A    -58.518414     5A    -58.518392     6A    -11.303604
       7A    -11.255607     8A    -11.255581     9A    -11.253510
      10A    -11.253268    11A    -11.250313    12A     -9.837216
      13A     -7.448790    14A     -7.442028    15A     -7.442009
      16A     -3.192539    17A     -3.189027    18A     -3.188837
      19A     -3.180202    20A     -3.180195    21A     -1.174570
      22A     -1.069846    23A     -1.032740    24A     -0.974114
      25A     -0.845362    26A     -0.817657    27A     -0.709682
      28A     -0.644633    29A     -0.643675    30A     -0.604753
      31A     -0.573860    32A     -0.532951    33A     -0.515775
      34A     -0.491285    35A     -0.438581    36A     -0.416459
      37A     -0.353297    38A     -0.335347

  @DF-RHF Final Energy: -2802.65697412562349

   => Energetics <=

    Nuclear Repulsion Energy =            430.0820588568469134
    One-Electron Energy =               -4748.2917792127136636
    Two-Electron Energy =                1515.5527462302432014
    Total Energy =                      -2802.6569741256234920
  Basis Set: (AUG-CC-PVTZ AUX)
    Blend: AUG-CC-PVTZ-RI
    Molecular point group: c1

    Geometry (in Angstrom), charge = 0, multiplicity = 1:

       Center              X                  Y                   Z               Mass
    ------------   -----------------  -----------------  -----------------  -----------------
         BR          -1.640761487338    -0.000000580701     0.000268357489    78.918337600000
         C            0.266630512662     0.000052419299     0.000334357489    12.000000000000
         C            0.947577512662     1.217594419299     0.000372357489    12.000000000000
         C            0.947534512662    -1.217561580701     0.000338357489    12.000000000000
         C            2.343690512662     1.208355419299     0.000417357489    12.000000000000
         C            2.343627512662    -1.208404580701     0.000384357489    12.000000000000
         C            3.044150512662    -0.000030580701     0.000422357489    12.000000000000
         H            0.394438512662     2.152608419299     0.000369357489     1.007825032230
         H            0.394300512662    -2.152515580701     0.000307357489     1.007825032230
         H            2.882101512662     2.153085419299     0.000446357489     1.007825032230
         H            2.882020112662    -2.153147880701    -0.049611642511     1.007825032230
         H            4.131172512662    -0.000050580701     0.000456357489     1.007825032230

  Basis Set: AUG-CC-PVTZ
    Blend: AUG-CC-PVTZ
  Basis Set: (AUG-CC-PVTZ AUX)
    Blend: AUG-CC-PVTZ-JKFIT
	 Reference Energy          =   -2802.6569741256234920 [Eh]
	 Singles Energy            =      -0.0000000000000000 [Eh]
	 Same-Spin Energy          =      -0.3494899468005505 [Eh]
	 Opposite-Spin Energy      =      -1.0129364565912951 [Eh]
	 Correlation Energy        =      -1.3624264033918456 [Eh]
	 Total Energy              =   -2804.0194005290154564 [Eh]

	 ================> DF-SCS-MP2 Energies <==================
	-----------------------------------------------------------
	 SCS Same-Spin Scale       =       0.3333333333333333 [-]
	 SCS Opposite-Spin Scale   =       1.2000000000000000 [-]
	 SCS Same-Spin Energy      =      -0.1164966489335168 [Eh]
	 SCS Opposite-Spin Energy  =      -1.2155237479095540 [Eh]
	 SCS Correlation Energy    =      -1.3320203968430708 [Eh]
	 SCS Total Energy          =   -2803.9889945224667827 [Eh]
	-----------------------------------------------------------

  Dipole Moment: [D]
     X:     1.7734      Y:     0.0018      Z:    -0.0311     Total:     1.7737

*** Psi4 exiting successfully. Buy a developer a beer!
