                               Psi4 1.3.2 release

  ==> Input File <==

--------------------------------------------------------------------------
#psi4
#
memory 32 gb

molecule  {
0 1
 Br       -1.8067700     0.0000000    -0.0000600
  C        0.1006220     0.0000530     0.0000060
  C        0.7815690     1.2175950     0.0000440
  C        0.7815260    -1.2175610     0.0000100
  C        2.1776820     1.2083560     0.0000890
  C        2.1776190    -1.2084040     0.0000560
  C        2.8781420    -0.0000300     0.0000940
  H        0.2284300     2.1526090     0.0000410
  H        0.2282920    -2.1525150    -0.0000210
  H        2.7160930     2.1530860     0.0001180
  H        2.7160100    -2.1531480     0.0000600
  H        3.9651593    -0.0000520     0.1501280
units angstrom
no_reorient  #important for SAPT in psi4, default
symmetry c1  #important for SAPT in psi4, default
}

set PROPERTIES_ORIGIN ["COM"]
properties('MP2/aug-cc-pvtz', properties = ['dipole'])
--------------------------------------------------------------------------

    Molecular point group: c1
  Charge       = 0
  Multiplicity = 1
  Basis Set: AUG-CC-PVTZ
    Blend: AUG-CC-PVTZ
  Basis Set: (AUG-CC-PVTZ AUX)
    Blend: AUG-CC-PVTZ-JKFIT

    Orbital Energies [Eh]
    ---------------------

    Doubly Occupied:

       1A   -490.024871     2A    -65.164609     3A    -58.519919
       4A    -58.518538     5A    -58.518515     6A    -11.303807
       7A    -11.255650     8A    -11.255627     9A    -11.253675
      10A    -11.253381    11A    -11.251099    12A     -9.837340
      13A     -7.448914    14A     -7.442151    15A     -7.442131
      16A     -3.192664    17A     -3.189151    18A     -3.188960
      19A     -3.180324    20A     -3.180318    21A     -1.174640
      22A     -1.069787    23A     -1.032856    24A     -0.973898
      25A     -0.845495    26A     -0.817228    27A     -0.708404
      28A     -0.644706    29A     -0.643826    30A     -0.604903
      31A     -0.572735    32A     -0.532650    33A     -0.515992
      34A     -0.491036    35A     -0.438389    36A     -0.416570
      37A     -0.353396    38A     -0.335271

  @DF-RHF Final Energy: -2802.65568850853288

   => Energetics <=

    Nuclear Repulsion Energy =            430.0475628378779334
    One-Electron Energy =               -4748.2196589134791793
    Two-Electron Energy =                1515.5164075670684269
    Total Energy =                      -2802.6556885085328759
  Basis Set: (AUG-CC-PVTZ AUX)
    Blend: AUG-CC-PVTZ-RI
    Molecular point group: c1

    Geometry (in Angstrom), charge = 0, multiplicity = 1:

       Center              X                  Y                   Z               Mass
    ------------   -----------------  -----------------  -----------------  -----------------
         BR          -1.640761446626    -0.000000563253    -0.001024078300    78.918337600000
         C            0.266630553374     0.000052436747    -0.000958078300    12.000000000000
         C            0.947577553374     1.217594436747    -0.000920078300    12.000000000000
         C            0.947534553374    -1.217561563253    -0.000954078300    12.000000000000
         C            2.343690553374     1.208355436747    -0.000875078300    12.000000000000
         C            2.343627553374    -1.208404563253    -0.000908078300    12.000000000000
         C            3.044150553374    -0.000030563253    -0.000870078300    12.000000000000
         H            0.394438553374     2.152608436747    -0.000923078300     1.007825032230
         H            0.394300553374    -2.152515563253    -0.000985078300     1.007825032230
         H            2.882101553374     2.153085436747    -0.000846078300     1.007825032230
         H            2.882018553374    -2.153148563253    -0.000904078300     1.007825032230
         H            4.131167853374    -0.000052563253     0.149163921700     1.007825032230

  Basis Set: AUG-CC-PVTZ
    Blend: AUG-CC-PVTZ
  Basis Set: (AUG-CC-PVTZ AUX)
    Blend: AUG-CC-PVTZ-JKFIT
	 Reference Energy          =   -2802.6556885085328759 [Eh]
	 Singles Energy            =      -0.0000000000000000 [Eh]
	 Same-Spin Energy          =      -0.3495585430033176 [Eh]
	 Opposite-Spin Energy      =      -1.0131198978477165 [Eh]
	 Correlation Energy        =      -1.3626784408510342 [Eh]
	 Total Energy              =   -2804.0183669493840171 [Eh]

	 ================> DF-SCS-MP2 Energies <==================
	-----------------------------------------------------------
	 SCS Same-Spin Scale       =       0.3333333333333333 [-]
	 SCS Opposite-Spin Scale   =       1.2000000000000000 [-]
	 SCS Same-Spin Energy      =      -0.1165195143344392 [Eh]
	 SCS Opposite-Spin Energy  =      -1.2157438774172598 [Eh]
	 SCS Correlation Energy    =      -1.3322633917516988 [Eh]
	 SCS Total Energy          =   -2803.9879519002847701 [Eh]
	-----------------------------------------------------------

  Dipole Moment: [D]
     X:     1.7534      Y:     0.0000      Z:     0.0957     Total:     1.7560

*** Psi4 exiting successfully. Buy a developer a beer!
