                               Psi4 1.3.2 release

  ==> Input File <==

--------------------------------------------------------------------------
#psi4
#
memory 32 gb

molecule  {
0 1
 Br       -1.8067700     0.0000000    -0.0000600
  C        0.1006220     0.0000530     0.0000060
  C        0.7815690     1.2175950     0.0000440
  C        0.7815260    -1.2175610     0.0000100
  C        2.1776820     1.2083560     0.0000890
  C        2.1776190    -1.2084040     0.0000560
  C        2.8781420    -0.0000300     0.0000940
  H        0.2284300     2.1526090     0.0000410
  H        0.2282920    -2.1525150    -0.0000210
  H        2.7160930     2.1530860     0.0001180
  H        2.7160100    -2.1531480     0.0000600
  H        3.9651609    -0.0000514     0.1001280
units angstrom
no_reorient  #important for SAPT in psi4, default
symmetry c1  #important for SAPT in psi4, default
}

set PROPERTIES_ORIGIN ["COM"]
properties('MP2/aug-cc-pvtz', properties = ['dipole'])
--------------------------------------------------------------------------

    Molecular point group: c1
  Charge       = 0
  Multiplicity = 1
  Basis Set: AUG-CC-PVTZ
    Blend: AUG-CC-PVTZ
  Basis Set: (AUG-CC-PVTZ AUX)
    Blend: AUG-CC-PVTZ-JKFIT

    Orbital Energies [Eh]
    ---------------------

    Doubly Occupied:

       1A   -490.024798     2A    -65.164537     3A    -58.519847
       4A    -58.518466     5A    -58.518444     6A    -11.303690
       7A    -11.255612     8A    -11.255587     9A    -11.253548
      10A    -11.253292    11A    -11.250654    12A     -9.837268
      13A     -7.448842    14A     -7.442080    15A     -7.442060
      16A     -3.192592    17A     -3.189079    18A     -3.188889
      19A     -3.180253    20A     -3.180246    21A     -1.174596
      22A     -1.069818    23A     -1.032800    24A     -0.974012
      25A     -0.845449    26A     -0.817479    27A     -0.709120
      28A     -0.644660    29A     -0.643814    30A     -0.604856
      31A     -0.573352    32A     -0.532779    33A     -0.515939
      34A     -0.491180    35A     -0.438502    36A     -0.416506
      37A     -0.353347    38A     -0.335309

  @DF-RHF Final Energy: -2802.65650157663549

   => Energetics <=

    Nuclear Repulsion Energy =            430.0690843498733216
    One-Electron Energy =               -4748.2645787438486877
    Two-Electron Energy =                1515.5389928173399312
    Total Energy =                      -2802.6565015766354918
  Basis Set: (AUG-CC-PVTZ AUX)
    Blend: AUG-CC-PVTZ-RI
    Molecular point group: c1

    Geometry (in Angstrom), charge = 0, multiplicity = 1:

       Center              X                  Y                   Z               Mass
    ------------   -----------------  -----------------  -----------------  -----------------
         BR          -1.640761456966    -0.000000567130    -0.000700969353    78.918337600000
         C            0.266630543034     0.000052432870    -0.000634969353    12.000000000000
         C            0.947577543034     1.217594432870    -0.000596969353    12.000000000000
         C            0.947534543034    -1.217561567130    -0.000630969353    12.000000000000
         C            2.343690543034     1.208355432870    -0.000551969353    12.000000000000
         C            2.343627543034    -1.208404567130    -0.000584969353    12.000000000000
         C            3.044150543034    -0.000030567130    -0.000546969353    12.000000000000
         H            0.394438543034     2.152608432870    -0.000599969353     1.007825032230
         H            0.394300543034    -2.152515567130    -0.000661969353     1.007825032230
         H            2.882101543034     2.153085432870    -0.000522969353     1.007825032230
         H            2.882018543034    -2.153148567130    -0.000580969353     1.007825032230
         H            4.131169443034    -0.000051967130     0.099487030647     1.007825032230

  Basis Set: AUG-CC-PVTZ
    Blend: AUG-CC-PVTZ
  Basis Set: (AUG-CC-PVTZ AUX)
    Blend: AUG-CC-PVTZ-JKFIT
	 Reference Energy          =   -2802.6565015766354918 [Eh]
	 Singles Energy            =      -0.0000000000000000 [Eh]
	 Same-Spin Energy          =      -0.3495164467517192 [Eh]
	 Opposite-Spin Energy      =      -1.0130070099679498 [Eh]
	 Correlation Energy        =      -1.3625234567196691 [Eh]
	 Total Energy              =   -2804.0190250333553195 [Eh]

	 ================> DF-SCS-MP2 Energies <==================
	-----------------------------------------------------------
	 SCS Same-Spin Scale       =       0.3333333333333333 [-]
	 SCS Opposite-Spin Scale   =       1.2000000000000000 [-]
	 SCS Same-Spin Energy      =      -0.1165054822505731 [Eh]
	 SCS Opposite-Spin Energy  =      -1.2156084119615398 [Eh]
	 SCS Correlation Energy    =      -1.3321138942121129 [Eh]
	 SCS Total Energy          =   -2803.9886154708474351 [Eh]
	-----------------------------------------------------------

  Dipole Moment: [D]
     X:     1.7650      Y:     0.0000      Z:     0.0640     Total:     1.7662

*** Psi4 exiting successfully. Buy a developer a beer!
