                               Psi4 1.3.2 release

  ==> Input File <==

--------------------------------------------------------------------------
#psi4
#
memory 32 gb

molecule  {
0 1
 Br       -1.8067700     0.0000000    -0.0000600
  C        0.1006220     0.0000530     0.0000060
  C        0.7815690     1.2175950     0.0000440
  C        0.7815260    -1.2175610     0.0000100
  C        2.1776820     1.2083560     0.0000890
  C        2.1776190    -1.2084040     0.0000560
  C        2.8781420    -0.0000300     0.0000940
  H        0.2284300     2.1526090     0.0000410
  H        0.2282920    -2.1525150    -0.0000210
  H        2.7160930     2.1530860     0.0001180
  H        2.7160100    -2.1531480     0.0000600
  H        3.9651562    -0.0000534     0.2501280
units angstrom
no_reorient  #important for SAPT in psi4, default
symmetry c1  #important for SAPT in psi4, default
}

set PROPERTIES_ORIGIN ["COM"]
properties('MP2/aug-cc-pvtz', properties = ['dipole'])
--------------------------------------------------------------------------

    Molecular point group: c1
  Charge       = 0
  Multiplicity = 1
  Basis Set: AUG-CC-PVTZ
    Blend: AUG-CC-PVTZ
  Basis Set: (AUG-CC-PVTZ AUX)
    Blend: AUG-CC-PVTZ-JKFIT

    Orbital Energies [Eh]
    ---------------------

    Doubly Occupied:

       1A   -490.025103     2A    -65.164840     3A    -58.520150
       4A    -58.518769     5A    -58.518746     6A    -11.304181
       7A    -11.255782     8A    -11.255769     9A    -11.254189
      10A    -11.253672    11A    -11.252401    12A     -9.837570
      13A     -7.449146    14A     -7.442382    15A     -7.442359
      16A     -3.192897    17A     -3.189384    18A     -3.189190
      19A     -3.180553    20A     -3.180546    21A     -1.174791
      22A     -1.069707    23A     -1.033045    24A     -0.973563
      25A     -0.845652    26A     -0.816494    27A     -0.706234
      28A     -0.644865    29A     -0.643866    30A     -0.605060
      31A     -0.570787    32A     -0.532241    33A     -0.516169
      34A     -0.490548    35A     -0.438034    36A     -0.416777
      37A     -0.353558    38A     -0.335161

  @DF-RHF Final Energy: -2802.65290733056554

   => Energetics <=

    Nuclear Repulsion Energy =            429.9803661893552089
    One-Electron Energy =               -4748.0781900246556688
    Two-Electron Energy =                1515.4449165047342376
    Total Energy =                      -2802.6529073305655402
  Basis Set: (AUG-CC-PVTZ AUX)
    Blend: AUG-CC-PVTZ-RI
    Molecular point group: c1

    Geometry (in Angstrom), charge = 0, multiplicity = 1:

       Center              X                  Y                   Z               Mass
    ------------   -----------------  -----------------  -----------------  -----------------
         BR          -1.640761426594    -0.000000554206    -0.001670296194    78.918337600000
         C            0.266630573406     0.000052445794    -0.001604296194    12.000000000000
         C            0.947577573406     1.217594445794    -0.001566296194    12.000000000000
         C            0.947534573406    -1.217561554206    -0.001600296194    12.000000000000
         C            2.343690573406     1.208355445794    -0.001521296194    12.000000000000
         C            2.343627573406    -1.208404554206    -0.001554296194    12.000000000000
         C            3.044150573406    -0.000030554206    -0.001516296194    12.000000000000
         H            0.394438573406     2.152608445794    -0.001569296194     1.007825032230
         H            0.394300573406    -2.152515554206    -0.001631296194     1.007825032230
         H            2.882101573406     2.153085445794    -0.001492296194     1.007825032230
         H            2.882018573406    -2.153148554206    -0.001550296194     1.007825032230
         H            4.131164773406    -0.000053954206     0.248517703806     1.007825032230

  Basis Set: AUG-CC-PVTZ
    Blend: AUG-CC-PVTZ
  Basis Set: (AUG-CC-PVTZ AUX)
    Blend: AUG-CC-PVTZ-JKFIT
	 Reference Energy          =   -2802.6529073305655402 [Eh]
	 Singles Energy            =      -0.0000000000000000 [Eh]
	 Same-Spin Energy          =      -0.3496929916684999 [Eh]
	 Opposite-Spin Energy      =      -1.0134892626295915 [Eh]
	 Correlation Energy        =      -1.3631822542980914 [Eh]
	 Total Energy              =   -2804.0160895848634937 [Eh]

	 ================> DF-SCS-MP2 Energies <==================
	-----------------------------------------------------------
	 SCS Same-Spin Scale       =       0.3333333333333333 [-]
	 SCS Opposite-Spin Scale   =       1.2000000000000000 [-]
	 SCS Same-Spin Energy      =      -0.1165643305561666 [Eh]
	 SCS Opposite-Spin Energy  =      -1.2161871151555097 [Eh]
	 SCS Correlation Energy    =      -1.3327514457116763 [Eh]
	 SCS Total Energy          =   -2803.9856587762774325 [Eh]
	-----------------------------------------------------------

  Dipole Moment: [D]
     X:     1.7168      Y:     0.0000      Z:     0.1576     Total:     1.7240

*** Psi4 exiting successfully. Buy a developer a beer!
