                               Psi4 1.3.2 release

  ==> Input File <==

--------------------------------------------------------------------------
#psi4
#
memory 32 gb

molecule  {
0 1
 Br       -1.8067700     0.0000000    -0.0000600
  C        0.1006220     0.0000530     0.0000060
  C        0.7815690     1.2175950     0.0000440
  C        0.7815260    -1.2175610     0.0000100
  C        2.1776820     1.2083560     0.0000890
  C        2.1776190    -1.2084040     0.0000560
  C        2.8781420    -0.0000300     0.0000940
  H        0.2284300     2.1526090     0.0000410
  H        0.2282920    -2.1525150    -0.0000210
  H        2.7160930     2.1530860     0.0001180
  H        2.7160100    -2.1531480     0.0000600
  H        3.9651578    -0.0000527     0.2001280
units angstrom
no_reorient  #important for SAPT in psi4, default
symmetry c1  #important for SAPT in psi4, default
}

set PROPERTIES_ORIGIN ["COM"]
properties('MP2/aug-cc-pvtz', properties = ['dipole'])
--------------------------------------------------------------------------

    Molecular point group: c1
  Charge       = 0
  Multiplicity = 1
  Basis Set: AUG-CC-PVTZ
    Blend: AUG-CC-PVTZ
  Basis Set: (AUG-CC-PVTZ AUX)
    Blend: AUG-CC-PVTZ-JKFIT

    Orbital Energies [Eh]
    ---------------------

    Doubly Occupied:

       1A   -490.024972     2A    -65.164710     3A    -58.520020
       4A    -58.518639     5A    -58.518616     6A    -11.303970
       7A    -11.255706     8A    -11.255686     9A    -11.253875
      10A    -11.253507    11A    -11.251698    12A     -9.837441
      13A     -7.449015    14A     -7.442252    15A     -7.442231
      16A     -3.192766    17A     -3.189253    18A     -3.189061
      19A     -3.180424    20A     -3.180418    21A     -1.174705
      22A     -1.069749    23A     -1.032938    24A     -0.973746
      25A     -0.845563    26A     -0.816895    27A     -0.707432
      28A     -0.644774    29A     -0.643843    30A     -0.604971
      31A     -0.571877    32A     -0.532470    33A     -0.516068
      34A     -0.490828    35A     -0.438233    36A     -0.416660
      37A     -0.353466    38A     -0.335221

  @DF-RHF Final Energy: -2802.65450344957162

   => Energetics <=

    Nuclear Repulsion Energy =            430.0178564116175153
    One-Electron Energy =               -4748.1573220017808126
    Two-Electron Energy =                1515.4849621405917333
    Total Energy =                      -2802.6545034495711661
  Basis Set: (AUG-CC-PVTZ AUX)
    Blend: AUG-CC-PVTZ-RI
    Molecular point group: c1

    Geometry (in Angstrom), charge = 0, multiplicity = 1:

       Center              X                  Y                   Z               Mass
    ------------   -----------------  -----------------  -----------------  -----------------
         BR          -1.640761436933    -0.000000558729    -0.001347187247    78.918337600000
         C            0.266630563067     0.000052441271    -0.001281187247    12.000000000000
         C            0.947577563067     1.217594441271    -0.001243187247    12.000000000000
         C            0.947534563067    -1.217561558729    -0.001277187247    12.000000000000
         C            2.343690563067     1.208355441271    -0.001198187247    12.000000000000
         C            2.343627563067    -1.208404558729    -0.001231187247    12.000000000000
         C            3.044150563067    -0.000030558729    -0.001193187247    12.000000000000
         H            0.394438563067     2.152608441271    -0.001246187247     1.007825032230
         H            0.394300563067    -2.152515558729    -0.001308187247     1.007825032230
         H            2.882101563067     2.153085441271    -0.001169187247     1.007825032230
         H            2.882018563067    -2.153148558729    -0.001227187247     1.007825032230
         H            4.131166363067    -0.000053258729     0.198840812753     1.007825032230

  Basis Set: AUG-CC-PVTZ
    Blend: AUG-CC-PVTZ
  Basis Set: (AUG-CC-PVTZ AUX)
    Blend: AUG-CC-PVTZ-JKFIT
	 Reference Energy          =   -2802.6545034495716209 [Eh]
	 Singles Energy            =      -0.0000000000000000 [Eh]
	 Same-Spin Energy          =      -0.3496176671586597 [Eh]
	 Opposite-Spin Energy      =      -1.0132806000610002 [Eh]
	 Correlation Energy        =      -1.3628982672196599 [Eh]
	 Total Energy              =   -2804.0174017167914826 [Eh]

	 ================> DF-SCS-MP2 Energies <==================
	-----------------------------------------------------------
	 SCS Same-Spin Scale       =       0.3333333333333333 [-]
	 SCS Opposite-Spin Scale   =       1.2000000000000000 [-]
	 SCS Same-Spin Energy      =      -0.1165392223862199 [Eh]
	 SCS Opposite-Spin Energy  =      -1.2159367200732001 [Eh]
	 SCS Correlation Energy    =      -1.3324759424594199 [Eh]
	 SCS Total Energy          =   -2803.9869793920311167 [Eh]
	-----------------------------------------------------------

  Dipole Moment: [D]
     X:     1.7372      Y:     0.0000      Z:     0.1269     Total:     1.7419

*** Psi4 exiting successfully. Buy a developer a beer!
