                               Psi4 1.3.2 release

  ==> Input File <==

--------------------------------------------------------------------------
#psi4
#
memory 32 gb

molecule  {
-1 1
  O       -2.4775990    -1.4732410    -0.5357720
  O       -2.5836320     0.8103810    -0.7086120
  C        0.1769840    -0.1996970     0.5360780
  C        0.8528670     0.9715620     0.1268880
  C       -1.2378850    -0.1617980     1.0317040
  C        0.8256870    -1.4354030     0.3918760
  C        2.1654290     0.8711020    -0.3500530
  C        0.1613040     2.3091050     0.2016770
  C        2.1298550    -1.5237740    -0.0958170
  C        2.8103870    -0.3625320    -0.4658790
  C       -2.2184660    -0.2891600    -0.2009230
  H       -1.4126520    -1.0091000     1.7035120
  H       -1.4413430     0.7679950     1.5725290
  H        0.2233085    -2.3467468     0.5166172
  H        2.6838580     1.7794620    -0.6595800
  H       -0.8491240     2.2156170    -0.2099720
  H        0.0735000     2.6566880     1.2394400
  H        0.7245490     3.0640340    -0.3581400
  H        2.6081740    -2.4970700    -0.1982670
  H        3.8302350    -0.4147610    -0.8445580
units angstrom
no_reorient  #important for SAPT in psi4, default
symmetry c1  #important for SAPT in psi4, default
}

set PROPERTIES_ORIGIN ["COM"]
properties('MP2/aug-cc-pvtz', properties = ['dipole'])
--------------------------------------------------------------------------

    Molecular point group: c1
  Charge       = -1
  Multiplicity = 1
  Basis Set: AUG-CC-PVTZ
    Blend: AUG-CC-PVTZ
  Basis Set: (AUG-CC-PVTZ AUX)
    Blend: AUG-CC-PVTZ-JKFIT

    Orbital Energies [Eh]
    ---------------------

    Doubly Occupied:

       1A    -20.309501     2A    -20.309425     3A    -11.157221
       4A    -11.118421     5A    -11.117248     6A    -11.116135
       7A    -11.114932     8A    -11.113071     9A    -11.107150
      10A    -11.092293    11A    -11.073643    12A     -1.179642
      13A     -1.083796    14A     -1.032224    15A     -0.926967
      16A     -0.907476    17A     -0.821064    18A     -0.787814
      19A     -0.688922    20A     -0.664247    21A     -0.561862
      22A     -0.533515    23A     -0.523193    24A     -0.497883
      25A     -0.462221    26A     -0.452364    27A     -0.439810
      28A     -0.428743    29A     -0.426144    30A     -0.412314
      31A     -0.384675    32A     -0.373779    33A     -0.365329
      34A     -0.350606    35A     -0.333176    36A     -0.235518
      37A     -0.226076    38A     -0.211365    39A     -0.207169
      40A     -0.176140

  @DF-RHF Final Energy:  -495.99570581543509

   => Energetics <=

    Nuclear Repulsion Energy =            572.0564574830186757
    One-Electron Energy =               -1823.4581839618322192
    Two-Electron Energy =                 755.4060206633783991
    Total Energy =                       -495.9957058154351444
  Basis Set: (AUG-CC-PVTZ AUX)
    Blend: AUG-CC-PVTZ-RI
    Molecular point group: c1

    Geometry (in Angstrom), charge = -1, multiplicity = 1:

       Center              X                  Y                   Z               Mass
    ------------   -----------------  -----------------  -----------------  -----------------
         O           -2.434199697669    -1.445061659657    -0.515551900540    15.994914619570
         O           -2.540232697669     0.838560340343    -0.688391900540    15.994914619570
         C            0.220383302331    -0.171517659657     0.556298099460    12.000000000000
         C            0.896266302331     0.999741340343     0.147108099460    12.000000000000
         C           -1.194485697669    -0.133618659657     1.051924099460    12.000000000000
         C            0.869086302331    -1.407223659657     0.412096099460    12.000000000000
         C            2.208828302331     0.899281340343    -0.329832900540    12.000000000000
         C            0.204703302331     2.337284340343     0.221897099460    12.000000000000
         C            2.173254302331    -1.495594659657    -0.075596900540    12.000000000000
         C            2.853786302331    -0.334352659657    -0.445658900540    12.000000000000
         C           -2.175066697669    -0.260980659657    -0.180702900540    12.000000000000
         H           -1.369252697669    -0.980920659657     1.723732099460     1.007825032230
         H           -1.397943697669     0.796174340343     1.592749099460     1.007825032230
         H            0.266707802331    -2.318567459657     0.536837299460     1.007825032230
         H            2.727257302331     1.807641340343    -0.639359900540     1.007825032230
         H           -0.805724697669     2.243796340343    -0.189751900540     1.007825032230
         H            0.116899302331     2.684867340343     1.259660099460     1.007825032230
         H            0.767948302331     3.092213340343    -0.337919900540     1.007825032230
         H            2.651573302331    -2.468890659657    -0.178046900540     1.007825032230
         H            3.873634302331    -0.386581659657    -0.824337900540     1.007825032230

  Basis Set: AUG-CC-PVTZ
    Blend: AUG-CC-PVTZ
  Basis Set: (AUG-CC-PVTZ AUX)
    Blend: AUG-CC-PVTZ-JKFIT
	 Reference Energy          =    -495.9957058154350875 [Eh]
	 Singles Energy            =      -0.0000000000000000 [Eh]
	 Same-Spin Energy          =      -0.5331101040840123 [Eh]
	 Opposite-Spin Energy      =      -1.6356849631041293 [Eh]
	 Correlation Energy        =      -2.1687950671881415 [Eh]
	 Total Energy              =    -498.1645008826232015 [Eh]

	 ================> DF-SCS-MP2 Energies <==================
	-----------------------------------------------------------
	 SCS Same-Spin Scale       =       0.3333333333333333 [-]
	 SCS Opposite-Spin Scale   =       1.2000000000000000 [-]
	 SCS Same-Spin Energy      =      -0.1777033680280041 [Eh]
	 SCS Opposite-Spin Energy  =      -1.9628219557249551 [Eh]
	 SCS Correlation Energy    =      -2.1405253237529593 [Eh]
	 SCS Total Energy          =    -498.1362311391880553 [Eh]
	-----------------------------------------------------------

  Dipole Moment: [D]
     X:     8.4509      Y:     1.4073      Z:     2.8859     Total:     9.0403

*** Psi4 exiting successfully. Buy a developer a beer!
