                               Psi4 1.3.2 release

  ==> Input File <==

--------------------------------------------------------------------------
#psi4
#
memory 32 gb

molecule  {
-1 1
  O       -2.4775990    -1.4732410    -0.5357720
  O       -2.5836320     0.8103810    -0.7086120
  C        0.1769840    -0.1996970     0.5360780
  C        0.8528670     0.9715620     0.1268880
  C       -1.2378850    -0.1617980     1.0317040
  C        0.8256870    -1.4354030     0.3918760
  C        2.1654290     0.8711020    -0.3500530
  C        0.1786226     2.3154085     0.2481564
  C        2.1298550    -1.5237740    -0.0958170
  C        2.8103870    -0.3625320    -0.4658790
  C       -2.2184660    -0.2891600    -0.2009230
  H       -1.4126520    -1.0091000     1.7035120
  H       -1.4413430     0.7679950     1.5725290
  H        0.2756770    -2.3364080     0.6567980
  H        2.6838580     1.7794620    -0.6595800
  H       -0.8491240     2.2156170    -0.2099720
  H        0.0735000     2.6566880     1.2394400
  H        0.7245490     3.0640340    -0.3581400
  H        2.6081740    -2.4970700    -0.1982670
  H        3.8302350    -0.4147610    -0.8445580
units angstrom
no_reorient  #important for SAPT in psi4, default
symmetry c1  #important for SAPT in psi4, default
}

set PROPERTIES_ORIGIN ["COM"]
properties('MP2/aug-cc-pvtz', properties = ['dipole'])
--------------------------------------------------------------------------

    Molecular point group: c1
  Charge       = -1
  Multiplicity = 1
  Basis Set: AUG-CC-PVTZ
    Blend: AUG-CC-PVTZ
  Basis Set: (AUG-CC-PVTZ AUX)
    Blend: AUG-CC-PVTZ-JKFIT

    Orbital Energies [Eh]
    ---------------------

    Doubly Occupied:

       1A    -20.309203     2A    -20.309034     3A    -11.156931
       4A    -11.118322     5A    -11.117201     6A    -11.116107
       7A    -11.114574     8A    -11.112665     9A    -11.106883
      10A    -11.091613    11A    -11.073729    12A     -1.179234
      13A     -1.083375    14A     -1.032116    15A     -0.926797
      16A     -0.907636    17A     -0.821185    18A     -0.787952
      19A     -0.689722    20A     -0.664496    21A     -0.562540
      22A     -0.533258    23A     -0.522293    24A     -0.499667
      25A     -0.465762    26A     -0.454571    27A     -0.440265
      28A     -0.430323    29A     -0.426756    30A     -0.403626
      31A     -0.384468    32A     -0.374091    33A     -0.364574
      34A     -0.351047    35A     -0.332171    36A     -0.235097
      37A     -0.225466    38A     -0.211319    39A     -0.207304
      40A     -0.176197

  @DF-RHF Final Energy:  -495.99436773762864

   => Energetics <=

    Nuclear Repulsion Energy =            571.8835659137713492
    One-Electron Energy =               -1823.1167299848623315
    Two-Electron Energy =                 755.2387963334622327
    Total Energy =                       -495.9943677376286360
  Basis Set: (AUG-CC-PVTZ AUX)
    Blend: AUG-CC-PVTZ-RI
    Molecular point group: c1

    Geometry (in Angstrom), charge = -1, multiplicity = 1:

       Center              X                  Y                   Z               Mass
    ------------   -----------------  -----------------  -----------------  -----------------
         O           -2.435947993927    -1.445639021488    -0.520241484102    15.994914619570
         O           -2.541980993927     0.837982978512    -0.693081484102    15.994914619570
         C            0.218635006073    -0.172095021488     0.551608515898    12.000000000000
         C            0.894518006073     0.999163978512     0.142418515898    12.000000000000
         C           -1.196233993927    -0.134196021488     1.047234515898    12.000000000000
         C            0.867338006073    -1.407801021488     0.407406515898    12.000000000000
         C            2.207080006073     0.898703978512    -0.334522484102    12.000000000000
         C            0.220273606073     2.343010478512     0.263686915898    12.000000000000
         C            2.171506006073    -1.496172021488    -0.080286484102    12.000000000000
         C            2.852038006073    -0.334930021488    -0.450348484102    12.000000000000
         C           -2.176814993927    -0.261558021488    -0.185392484102    12.000000000000
         H           -1.371000993927    -0.981498021488     1.719042515898     1.007825032230
         H           -1.399691993927     0.795596978512     1.588059515898     1.007825032230
         H            0.317328006073    -2.308806021488     0.672328515898     1.007825032230
         H            2.725509006073     1.807063978512    -0.644049484102     1.007825032230
         H           -0.807472993927     2.243218978512    -0.194441484102     1.007825032230
         H            0.115151006073     2.684289978512     1.254970515898     1.007825032230
         H            0.766200006073     3.091635978512    -0.342609484102     1.007825032230
         H            2.649825006073    -2.469468021488    -0.182736484102     1.007825032230
         H            3.871886006073    -0.387159021488    -0.829027484102     1.007825032230

  Basis Set: AUG-CC-PVTZ
    Blend: AUG-CC-PVTZ
  Basis Set: (AUG-CC-PVTZ AUX)
    Blend: AUG-CC-PVTZ-JKFIT
	 Reference Energy          =    -495.9943677376286360 [Eh]
	 Singles Energy            =      -0.0000000000000000 [Eh]
	 Same-Spin Energy          =      -0.5331539438753872 [Eh]
	 Opposite-Spin Energy      =      -1.6357363857863385 [Eh]
	 Correlation Energy        =      -2.1688903296617257 [Eh]
	 Total Energy              =    -498.1632580672903714 [Eh]

	 ================> DF-SCS-MP2 Energies <==================
	-----------------------------------------------------------
	 SCS Same-Spin Scale       =       0.3333333333333333 [-]
	 SCS Opposite-Spin Scale   =       1.2000000000000000 [-]
	 SCS Same-Spin Energy      =      -0.1777179812917957 [Eh]
	 SCS Opposite-Spin Energy  =      -1.9628836629436062 [Eh]
	 SCS Correlation Energy    =      -2.1406016442354021 [Eh]
	 SCS Total Energy          =    -498.1349693818640390 [Eh]
	-----------------------------------------------------------

  Dipole Moment: [D]
     X:     8.4724      Y:     1.3848      Z:     3.0087     Total:     9.0968

*** Psi4 exiting successfully. Buy a developer a beer!
