                               Psi4 1.3.2 release

  ==> Input File <==

--------------------------------------------------------------------------
#psi4
#
memory 32 gb

molecule  {
-1 1
  O       -2.4775990    -1.4732410    -0.5357720
  O       -2.5836320     0.8103810    -0.7086120
  C        0.1769840    -0.1996970     0.5360780
  C        0.8528670     0.9715620     0.1268880
  C       -1.1590514    -0.1627936     0.9701876
  C        0.8256870    -1.4354030     0.3918760
  C        2.1654290     0.8711020    -0.3500530
  C        0.1613040     2.3091050     0.2016770
  C        2.1298550    -1.5237740    -0.0958170
  C        2.8103870    -0.3625320    -0.4658790
  C       -2.2184660    -0.2891600    -0.2009230
  H       -1.4126520    -1.0091000     1.7035120
  H       -1.4413430     0.7679950     1.5725290
  H        0.2756770    -2.3364080     0.6567980
  H        2.6838580     1.7794620    -0.6595800
  H       -0.8491240     2.2156170    -0.2099720
  H        0.0735000     2.6566880     1.2394400
  H        0.7245490     3.0640340    -0.3581400
  H        2.6081740    -2.4970700    -0.1982670
  H        3.8302350    -0.4147610    -0.8445580
units angstrom
no_reorient  #important for SAPT in psi4, default
symmetry c1  #important for SAPT in psi4, default
}

set PROPERTIES_ORIGIN ["COM"]
properties('MP2/aug-cc-pvtz', properties = ['dipole'])
--------------------------------------------------------------------------

    Molecular point group: c1
  Charge       = -1
  Multiplicity = 1
  Basis Set: AUG-CC-PVTZ
    Blend: AUG-CC-PVTZ
  Basis Set: (AUG-CC-PVTZ AUX)
    Blend: AUG-CC-PVTZ-JKFIT

    Orbital Energies [Eh]
    ---------------------

    Doubly Occupied:

       1A    -20.310935     2A    -20.310882     3A    -11.159221
       4A    -11.118158     5A    -11.116770     6A    -11.115976
       7A    -11.114571     8A    -11.107756     9A    -11.106278
      10A    -11.092030    11A    -11.076091    12A     -1.180853
      13A     -1.084927    14A     -1.035604    15A     -0.933735
      16A     -0.911965    17A     -0.822932    18A     -0.785427
      19A     -0.690199    20A     -0.663435    21A     -0.566757
      22A     -0.532249    23A     -0.524573    24A     -0.502367
      25A     -0.463374    26A     -0.455520    27A     -0.445874
      28A     -0.425470    29A     -0.422132    30A     -0.414314
      31A     -0.380096    32A     -0.373234    33A     -0.364277
      34A     -0.342622    35A     -0.336813    36A     -0.240312
      37A     -0.225777    38A     -0.212099    39A     -0.207454
      40A     -0.171479

  @DF-RHF Final Energy:  -495.98453271674919

   => Energetics <=

    Nuclear Repulsion Energy =            573.6347711478013025
    One-Electron Energy =               -1826.5495249461325784
    Two-Electron Energy =                 756.9302210815820899
    Total Energy =                       -495.9845327167491860
  Basis Set: (AUG-CC-PVTZ AUX)
    Blend: AUG-CC-PVTZ-RI
    Molecular point group: c1

    Geometry (in Angstrom), charge = -1, multiplicity = 1:

       Center              X                  Y                   Z               Mass
    ------------   -----------------  -----------------  -----------------  -----------------
         O           -2.440900219471    -1.445051412133    -0.511547351624    15.994914619570
         O           -2.546933219471     0.838570587867    -0.684387351624    15.994914619570
         C            0.213682780529    -0.171507412133     0.560302648376    12.000000000000
         C            0.889565780529     0.999751587867     0.151112648376    12.000000000000
         C           -1.122352619471    -0.134604012133     0.994412248376    12.000000000000
         C            0.862385780529    -1.407213412133     0.416100648376    12.000000000000
         C            2.202127780529     0.899291587867    -0.325828351624    12.000000000000
         C            0.198002780529     2.337294587867     0.225901648376    12.000000000000
         C            2.166553780529    -1.495584412133    -0.071592351624    12.000000000000
         C            2.847085780529    -0.334342412133    -0.441654351624    12.000000000000
         C           -2.181767219471    -0.260970412133    -0.176698351624    12.000000000000
         H           -1.375953219471    -0.980910412133     1.727736648376     1.007825032230
         H           -1.404644219471     0.796184587867     1.596753648376     1.007825032230
         H            0.312375780529    -2.308218412133     0.681022648376     1.007825032230
         H            2.720556780529     1.807651587867    -0.635355351624     1.007825032230
         H           -0.812425219471     2.243806587867    -0.185747351624     1.007825032230
         H            0.110198780529     2.684877587867     1.263664648376     1.007825032230
         H            0.761247780529     3.092223587867    -0.333915351624     1.007825032230
         H            2.644872780529    -2.468880412133    -0.174042351624     1.007825032230
         H            3.866933780529    -0.386571412133    -0.820333351624     1.007825032230

  Basis Set: AUG-CC-PVTZ
    Blend: AUG-CC-PVTZ
  Basis Set: (AUG-CC-PVTZ AUX)
    Blend: AUG-CC-PVTZ-JKFIT
	 Reference Energy          =    -495.9845327167491860 [Eh]
	 Singles Energy            =      -0.0000000000000000 [Eh]
	 Same-Spin Energy          =      -0.5345241192721570 [Eh]
	 Opposite-Spin Energy      =      -1.6375069952931778 [Eh]
	 Correlation Energy        =      -2.1720311145653346 [Eh]
	 Total Energy              =    -498.1565638313145428 [Eh]

	 ================> DF-SCS-MP2 Energies <==================
	-----------------------------------------------------------
	 SCS Same-Spin Scale       =       0.3333333333333333 [-]
	 SCS Opposite-Spin Scale   =       1.2000000000000000 [-]
	 SCS Same-Spin Energy      =      -0.1781747064240523 [Eh]
	 SCS Opposite-Spin Energy  =      -1.9650083943518133 [Eh]
	 SCS Correlation Energy    =      -2.1431831007758655 [Eh]
	 SCS Total Energy          =    -498.1277158175250293 [Eh]
	-----------------------------------------------------------

  Dipole Moment: [D]
     X:     8.3995      Y:     1.3847      Z:     2.8573     Total:     8.9796

*** Psi4 exiting successfully. Buy a developer a beer!
