                               Psi4 1.3.2 release

  ==> Input File <==

--------------------------------------------------------------------------
#psi4
#
memory 32 gb

molecule  {
-1 1
  O       -2.4775990    -1.4732410    -0.5357720
  O       -2.5836320     0.8103810    -0.7086120
  C        0.1769840    -0.1996970     0.5360780
  C        0.8528670     0.9715620     0.1268880
  C       -1.2378850    -0.1617980     1.0317040
  C        0.8256870    -1.4354030     0.3918760
  C        2.1654290     0.8711020    -0.3500530
  C        0.1613040     2.3091050     0.2016770
  C        2.1298550    -1.5237740    -0.0958170
  C        2.8103870    -0.3625320    -0.4658790
  C       -2.2184660    -0.2891600    -0.2009230
  H       -1.4126520    -1.0091000     1.7035120
  H       -1.4413430     0.7679950     1.5725290
  H        0.2058524    -2.3501931     0.4698903
  H        2.6838580     1.7794620    -0.6595800
  H       -0.8491240     2.2156170    -0.2099720
  H        0.0735000     2.6566880     1.2394400
  H        0.7245490     3.0640340    -0.3581400
  H        2.6081740    -2.4970700    -0.1982670
  H        3.8302350    -0.4147610    -0.8445580
units angstrom
no_reorient  #important for SAPT in psi4, default
symmetry c1  #important for SAPT in psi4, default
}

set PROPERTIES_ORIGIN ["COM"]
properties('MP2/aug-cc-pvtz', properties = ['dipole'])
--------------------------------------------------------------------------

    Molecular point group: c1
  Charge       = -1
  Multiplicity = 1
  Basis Set: AUG-CC-PVTZ
    Blend: AUG-CC-PVTZ
  Basis Set: (AUG-CC-PVTZ AUX)
    Blend: AUG-CC-PVTZ-JKFIT

    Orbital Energies [Eh]
    ---------------------

    Doubly Occupied:

       1A    -20.309661     2A    -20.309516     3A    -11.157332
       4A    -11.118446     5A    -11.117302     6A    -11.116211
       7A    -11.115085     8A    -11.113269     9A    -11.107580
      10A    -11.092341    11A    -11.073623    12A     -1.179779
      13A     -1.083935    14A     -1.032246    15A     -0.927016
      16A     -0.907305    17A     -0.821028    18A     -0.787830
      19A     -0.688337    20A     -0.664232    21A     -0.561602
      22A     -0.533606    23A     -0.523200    24A     -0.496897
      25A     -0.462474    26A     -0.451863    27A     -0.439746
      28A     -0.428832    29A     -0.426194    30A     -0.412290
      31A     -0.384803    32A     -0.373683    33A     -0.365292
      34A     -0.349935    35A     -0.333273    36A     -0.235636
      37A     -0.226246    38A     -0.211381    39A     -0.207122
      40A     -0.176118

  @DF-RHF Final Energy:  -495.99449497943954

   => Energetics <=

    Nuclear Repulsion Energy =            572.0501615204382233
    One-Electron Energy =               -1823.4447800280515821
    Two-Electron Energy =                 755.4001235281738218
    Total Energy =                       -495.9944949794395370
  Basis Set: (AUG-CC-PVTZ AUX)
    Blend: AUG-CC-PVTZ-RI
    Molecular point group: c1

    Geometry (in Angstrom), charge = -1, multiplicity = 1:

       Center              X                  Y                   Z               Mass
    ------------   -----------------  -----------------  -----------------  -----------------
         O           -2.434081673622    -1.445038358561    -0.515235970988    15.994914619570
         O           -2.540114673622     0.838583641439    -0.688075970988    15.994914619570
         C            0.220501326378    -0.171494358561     0.556614029012    12.000000000000
         C            0.896384326378     0.999764641439     0.147424029012    12.000000000000
         C           -1.194367673622    -0.133595358561     1.052240029012    12.000000000000
         C            0.869204326378    -1.407200358561     0.412412029012    12.000000000000
         C            2.208946326378     0.899304641439    -0.329516970988    12.000000000000
         C            0.204821326378     2.337307641439     0.222213029012    12.000000000000
         C            2.173372326378    -1.495571358561    -0.075280970988    12.000000000000
         C            2.853904326378    -0.334329358561    -0.445342970988    12.000000000000
         C           -2.174948673622    -0.260957358561    -0.180386970988    12.000000000000
         H           -1.369134673622    -0.980897358561     1.724048029012     1.007825032230
         H           -1.397825673622     0.796197641439     1.593065029012     1.007825032230
         H            0.249369726378    -2.321990458561     0.490426329012     1.007825032230
         H            2.727375326378     1.807664641439    -0.639043970988     1.007825032230
         H           -0.805606673622     2.243819641439    -0.189435970988     1.007825032230
         H            0.117017326378     2.684890641439     1.259976029012     1.007825032230
         H            0.768066326378     3.092236641439    -0.337603970988     1.007825032230
         H            2.651691326378    -2.468867358561    -0.177730970988     1.007825032230
         H            3.873752326378    -0.386558358561    -0.824021970988     1.007825032230

  Basis Set: AUG-CC-PVTZ
    Blend: AUG-CC-PVTZ
  Basis Set: (AUG-CC-PVTZ AUX)
    Blend: AUG-CC-PVTZ-JKFIT
	 Reference Energy          =    -495.9944949794395370 [Eh]
	 Singles Energy            =      -0.0000000000000000 [Eh]
	 Same-Spin Energy          =      -0.5331850333527255 [Eh]
	 Opposite-Spin Energy      =      -1.6358389259611097 [Eh]
	 Correlation Energy        =      -2.1690239593138352 [Eh]
	 Total Energy              =    -498.1635189387533842 [Eh]

	 ================> DF-SCS-MP2 Energies <==================
	-----------------------------------------------------------
	 SCS Same-Spin Scale       =       0.3333333333333333 [-]
	 SCS Opposite-Spin Scale   =       1.2000000000000000 [-]
	 SCS Same-Spin Energy      =      -0.1777283444509085 [Eh]
	 SCS Opposite-Spin Energy  =      -1.9630067111533316 [Eh]
	 SCS Correlation Energy    =      -2.1407350556042402 [Eh]
	 SCS Total Energy          =    -498.1352300350437758 [Eh]
	-----------------------------------------------------------

  Dipole Moment: [D]
     X:     8.4420      Y:     1.4186      Z:     2.8562     Total:     9.0243

*** Psi4 exiting successfully. Buy a developer a beer!
