                               Psi4 1.3.2 release

  ==> Input File <==

--------------------------------------------------------------------------
#psi4
#
memory 32 gb

molecule  {
-1 1
  O       -2.4775990    -1.4732410    -0.5357720
  O       -2.5836320     0.8103810    -0.7086120
  C        0.1769840    -0.1996970     0.5360780
  C        0.8528670     0.9715620     0.1268880
  C       -1.0408009    -0.1642870     0.8779130
  C        0.8256870    -1.4354030     0.3918760
  C        2.1654290     0.8711020    -0.3500530
  C        0.1613040     2.3091050     0.2016770
  C        2.1298550    -1.5237740    -0.0958170
  C        2.8103870    -0.3625320    -0.4658790
  C       -2.2184660    -0.2891600    -0.2009230
  H       -1.4126520    -1.0091000     1.7035120
  H       -1.4413430     0.7679950     1.5725290
  H        0.2756770    -2.3364080     0.6567980
  H        2.6838580     1.7794620    -0.6595800
  H       -0.8491240     2.2156170    -0.2099720
  H        0.0735000     2.6566880     1.2394400
  H        0.7245490     3.0640340    -0.3581400
  H        2.6081740    -2.4970700    -0.1982670
  H        3.8302350    -0.4147610    -0.8445580
units angstrom
no_reorient  #important for SAPT in psi4, default
symmetry c1  #important for SAPT in psi4, default
}

set PROPERTIES_ORIGIN ["COM"]
properties('MP2/aug-cc-pvtz', properties = ['dipole'])
--------------------------------------------------------------------------

    Molecular point group: c1
  Charge       = -1
  Multiplicity = 1
  Basis Set: AUG-CC-PVTZ
    Blend: AUG-CC-PVTZ
  Basis Set: (AUG-CC-PVTZ AUX)
    Blend: AUG-CC-PVTZ-JKFIT

    Orbital Energies [Eh]
    ---------------------

    Doubly Occupied:

       1A    -20.315614     2A    -20.315459     3A    -11.166831
       4A    -11.117369     5A    -11.116159     6A    -11.115605
       7A    -11.114233     8A    -11.105850     9A    -11.096613
      10A    -11.091659    11A    -11.081427    12A     -1.184780
      13A     -1.088917    14A     -1.045211    15A     -0.951478
      16A     -0.915358    17A     -0.826117    18A     -0.782449
      19A     -0.691061    20A     -0.660503    21A     -0.577758
      22A     -0.534193    23A     -0.528450    24A     -0.503350
      25A     -0.467264    26A     -0.462693    27A     -0.448439
      28A     -0.423579    29A     -0.421246    30A     -0.415554
      31A     -0.378914    32A     -0.372784    33A     -0.363844
      34A     -0.348788    35A     -0.304808    36A     -0.250393
      37A     -0.225737    38A     -0.214183    39A     -0.207866
      40A     -0.161049

  @DF-RHF Final Energy:  -495.91616383491845

   => Energetics <=

    Nuclear Repulsion Energy =            576.1827167873827875
    One-Electron Energy =               -1831.4105936450064291
    Two-Electron Energy =                 759.3117130227052485
    Total Energy =                       -495.9161638349183931
  Basis Set: (AUG-CC-PVTZ AUX)
    Blend: AUG-CC-PVTZ-RI
    Molecular point group: c1

    Geometry (in Angstrom), charge = -1, multiplicity = 1:

       Center              X                  Y                   Z               Mass
    ------------   -----------------  -----------------  -----------------  -----------------
         O           -2.450419899982    -1.444931186926    -0.504118844250    15.994914619570
         O           -2.556452899982     0.838690813074    -0.676958844250    15.994914619570
         C            0.204163100018    -0.171387186926     0.567731155750    12.000000000000
         C            0.880046100018     0.999871813074     0.158541155750    12.000000000000
         C           -1.013621799982    -0.135977186926     0.909566155750    12.000000000000
         C            0.852866100018    -1.407093186926     0.423529155750    12.000000000000
         C            2.192608100018     0.899411813074    -0.318399844250    12.000000000000
         C            0.188483100018     2.337414813074     0.233330155750    12.000000000000
         C            2.157034100018    -1.495464186926    -0.064163844250    12.000000000000
         C            2.837566100018    -0.334222186926    -0.434225844250    12.000000000000
         C           -2.191286899982    -0.260850186926    -0.169269844250    12.000000000000
         H           -1.385472899982    -0.980790186926     1.735165155750     1.007825032230
         H           -1.414163899982     0.796304813074     1.604182155750     1.007825032230
         H            0.302856100018    -2.308098186926     0.688451155750     1.007825032230
         H            2.711037100018     1.807771813074    -0.627926844250     1.007825032230
         H           -0.821944899982     2.243926813074    -0.178318844250     1.007825032230
         H            0.100679100018     2.684997813074     1.271093155750     1.007825032230
         H            0.751728100018     3.092343813074    -0.326486844250     1.007825032230
         H            2.635353100018    -2.468760186926    -0.166613844250     1.007825032230
         H            3.857414100018    -0.386451186926    -0.812904844250     1.007825032230

  Basis Set: AUG-CC-PVTZ
    Blend: AUG-CC-PVTZ
  Basis Set: (AUG-CC-PVTZ AUX)
    Blend: AUG-CC-PVTZ-JKFIT
	 Reference Energy          =    -495.9161638349184500 [Eh]
	 Singles Energy            =      -0.0000000000000000 [Eh]
	 Same-Spin Energy          =      -0.5387455137816195 [Eh]
	 Opposite-Spin Energy      =      -1.6437941056558962 [Eh]
	 Correlation Energy        =      -2.1825396194375157 [Eh]
	 Total Energy              =    -498.0987034543559844 [Eh]

	 ================> DF-SCS-MP2 Energies <==================
	-----------------------------------------------------------
	 SCS Same-Spin Scale       =       0.3333333333333333 [-]
	 SCS Opposite-Spin Scale   =       1.2000000000000000 [-]
	 SCS Same-Spin Energy      =      -0.1795818379272065 [Eh]
	 SCS Opposite-Spin Energy  =      -1.9725529267870754 [Eh]
	 SCS Correlation Energy    =      -2.1521347647142819 [Eh]
	 SCS Total Energy          =    -498.0682985996327261 [Eh]
	-----------------------------------------------------------

  Dipole Moment: [D]
     X:     8.1769      Y:     1.3704      Z:     2.6059     Total:     8.6908

*** Psi4 exiting successfully. Buy a developer a beer!
