                               Psi4 1.3.2 release

  ==> Input File <==

--------------------------------------------------------------------------
#psi4
#
memory 32 gb

molecule  {
-1 1
  O       -2.4775990    -1.4732410    -0.5357720
  O       -2.5836320     0.8103810    -0.7086120
  C        0.1769840    -0.1996970     0.5360780
  C        0.8528670     0.9715620     0.1268880
  C       -1.2378850    -0.1617980     1.0317040
  C        0.8256870    -1.4354030     0.3918760
  C        2.1654290     0.8711020    -0.3500530
  C        0.1959411     2.3217121     0.2946358
  C        2.1298550    -1.5237740    -0.0958170
  C        2.8103870    -0.3625320    -0.4658790
  C       -2.2184660    -0.2891600    -0.2009230
  H       -1.4126520    -1.0091000     1.7035120
  H       -1.4413430     0.7679950     1.5725290
  H        0.2756770    -2.3364080     0.6567980
  H        2.6838580     1.7794620    -0.6595800
  H       -0.8491240     2.2156170    -0.2099720
  H        0.0735000     2.6566880     1.2394400
  H        0.7245490     3.0640340    -0.3581400
  H        2.6081740    -2.4970700    -0.1982670
  H        3.8302350    -0.4147610    -0.8445580
units angstrom
no_reorient  #important for SAPT in psi4, default
symmetry c1  #important for SAPT in psi4, default
}

set PROPERTIES_ORIGIN ["COM"]
properties('MP2/aug-cc-pvtz', properties = ['dipole'])
--------------------------------------------------------------------------

    Molecular point group: c1
  Charge       = -1
  Multiplicity = 1
  Basis Set: AUG-CC-PVTZ
    Blend: AUG-CC-PVTZ
  Basis Set: (AUG-CC-PVTZ AUX)
    Blend: AUG-CC-PVTZ-JKFIT

    Orbital Energies [Eh]
    ---------------------

    Doubly Occupied:

       1A    -20.309260     2A    -20.309080     3A    -11.156969
       4A    -11.118294     5A    -11.117617     6A    -11.116187
       7A    -11.114569     8A    -11.112680     9A    -11.106856
      10A    -11.091722    11A    -11.073753    12A     -1.179251
      13A     -1.083388    14A     -1.032062    15A     -0.926717
      16A     -0.907549    17A     -0.821551    18A     -0.788476
      19A     -0.689707    20A     -0.665129    21A     -0.563131
      22A     -0.533586    23A     -0.521722    24A     -0.500180
      25A     -0.473260    26A     -0.454552    27A     -0.440946
      28A     -0.431001    29A     -0.426260    30A     -0.396132
      31A     -0.384839    32A     -0.373145    33A     -0.363330
      34A     -0.349850    35A     -0.331003    36A     -0.235066
      37A     -0.225374    38A     -0.211216    39A     -0.207403
      40A     -0.176103

  @DF-RHF Final Energy:  -495.98592764101721

   => Energetics <=

    Nuclear Repulsion Energy =            571.7256231722136590
    One-Electron Energy =               -1822.7852702310797213
    Two-Electron Energy =                 755.0737194178489062
    Total Energy =                       -495.9859276410172697
  Basis Set: (AUG-CC-PVTZ AUX)
    Blend: AUG-CC-PVTZ-RI
    Molecular point group: c1

    Geometry (in Angstrom), charge = -1, multiplicity = 1:

       Center              X                  Y                   Z               Mass
    ------------   -----------------  -----------------  -----------------  -----------------
         O           -2.437342208640    -1.446146488755    -0.523983278329    15.994914619570
         O           -2.543375208640     0.837475511245    -0.696823278329    15.994914619570
         C            0.217240791360    -0.172602488755     0.547866721671    12.000000000000
         C            0.893123791360     0.998656511245     0.138676721671    12.000000000000
         C           -1.197628208640    -0.134703488755     1.043492721671    12.000000000000
         C            0.865943791360    -1.408308488755     0.403664721671    12.000000000000
         C            2.205685791360     0.898196511245    -0.338264278329    12.000000000000
         C            0.236197891360     2.348806611245     0.306424521671    12.000000000000
         C            2.170111791360    -1.496679488755    -0.084028278329    12.000000000000
         C            2.850643791360    -0.335437488755    -0.454090278329    12.000000000000
         C           -2.178209208640    -0.262065488755    -0.189134278329    12.000000000000
         H           -1.372395208640    -0.982005488755     1.715300721671     1.007825032230
         H           -1.401086208640     0.795089511245     1.584317721671     1.007825032230
         H            0.315933791360    -2.309313488755     0.668586721671     1.007825032230
         H            2.724114791360     1.806556511245    -0.647791278329     1.007825032230
         H           -0.808867208640     2.242711511245    -0.198183278329     1.007825032230
         H            0.113756791360     2.683782511245     1.251228721671     1.007825032230
         H            0.764805791360     3.091128511245    -0.346351278329     1.007825032230
         H            2.648430791360    -2.469975488755    -0.186478278329     1.007825032230
         H            3.870491791360    -0.387666488755    -0.832769278329     1.007825032230

  Basis Set: AUG-CC-PVTZ
    Blend: AUG-CC-PVTZ
  Basis Set: (AUG-CC-PVTZ AUX)
    Blend: AUG-CC-PVTZ-JKFIT
	 Reference Energy          =    -495.9859276410172129 [Eh]
	 Singles Energy            =      -0.0000000000000000 [Eh]
	 Same-Spin Energy          =      -0.5333729643557368 [Eh]
	 Opposite-Spin Energy      =      -1.6362032047635755 [Eh]
	 Correlation Energy        =      -2.1695761691193125 [Eh]
	 Total Energy              =    -498.1555038101365085 [Eh]

	 ================> DF-SCS-MP2 Energies <==================
	-----------------------------------------------------------
	 SCS Same-Spin Scale       =       0.3333333333333333 [-]
	 SCS Opposite-Spin Scale   =       1.2000000000000000 [-]
	 SCS Same-Spin Energy      =      -0.1777909881185789 [Eh]
	 SCS Opposite-Spin Energy  =      -1.9634438457162906 [Eh]
	 SCS Correlation Energy    =      -2.1412348338348695 [Eh]
	 SCS Total Energy          =    -498.1271624748520708 [Eh]
	-----------------------------------------------------------

  Dipole Moment: [D]
     X:     8.4625      Y:     1.3681      Z:     3.0412     Total:     9.0958

*** Psi4 exiting successfully. Buy a developer a beer!
