                               Psi4 1.3.2 release

  ==> Input File <==

--------------------------------------------------------------------------
#psi4
#
memory 32 gb

molecule  {
-1 1
  O       -2.4775990    -1.4732410    -0.5357720
  O       -2.5836320     0.8103810    -0.7086120
  C        0.1769840    -0.1996970     0.5360780
  C        0.8528670     0.9715620     0.1268880
  C       -1.2378850    -0.1617980     1.0317040
  C        0.8256870    -1.4354030     0.3918760
  C        2.1654290     0.8711020    -0.3500530
  C        0.1613040     2.3091050     0.2016770
  C        2.1298550    -1.5237740    -0.0958170
  C        2.8103870    -0.3625320    -0.4658790
  C       -2.2184660    -0.2891600    -0.2009230
  H       -1.4126520    -1.0091000     1.7035120
  H       -1.4413430     0.7679950     1.5725290
  H        0.2582208    -2.3398543     0.6100711
  H        2.6838580     1.7794620    -0.6595800
  H       -0.8491240     2.2156170    -0.2099720
  H        0.0735000     2.6566880     1.2394400
  H        0.7245490     3.0640340    -0.3581400
  H        2.6081740    -2.4970700    -0.1982670
  H        3.8302350    -0.4147610    -0.8445580
units angstrom
no_reorient  #important for SAPT in psi4, default
symmetry c1  #important for SAPT in psi4, default
}

set PROPERTIES_ORIGIN ["COM"]
properties('MP2/aug-cc-pvtz', properties = ['dipole'])
--------------------------------------------------------------------------

    Molecular point group: c1
  Charge       = -1
  Multiplicity = 1
  Basis Set: AUG-CC-PVTZ
    Blend: AUG-CC-PVTZ
  Basis Set: (AUG-CC-PVTZ AUX)
    Blend: AUG-CC-PVTZ-JKFIT

    Orbital Energies [Eh]
    ---------------------

    Doubly Occupied:

       1A    -20.309273     2A    -20.309178     3A    -11.157021
       4A    -11.118417     5A    -11.117195     6A    -11.116074
       7A    -11.114734     8A    -11.112798     9A    -11.106841
      10A    -11.092230    11A    -11.073692    12A     -1.179383
      13A     -1.083532    14A     -1.032218    15A     -0.926920
      16A     -0.907715    17A     -0.821122    18A     -0.787801
      19A     -0.689705    20A     -0.664285    21A     -0.562247
      22A     -0.533276    23A     -0.523197    24A     -0.499305
      25A     -0.461680    26A     -0.453090    27A     -0.439877
      28A     -0.428518    29A     -0.426057    30A     -0.412375
      31A     -0.384427    32A     -0.374287    33A     -0.365022
      34A     -0.351480    35A     -0.333002    36A     -0.235284
      37A     -0.225741    38A     -0.211356    39A     -0.207177
      40A     -0.176204

  @DF-RHF Final Energy:  -495.99704129894661

   => Energetics <=

    Nuclear Repulsion Energy =            572.0431567990376607
    One-Electron Energy =               -1823.4329253031796725
    Two-Electron Energy =                 755.3927272051953423
    Total Energy =                       -495.9970412989466695
  Basis Set: (AUG-CC-PVTZ AUX)
    Blend: AUG-CC-PVTZ-RI
    Molecular point group: c1

    Geometry (in Angstrom), charge = -1, multiplicity = 1:

       Center              X                  Y                   Z               Mass
    ------------   -----------------  -----------------  -----------------  -----------------
         O           -2.434435746440    -1.445108261175    -0.516183760321    15.994914619570
         O           -2.540468746440     0.838513738825    -0.689023760321    15.994914619570
         C            0.220147253560    -0.171564261175     0.555666239679    12.000000000000
         C            0.896030253560     0.999694738825     0.146476239679    12.000000000000
         C           -1.194721746440    -0.133665261175     1.051292239679    12.000000000000
         C            0.868850253560    -1.407270261175     0.411464239679    12.000000000000
         C            2.208592253560     0.899234738825    -0.330464760321    12.000000000000
         C            0.204467253560     2.337237738825     0.221265239679    12.000000000000
         C            2.173018253560    -1.495641261175    -0.076228760321    12.000000000000
         C            2.853550253560    -0.334399261175    -0.446290760321    12.000000000000
         C           -2.175302746440    -0.261027261175    -0.181334760321    12.000000000000
         H           -1.369488746440    -0.980967261175     1.723100239679     1.007825032230
         H           -1.398179746440     0.796127738825     1.592117239679     1.007825032230
         H            0.301384053560    -2.311721561175     0.629659339679     1.007825032230
         H            2.727021253560     1.807594738825    -0.639991760321     1.007825032230
         H           -0.805960746440     2.243749738825    -0.190383760321     1.007825032230
         H            0.116663253560     2.684820738825     1.259028239679     1.007825032230
         H            0.767712253560     3.092166738825    -0.338551760321     1.007825032230
         H            2.651337253560    -2.468937261175    -0.178678760321     1.007825032230
         H            3.873398253560    -0.386628261175    -0.824969760321     1.007825032230

  Basis Set: AUG-CC-PVTZ
    Blend: AUG-CC-PVTZ
  Basis Set: (AUG-CC-PVTZ AUX)
    Blend: AUG-CC-PVTZ-JKFIT
	 Reference Energy          =    -495.9970412989466126 [Eh]
	 Singles Energy            =      -0.0000000000000000 [Eh]
	 Same-Spin Energy          =      -0.5330242116315773 [Eh]
	 Opposite-Spin Energy      =      -1.6355243975913250 [Eh]
	 Correlation Energy        =      -2.1685486092229023 [Eh]
	 Total Energy              =    -498.1655899081695225 [Eh]

	 ================> DF-SCS-MP2 Energies <==================
	-----------------------------------------------------------
	 SCS Same-Spin Scale       =       0.3333333333333333 [-]
	 SCS Opposite-Spin Scale   =       1.2000000000000000 [-]
	 SCS Same-Spin Energy      =      -0.1776747372105258 [Eh]
	 SCS Opposite-Spin Energy  =      -1.9626292771095899 [Eh]
	 SCS Correlation Energy    =      -2.1403040143201157 [Eh]
	 SCS Total Energy          =    -498.1373453132667350 [Eh]
	-----------------------------------------------------------

  Dipole Moment: [D]
     X:     8.4714      Y:     1.3940      Z:     2.9426     Total:     9.0756

*** Psi4 exiting successfully. Buy a developer a beer!
