                               Psi4 1.3.2 release

  ==> Input File <==

--------------------------------------------------------------------------
#psi4
#
memory 32 gb

molecule  {
-1 1
  O       -2.4775990    -1.4732410    -0.5357720
  O       -2.5836320     0.8103810    -0.7086120
  C        0.1769840    -0.1996970     0.5360780
  C        0.8528670     0.9715620     0.1268880
  C       -1.2378850    -0.1617980     1.0317040
  C        0.8256870    -1.4354030     0.3918760
  C        2.1654290     0.8711020    -0.3500530
  C        0.1613040     2.3091050     0.2016770
  C        2.1298550    -1.5237740    -0.0958170
  C        2.8103870    -0.3625320    -0.4658790
  C       -2.2184660    -0.2891600    -0.2009230
  H       -1.4126520    -1.0091000     1.7035120
  H       -1.4413430     0.7679950     1.5725290
  H        0.1883962    -2.3536393     0.4231634
  H        2.6838580     1.7794620    -0.6595800
  H       -0.8491240     2.2156170    -0.2099720
  H        0.0735000     2.6566880     1.2394400
  H        0.7245490     3.0640340    -0.3581400
  H        2.6081740    -2.4970700    -0.1982670
  H        3.8302350    -0.4147610    -0.8445580
units angstrom
no_reorient  #important for SAPT in psi4, default
symmetry c1  #important for SAPT in psi4, default
}

set PROPERTIES_ORIGIN ["COM"]
properties('MP2/aug-cc-pvtz', properties = ['dipole'])
--------------------------------------------------------------------------

    Molecular point group: c1
  Charge       = -1
  Multiplicity = 1
  Basis Set: AUG-CC-PVTZ
    Blend: AUG-CC-PVTZ
  Basis Set: (AUG-CC-PVTZ AUX)
    Blend: AUG-CC-PVTZ-JKFIT

    Orbital Energies [Eh]
    ---------------------

    Doubly Occupied:

       1A    -20.309825     2A    -20.309612     3A    -11.157450
       4A    -11.118488     5A    -11.117373     6A    -11.116317
       7A    -11.115269     8A    -11.113505     9A    -11.108184
      10A    -11.092399    11A    -11.073605    12A     -1.179920
      13A     -1.084079    14A     -1.032279    15A     -0.927081
      16A     -0.907107    17A     -0.820988    18A     -0.787851
      19A     -0.687648    20A     -0.664218    21A     -0.561314
      22A     -0.533678    23A     -0.523213    24A     -0.495758
      25A     -0.462712    26A     -0.451281    27A     -0.439653
      28A     -0.428903    29A     -0.426248    30A     -0.412269
      31A     -0.384931    32A     -0.373679    33A     -0.365147
      34A     -0.349092    35A     -0.333376    36A     -0.235755
      37A     -0.226418    38A     -0.211407    39A     -0.207045
      40A     -0.176101

  @DF-RHF Final Energy:  -495.99287242194384

   => Energetics <=

    Nuclear Repulsion Energy =            572.0357204466484973
    One-Electron Energy =               -1823.4148322456628648
    Two-Electron Energy =                 755.3862393770706376
    Total Energy =                       -495.9928724219438436
  Basis Set: (AUG-CC-PVTZ AUX)
    Blend: AUG-CC-PVTZ-RI
    Molecular point group: c1

    Geometry (in Angstrom), charge = -1, multiplicity = 1:

       Center              X                  Y                   Z               Mass
    ------------   -----------------  -----------------  -----------------  -----------------
         O           -2.433963648898    -1.445015058140    -0.514920041435    15.994914619570
         O           -2.539996648898     0.838606941860    -0.687760041435    15.994914619570
         C            0.220619351102    -0.171471058140     0.556929958565    12.000000000000
         C            0.896502351102     0.999787941860     0.147739958565    12.000000000000
         C           -1.194249648898    -0.133572058140     1.052555958565    12.000000000000
         C            0.869322351102    -1.407177058140     0.412727958565    12.000000000000
         C            2.209064351102     0.899327941860    -0.329201041435    12.000000000000
         C            0.204939351102     2.337330941860     0.222528958565    12.000000000000
         C            2.173490351102    -1.495548058140    -0.074965041435    12.000000000000
         C            2.854022351102    -0.334306058140    -0.445027041435    12.000000000000
         C           -2.174830648898    -0.260934058140    -0.180071041435    12.000000000000
         H           -1.369016648898    -0.980874058140     1.724363958565     1.007825032230
         H           -1.397707648898     0.796220941860     1.593380958565     1.007825032230
         H            0.232031551102    -2.325413358140     0.444015358565     1.007825032230
         H            2.727493351102     1.807687941860    -0.638728041435     1.007825032230
         H           -0.805488648898     2.243842941860    -0.189120041435     1.007825032230
         H            0.117135351102     2.684913941860     1.260291958565     1.007825032230
         H            0.768184351102     3.092259941860    -0.337288041435     1.007825032230
         H            2.651809351102    -2.468844058140    -0.177415041435     1.007825032230
         H            3.873870351102    -0.386535058140    -0.823706041435     1.007825032230

  Basis Set: AUG-CC-PVTZ
    Blend: AUG-CC-PVTZ
  Basis Set: (AUG-CC-PVTZ AUX)
    Blend: AUG-CC-PVTZ-JKFIT
	 Reference Energy          =    -495.9928724219438436 [Eh]
	 Singles Energy            =      -0.0000000000000000 [Eh]
	 Same-Spin Energy          =      -0.5332805473574833 [Eh]
	 Opposite-Spin Energy      =      -1.6360449666041934 [Eh]
	 Correlation Energy        =      -2.1693255139616765 [Eh]
	 Total Energy              =    -498.1621979359055103 [Eh]

	 ================> DF-SCS-MP2 Energies <==================
	-----------------------------------------------------------
	 SCS Same-Spin Scale       =       0.3333333333333333 [-]
	 SCS Opposite-Spin Scale   =       1.2000000000000000 [-]
	 SCS Same-Spin Energy      =      -0.1777601824524944 [Eh]
	 SCS Opposite-Spin Energy  =      -1.9632539599250320 [Eh]
	 SCS Correlation Energy    =      -2.1410141423775264 [Eh]
	 SCS Total Energy          =    -498.1338865643213580 [Eh]
	-----------------------------------------------------------

  Dipole Moment: [D]
     X:     8.4340      Y:     1.4330      Z:     2.8258     Total:     9.0094

*** Psi4 exiting successfully. Buy a developer a beer!
