                               Psi4 1.3.2 release

  ==> Input File <==

--------------------------------------------------------------------------
#psi4
#
memory 32 gb

molecule  {
-1 1
  O       -2.4775990    -1.4732410    -0.5357720
  O       -2.5836320     0.8103810    -0.7086120
  C        0.1769840    -0.1996970     0.5360780
  C        0.8528670     0.9715620     0.1268880
  C       -1.2378850    -0.1617980     1.0317040
  C        0.8256870    -1.4354030     0.3918760
  C        2.1654290     0.8711020    -0.3500530
  C        0.2305782     2.3343191     0.3875945
  C        2.1298550    -1.5237740    -0.0958170
  C        2.8103870    -0.3625320    -0.4658790
  C       -2.2184660    -0.2891600    -0.2009230
  H       -1.4126520    -1.0091000     1.7035120
  H       -1.4413430     0.7679950     1.5725290
  H        0.2756770    -2.3364080     0.6567980
  H        2.6838580     1.7794620    -0.6595800
  H       -0.8491240     2.2156170    -0.2099720
  H        0.0735000     2.6566880     1.2394400
  H        0.7245490     3.0640340    -0.3581400
  H        2.6081740    -2.4970700    -0.1982670
  H        3.8302350    -0.4147610    -0.8445580
units angstrom
no_reorient  #important for SAPT in psi4, default
symmetry c1  #important for SAPT in psi4, default
}

set PROPERTIES_ORIGIN ["COM"]
properties('MP2/aug-cc-pvtz', properties = ['dipole'])
--------------------------------------------------------------------------

    Molecular point group: c1
  Charge       = -1
  Multiplicity = 1
  Basis Set: AUG-CC-PVTZ
    Blend: AUG-CC-PVTZ
  Basis Set: (AUG-CC-PVTZ AUX)
    Blend: AUG-CC-PVTZ-JKFIT

    Orbital Energies [Eh]
    ---------------------

    Doubly Occupied:

       1A    -20.309564     2A    -20.309299     3A    -11.157182
       4A    -11.119779     5A    -11.118472     6A    -11.116545
       7A    -11.114882     8A    -11.112951     9A    -11.107015
      10A    -11.094041    11A    -11.073857    12A     -1.179435
      13A     -1.083568    14A     -1.032154    15A     -0.926721
      16A     -0.907568    17A     -0.823646    18A     -0.790745
      19A     -0.690262    20A     -0.667882    21A     -0.566116
      22A     -0.535029    23A     -0.521638    24A     -0.504855
      25A     -0.485211    26A     -0.454064    27A     -0.442194
      28A     -0.430588    29A     -0.423881    30A     -0.387791
      31A     -0.386010    32A     -0.371318    33A     -0.356976
      34A     -0.346199    35A     -0.326101    36A     -0.235130
      37A     -0.225277    38A     -0.210850    39A     -0.207404
      40A     -0.175778

  @DF-RHF Final Energy:  -495.94974890896435

   => Energetics <=

    Nuclear Repulsion Energy =            571.3621429721414415
    One-Electron Energy =               -1821.9678277414170680
    Two-Electron Energy =                 754.6559358603113878
    Total Energy =                       -495.9497489089643523
  Basis Set: (AUG-CC-PVTZ AUX)
    Blend: AUG-CC-PVTZ-RI
    Molecular point group: c1

    Geometry (in Angstrom), charge = -1, multiplicity = 1:

       Center              X                  Y                   Z               Mass
    ------------   -----------------  -----------------  -----------------  -----------------
         O           -2.440130646117    -1.447161407189    -0.531466858735    15.994914619570
         O           -2.546163646117     0.836460592811    -0.704306858735    15.994914619570
         C            0.214452353883    -0.173617407189     0.540383141265    12.000000000000
         C            0.890335353883     0.997641592811     0.131193141265    12.000000000000
         C           -1.200416646117    -0.135718407189     1.036009141265    12.000000000000
         C            0.863155353883    -1.409323407189     0.396181141265    12.000000000000
         C            2.202897353883     0.897181592811    -0.345747858735    12.000000000000
         C            0.268046553883     2.360398692811     0.391899641265    12.000000000000
         C            2.167323353883    -1.497694407189    -0.091511858735    12.000000000000
         C            2.847855353883    -0.336452407189    -0.461573858735    12.000000000000
         C           -2.180997646117    -0.263080407189    -0.196617858735    12.000000000000
         H           -1.375183646117    -0.983020407189     1.707817141265     1.007825032230
         H           -1.403874646117     0.794074592811     1.576834141265     1.007825032230
         H            0.313145353883    -2.310328407189     0.661103141265     1.007825032230
         H            2.721326353883     1.805541592811    -0.655274858735     1.007825032230
         H           -0.811655646117     2.241696592811    -0.205666858735     1.007825032230
         H            0.110968353883     2.682767592811     1.243745141265     1.007825032230
         H            0.762017353883     3.090113592811    -0.353834858735     1.007825032230
         H            2.645642353883    -2.470990407189    -0.193961858735     1.007825032230
         H            3.867703353883    -0.388681407189    -0.840252858735     1.007825032230

  Basis Set: AUG-CC-PVTZ
    Blend: AUG-CC-PVTZ
  Basis Set: (AUG-CC-PVTZ AUX)
    Blend: AUG-CC-PVTZ-JKFIT
	 Reference Energy          =    -495.9497489089643523 [Eh]
	 Singles Energy            =      -0.0000000000000000 [Eh]
	 Same-Spin Energy          =      -0.5340625816832734 [Eh]
	 Opposite-Spin Energy      =      -1.6379381652901190 [Eh]
	 Correlation Energy        =      -2.1720007469733922 [Eh]
	 Total Energy              =    -498.1217496559377196 [Eh]

	 ================> DF-SCS-MP2 Energies <==================
	-----------------------------------------------------------
	 SCS Same-Spin Scale       =       0.3333333333333333 [-]
	 SCS Opposite-Spin Scale   =       1.2000000000000000 [-]
	 SCS Same-Spin Energy      =      -0.1780208605610911 [Eh]
	 SCS Opposite-Spin Energy  =      -1.9655257983481427 [Eh]
	 SCS Correlation Energy    =      -2.1435466589092336 [Eh]
	 SCS Total Energy          =    -498.0932955678736107 [Eh]
	-----------------------------------------------------------

  Dipole Moment: [D]
     X:     8.4438      Y:     1.3047      Z:     3.0841     Total:     9.0836

*** Psi4 exiting successfully. Buy a developer a beer!
