                               Psi4 1.3.2 release

  ==> Input File <==

--------------------------------------------------------------------------
#psi4
#
memory 32 gb

molecule  {
-1 1
  O       -2.4775990    -1.4732410    -0.5357720
  O       -2.5836320     0.8103810    -0.7086120
  C        0.1769840    -0.1996970     0.5360780
  C        0.8528670     0.9715620     0.1268880
  C       -1.2378850    -0.1617980     1.0317040
  C        0.8256870    -1.4354030     0.3918760
  C        2.1654290     0.8711020    -0.3500530
  C        0.2478968     2.3406226     0.4340739
  C        2.1298550    -1.5237740    -0.0958170
  C        2.8103870    -0.3625320    -0.4658790
  C       -2.2184660    -0.2891600    -0.2009230
  H       -1.4126520    -1.0091000     1.7035120
  H       -1.4413430     0.7679950     1.5725290
  H        0.2756770    -2.3364080     0.6567980
  H        2.6838580     1.7794620    -0.6595800
  H       -0.8491240     2.2156170    -0.2099720
  H        0.0735000     2.6566880     1.2394400
  H        0.7245490     3.0640340    -0.3581400
  H        2.6081740    -2.4970700    -0.1982670
  H        3.8302350    -0.4147610    -0.8445580
units angstrom
no_reorient  #important for SAPT in psi4, default
symmetry c1  #important for SAPT in psi4, default
}

set PROPERTIES_ORIGIN ["COM"]
properties('MP2/aug-cc-pvtz', properties = ['dipole'])
--------------------------------------------------------------------------

    Molecular point group: c1
  Charge       = -1
  Multiplicity = 1
  Basis Set: AUG-CC-PVTZ
    Blend: AUG-CC-PVTZ
  Basis Set: (AUG-CC-PVTZ AUX)
    Blend: AUG-CC-PVTZ-JKFIT

    Orbital Energies [Eh]
    ---------------------

    Doubly Occupied:

       1A    -20.309823     2A    -20.309479     3A    -11.157364
       4A    -11.121511     5A    -11.118705     6A    -11.116828
       7A    -11.115197     8A    -11.113209     9A    -11.107204
      10A    -11.096266    11A    -11.073947    12A     -1.179609
      13A     -1.083743    14A     -1.032303    15A     -0.926831
      16A     -0.907693    17A     -0.825698    18A     -0.792455
      19A     -0.690952    20A     -0.669949    21A     -0.568737
      22A     -0.536165    23A     -0.522193    24A     -0.508543
      25A     -0.487445    26A     -0.453909    27A     -0.442728
      28A     -0.430429    29A     -0.422018    30A     -0.387212
      31A     -0.385705    32A     -0.370902    33A     -0.353158
      34A     -0.344308    35A     -0.321569    36A     -0.235232
      37A     -0.225290    38A     -0.210661    39A     -0.207244
      40A     -0.175532

  @DF-RHF Final Energy:  -495.92049860598593

   => Energetics <=

    Nuclear Repulsion Energy =            571.1606549943427353
    One-Electron Energy =               -1821.4868171704526958
    Two-Electron Energy =                 754.4056635701239202
    Total Energy =                       -495.9204986059859266
  Basis Set: (AUG-CC-PVTZ AUX)
    Blend: AUG-CC-PVTZ-RI
    Molecular point group: c1

    Geometry (in Angstrom), charge = -1, multiplicity = 1:

       Center              X                  Y                   Z               Mass
    ------------   -----------------  -----------------  -----------------  -----------------
         O           -2.441524868880    -1.447668866405    -0.535208652963    15.994914619570
         O           -2.547557868880     0.835953133595    -0.708048652963    15.994914619570
         C            0.213058131120    -0.174124866405     0.536641347037    12.000000000000
         C            0.888941131120     0.997134133595     0.127451347037    12.000000000000
         C           -1.201810868880    -0.136225866405     1.032267347037    12.000000000000
         C            0.861761131120    -1.409830866405     0.392439347037    12.000000000000
         C            2.201503131120     0.896674133595    -0.349489652963    12.000000000000
         C            0.283970931120     2.366194733595     0.434637247037    12.000000000000
         C            2.165929131120    -1.498201866405    -0.095253652963    12.000000000000
         C            2.846461131120    -0.336959866405    -0.465315652963    12.000000000000
         C           -2.182391868880    -0.263587866405    -0.200359652963    12.000000000000
         H           -1.376577868880    -0.983527866405     1.704075347037     1.007825032230
         H           -1.405268868880     0.793567133595     1.573092347037     1.007825032230
         H            0.311751131120    -2.310835866405     0.657361347037     1.007825032230
         H            2.719932131120     1.805034133595    -0.659016652963     1.007825032230
         H           -0.813049868880     2.241189133595    -0.209408652963     1.007825032230
         H            0.109574131120     2.682260133595     1.240003347037     1.007825032230
         H            0.760623131120     3.089606133595    -0.357576652963     1.007825032230
         H            2.644248131120    -2.471497866405    -0.197703652963     1.007825032230
         H            3.866309131120    -0.389188866405    -0.843994652963     1.007825032230

  Basis Set: AUG-CC-PVTZ
    Blend: AUG-CC-PVTZ
  Basis Set: (AUG-CC-PVTZ AUX)
    Blend: AUG-CC-PVTZ-JKFIT
	 Reference Energy          =    -495.9204986059859266 [Eh]
	 Singles Energy            =      -0.0000000000000000 [Eh]
	 Same-Spin Energy          =      -0.5345405635062817 [Eh]
	 Opposite-Spin Energy      =      -1.6392437577762591 [Eh]
	 Correlation Energy        =      -2.1737843212825405 [Eh]
	 Total Energy              =    -498.0942829272684662 [Eh]

	 ================> DF-SCS-MP2 Energies <==================
	-----------------------------------------------------------
	 SCS Same-Spin Scale       =       0.3333333333333333 [-]
	 SCS Opposite-Spin Scale   =       1.2000000000000000 [-]
	 SCS Same-Spin Energy      =      -0.1781801878354272 [Eh]
	 SCS Opposite-Spin Energy  =      -1.9670925093315108 [Eh]
	 SCS Correlation Energy    =      -2.1452726971669378 [Eh]
	 SCS Total Energy          =    -498.0657713031528715 [Eh]
	-----------------------------------------------------------

  Dipole Moment: [D]
     X:     8.4338      Y:     1.2570      Z:     3.0941     Total:     9.0710

*** Psi4 exiting successfully. Buy a developer a beer!
