                               Psi4 1.3.2 release

  ==> Input File <==

--------------------------------------------------------------------------
#psi4
#
memory 32 gb

molecule  {
-1 1
  O       -2.4775990    -1.4732410    -0.5357720
  O       -2.5836320     0.8103810    -0.7086120
  C        0.1769840    -0.1996970     0.5360780
  C        0.8528670     0.9715620     0.1268880
  C       -1.2378850    -0.1617980     1.0317040
  C        0.8256870    -1.4354030     0.3918760
  C        2.1654290     0.8711020    -0.3500530
  C        0.1613040     2.3091050     0.2016770
  C        2.1298550    -1.5237740    -0.0958170
  C        2.8103870    -0.3625320    -0.4658790
  C       -2.2184660    -0.2891600    -0.2009230
  H       -1.4126520    -1.0091000     1.7035120
  H       -1.4413430     0.7679950     1.5725290
  H        0.2407647    -2.3433005     0.5633441
  H        2.6838580     1.7794620    -0.6595800
  H       -0.8491240     2.2156170    -0.2099720
  H        0.0735000     2.6566880     1.2394400
  H        0.7245490     3.0640340    -0.3581400
  H        2.6081740    -2.4970700    -0.1982670
  H        3.8302350    -0.4147610    -0.8445580
units angstrom
no_reorient  #important for SAPT in psi4, default
symmetry c1  #important for SAPT in psi4, default
}

set PROPERTIES_ORIGIN ["COM"]
properties('MP2/aug-cc-pvtz', properties = ['dipole'])
--------------------------------------------------------------------------

    Molecular point group: c1
  Charge       = -1
  Multiplicity = 1
  Basis Set: AUG-CC-PVTZ
    Blend: AUG-CC-PVTZ
  Basis Set: (AUG-CC-PVTZ AUX)
    Blend: AUG-CC-PVTZ-JKFIT

    Orbital Energies [Eh]
    ---------------------

    Doubly Occupied:

       1A    -20.309359     2A    -20.309325     3A    -11.157117
       4A    -11.118411     5A    -11.117213     6A    -11.116089
       7A    -11.114814     8A    -11.112913     9A    -11.106901
      10A    -11.092256    11A    -11.073666    12A     -1.179510
      13A     -1.083661    14A     -1.032215    15A     -0.926935
      16A     -0.907613    17A     -0.821096    18A     -0.787805
      19A     -0.689383    20A     -0.664264    21A     -0.562081
      22A     -0.533405    23A     -0.523192    24A     -0.498691
      25A     -0.461954    26A     -0.452775    27A     -0.439851
      28A     -0.428638    29A     -0.426097    30A     -0.412341
      31A     -0.384550    32A     -0.373980    33A     -0.365239
      34A     -0.351117    35A     -0.333085    36A     -0.235401
      37A     -0.225907    38A     -0.211358    39A     -0.207187
      40A     -0.176169

  @DF-RHF Final Energy:  -495.99654378786471

   => Energetics <=

    Nuclear Repulsion Energy =            572.0542198422372167
    One-Electron Energy =               -1823.4543942517000232
    Two-Electron Energy =                 755.4036306215981540
    Total Energy =                       -495.9965437878646526
  Basis Set: (AUG-CC-PVTZ AUX)
    Blend: AUG-CC-PVTZ-RI
    Molecular point group: c1

    Geometry (in Angstrom), charge = -1, multiplicity = 1:

       Center              X                  Y                   Z               Mass
    ------------   -----------------  -----------------  -----------------  -----------------
         O           -2.434317722393    -1.445084960754    -0.515867830093    15.994914619570
         O           -2.540350722393     0.838537039246    -0.688707830093    15.994914619570
         C            0.220265277607    -0.171540960754     0.555982169907    12.000000000000
         C            0.896148277607     0.999718039246     0.146792169907    12.000000000000
         C           -1.194603722393    -0.133641960754     1.051608169907    12.000000000000
         C            0.868968277607    -1.407246960754     0.411780169907    12.000000000000
         C            2.208710277607     0.899258039246    -0.330148830093    12.000000000000
         C            0.204585277607     2.337261039246     0.221581169907    12.000000000000
         C            2.173136277607    -1.495617960754    -0.075912830093    12.000000000000
         C            2.853668277607    -0.334375960754    -0.445974830093    12.000000000000
         C           -2.175184722393    -0.261003960754    -0.181018830093    12.000000000000
         H           -1.369370722393    -0.980943960754     1.723416169907     1.007825032230
         H           -1.398061722393     0.796151039246     1.592433169907     1.007825032230
         H            0.284045977607    -2.315144460754     0.583248269907     1.007825032230
         H            2.727139277607     1.807618039246    -0.639675830093     1.007825032230
         H           -0.805842722393     2.243773039246    -0.190067830093     1.007825032230
         H            0.116781277607     2.684844039246     1.259344169907     1.007825032230
         H            0.767830277607     3.092190039246    -0.338235830093     1.007825032230
         H            2.651455277607    -2.468913960754    -0.178362830093     1.007825032230
         H            3.873516277607    -0.386604960754    -0.824653830093     1.007825032230

  Basis Set: AUG-CC-PVTZ
    Blend: AUG-CC-PVTZ
  Basis Set: (AUG-CC-PVTZ AUX)
    Blend: AUG-CC-PVTZ-JKFIT
	 Reference Energy          =    -495.9965437878647094 [Eh]
	 Singles Energy            =      -0.0000000000000000 [Eh]
	 Same-Spin Energy          =      -0.5330563682854502 [Eh]
	 Opposite-Spin Energy      =      -1.6355810088399514 [Eh]
	 Correlation Energy        =      -2.1686373771254015 [Eh]
	 Total Energy              =    -498.1651811649900878 [Eh]

	 ================> DF-SCS-MP2 Energies <==================
	-----------------------------------------------------------
	 SCS Same-Spin Scale       =       0.3333333333333333 [-]
	 SCS Opposite-Spin Scale   =       1.2000000000000000 [-]
	 SCS Same-Spin Energy      =      -0.1776854560951501 [Eh]
	 SCS Opposite-Spin Energy  =      -1.9626972106079417 [Eh]
	 SCS Correlation Energy    =      -2.1403826667030916 [Eh]
	 SCS Total Energy          =    -498.1369264545677993 [Eh]
	-----------------------------------------------------------

  Dipole Moment: [D]
     X:     8.4606      Y:     1.3990      Z:     2.9148     Total:     9.0573

*** Psi4 exiting successfully. Buy a developer a beer!
