                               Psi4 1.3.2 release

  ==> Input File <==

--------------------------------------------------------------------------
#psi4
#
memory 32 gb

molecule  {
-1 1
  O       -2.4775990    -1.4732410    -0.5357720
  O       -2.5836320     0.8103810    -0.7086120
  C        0.1769840    -0.1996970     0.5360780
  C        0.8528670     0.9715620     0.1268880
  C       -1.1196346    -0.1632914     0.9394294
  C        0.8256870    -1.4354030     0.3918760
  C        2.1654290     0.8711020    -0.3500530
  C        0.1613040     2.3091050     0.2016770
  C        2.1298550    -1.5237740    -0.0958170
  C        2.8103870    -0.3625320    -0.4658790
  C       -2.2184660    -0.2891600    -0.2009230
  H       -1.4126520    -1.0091000     1.7035120
  H       -1.4413430     0.7679950     1.5725290
  H        0.2756770    -2.3364080     0.6567980
  H        2.6838580     1.7794620    -0.6595800
  H       -0.8491240     2.2156170    -0.2099720
  H        0.0735000     2.6566880     1.2394400
  H        0.7245490     3.0640340    -0.3581400
  H        2.6081740    -2.4970700    -0.1982670
  H        3.8302350    -0.4147610    -0.8445580
units angstrom
no_reorient  #important for SAPT in psi4, default
symmetry c1  #important for SAPT in psi4, default
}

set PROPERTIES_ORIGIN ["COM"]
properties('MP2/aug-cc-pvtz', properties = ['dipole'])
--------------------------------------------------------------------------

    Molecular point group: c1
  Charge       = -1
  Multiplicity = 1
  Basis Set: AUG-CC-PVTZ
    Blend: AUG-CC-PVTZ
  Basis Set: (AUG-CC-PVTZ AUX)
    Blend: AUG-CC-PVTZ-JKFIT

    Orbital Energies [Eh]
    ---------------------

    Doubly Occupied:

       1A    -20.312197     2A    -20.312158     3A    -11.161196
       4A    -11.117932     5A    -11.116537     6A    -11.115866
       7A    -11.114463     8A    -11.106451     9A    -11.104071
      10A    -11.091909    11A    -11.077742    12A     -1.181946
      13A     -1.086018    14A     -1.037999    15A     -0.938785
      16A     -0.913425    17A     -0.823958    18A     -0.784342
      19A     -0.690390    20A     -0.662714    21A     -0.569831
      22A     -0.532504    23A     -0.525643    24A     -0.503178
      25A     -0.464552    26A     -0.457744    27A     -0.447402
      28A     -0.424791    29A     -0.421157    30A     -0.414824
      31A     -0.379430    32A     -0.372673    33A     -0.363980
      34A     -0.345138    35A     -0.327282    36A     -0.243348
      37A     -0.225864    38A     -0.212676    39A     -0.207601
      40A     -0.168469

  @DF-RHF Final Energy:  -495.96914454902867

   => Energetics <=

    Nuclear Repulsion Energy =            574.4625955335719709
    One-Electron Energy =               -1828.1471018016547987
    Two-Electron Energy =                 757.7153617190540444
    Total Energy =                       -495.9691445490286696
  Basis Set: (AUG-CC-PVTZ AUX)
    Blend: AUG-CC-PVTZ-RI
    Molecular point group: c1

    Geometry (in Angstrom), charge = -1, multiplicity = 1:

       Center              X                  Y                   Z               Mass
    ------------   -----------------  -----------------  -----------------  -----------------
         O           -2.444073443624    -1.445011337064    -0.509071182499    15.994914619570
         O           -2.550106443624     0.838610662936    -0.681911182499    15.994914619570
         C            0.210509556376    -0.171467337064     0.562778817501    12.000000000000
         C            0.886392556376     0.999791662936     0.153588817501    12.000000000000
         C           -1.086109043624    -0.135061737064     0.966130217501    12.000000000000
         C            0.859212556376    -1.407173337064     0.418576817501    12.000000000000
         C            2.198954556376     0.899331662936    -0.323352182499    12.000000000000
         C            0.194829556376     2.337334662936     0.228377817501    12.000000000000
         C            2.163380556376    -1.495544337064    -0.069116182499    12.000000000000
         C            2.843912556376    -0.334302337064    -0.439178182499    12.000000000000
         C           -2.184940443624    -0.260930337064    -0.174222182499    12.000000000000
         H           -1.379126443624    -0.980870337064     1.730212817501     1.007825032230
         H           -1.407817443624     0.796224662936     1.599229817501     1.007825032230
         H            0.309202556376    -2.308178337064     0.683498817501     1.007825032230
         H            2.717383556376     1.807691662936    -0.632879182499     1.007825032230
         H           -0.815598443624     2.243846662936    -0.183271182499     1.007825032230
         H            0.107025556376     2.684917662936     1.266140817501     1.007825032230
         H            0.758074556376     3.092263662936    -0.331439182499     1.007825032230
         H            2.641699556376    -2.468840337064    -0.171566182499     1.007825032230
         H            3.863760556376    -0.386531337064    -0.817857182499     1.007825032230

  Basis Set: AUG-CC-PVTZ
    Blend: AUG-CC-PVTZ
  Basis Set: (AUG-CC-PVTZ AUX)
    Blend: AUG-CC-PVTZ-JKFIT
	 Reference Energy          =    -495.9691445490286696 [Eh]
	 Singles Energy            =      -0.0000000000000000 [Eh]
	 Same-Spin Energy          =      -0.5356523709199743 [Eh]
	 Opposite-Spin Energy      =      -1.6391440721003563 [Eh]
	 Correlation Energy        =      -2.1747964430203304 [Eh]
	 Total Energy              =    -498.1439409920490107 [Eh]

	 ================> DF-SCS-MP2 Energies <==================
	-----------------------------------------------------------
	 SCS Same-Spin Scale       =       0.3333333333333333 [-]
	 SCS Opposite-Spin Scale   =       1.2000000000000000 [-]
	 SCS Same-Spin Energy      =      -0.1785507903066581 [Eh]
	 SCS Opposite-Spin Energy  =      -1.9669728865204275 [Eh]
	 SCS Correlation Energy    =      -2.1455236768270858 [Eh]
	 SCS Total Energy          =    -498.1146682258557803 [Eh]
	-----------------------------------------------------------

  Dipole Moment: [D]
     X:     8.3380      Y:     1.3802      Z:     2.7860     Total:     8.8988

*** Psi4 exiting successfully. Buy a developer a beer!
