                               Psi4 1.3.2 release

  ==> Input File <==

--------------------------------------------------------------------------
#psi4
#
memory 32 gb

molecule  {
-1 1
  O       -2.4775990    -1.4732410    -0.5357720
  O       -2.5836320     0.8103810    -0.7086120
  C        0.1769840    -0.1996970     0.5360780
  C        0.8528670     0.9715620     0.1268880
  C       -1.2378850    -0.1617980     1.0317040
  C        0.8256870    -1.4354030     0.3918760
  C        2.1654290     0.8711020    -0.3500530
  C        0.2132597     2.3280156     0.3411151
  C        2.1298550    -1.5237740    -0.0958170
  C        2.8103870    -0.3625320    -0.4658790
  C       -2.2184660    -0.2891600    -0.2009230
  H       -1.4126520    -1.0091000     1.7035120
  H       -1.4413430     0.7679950     1.5725290
  H        0.2756770    -2.3364080     0.6567980
  H        2.6838580     1.7794620    -0.6595800
  H       -0.8491240     2.2156170    -0.2099720
  H        0.0735000     2.6566880     1.2394400
  H        0.7245490     3.0640340    -0.3581400
  H        2.6081740    -2.4970700    -0.1982670
  H        3.8302350    -0.4147610    -0.8445580
units angstrom
no_reorient  #important for SAPT in psi4, default
symmetry c1  #important for SAPT in psi4, default
}

set PROPERTIES_ORIGIN ["COM"]
properties('MP2/aug-cc-pvtz', properties = ['dipole'])
--------------------------------------------------------------------------

    Molecular point group: c1
  Charge       = -1
  Multiplicity = 1
  Basis Set: AUG-CC-PVTZ
    Blend: AUG-CC-PVTZ
  Basis Set: (AUG-CC-PVTZ AUX)
    Blend: AUG-CC-PVTZ-JKFIT

    Orbital Energies [Eh]
    ---------------------

    Doubly Occupied:

       1A    -20.309379     2A    -20.309168     3A    -11.157052
       4A    -11.118520     5A    -11.118296     6A    -11.116332
       7A    -11.114673     8A    -11.112776     9A    -11.106899
      10A    -11.092532    11A    -11.073794    12A     -1.179317
      13A     -1.083452    14A     -1.032074    15A     -0.926687
      16A     -0.907524    17A     -0.822327    18A     -0.789405
      19A     -0.689870    20A     -0.666256    21A     -0.564272
      22A     -0.534162    23A     -0.521493    24A     -0.501783
      25A     -0.480446    26A     -0.454294    27A     -0.441611
      28A     -0.430859    29A     -0.425309    30A     -0.390843
      31A     -0.385390    32A     -0.372091    33A     -0.360674
      34A     -0.348176    35A     -0.329128    36A     -0.235076
      37A     -0.225308    38A     -0.211052    39A     -0.207442
      40A     -0.175965

  @DF-RHF Final Energy:  -495.97129024222852

   => Energetics <=

    Nuclear Repulsion Energy =            571.5511520293175636
    One-Electron Energy =               -1822.4014762188546683
    Two-Electron Energy =                 754.8790339473085851
    Total Energy =                       -495.9712902422285197
  Basis Set: (AUG-CC-PVTZ AUX)
    Blend: AUG-CC-PVTZ-RI
    Molecular point group: c1

    Geometry (in Angstrom), charge = -1, multiplicity = 1:

       Center              X                  Y                   Z               Mass
    ------------   -----------------  -----------------  -----------------  -----------------
         O           -2.438736431404    -1.446653947972    -0.527725064507    15.994914619570
         O           -2.544769431404     0.836968052028    -0.700565064507    15.994914619570
         C            0.215846568596    -0.173109947972     0.544124935493    12.000000000000
         C            0.891729568596     0.998149052028     0.134934935493    12.000000000000
         C           -1.199022431404    -0.135210947972     1.039750935493    12.000000000000
         C            0.864549568596    -1.408815947972     0.399922935493    12.000000000000
         C            2.204291568596     0.897689052028    -0.342006064507    12.000000000000
         C            0.252122268596     2.354602652028     0.349162035493    12.000000000000
         C            2.168717568596    -1.497186947972    -0.087770064507    12.000000000000
         C            2.849249568596    -0.335944947972    -0.457832064507    12.000000000000
         C           -2.179603431404    -0.262572947972    -0.192876064507    12.000000000000
         H           -1.373789431404    -0.982512947972     1.711558935493     1.007825032230
         H           -1.402480431404     0.794582052028     1.580575935493     1.007825032230
         H            0.314539568596    -2.309820947972     0.664844935493     1.007825032230
         H            2.722720568596     1.806049052028    -0.651533064507     1.007825032230
         H           -0.810261431404     2.242204052028    -0.201925064507     1.007825032230
         H            0.112362568596     2.683275052028     1.247486935493     1.007825032230
         H            0.763411568596     3.090621052028    -0.350093064507     1.007825032230
         H            2.647036568596    -2.470482947972    -0.190220064507     1.007825032230
         H            3.869097568596    -0.388173947972    -0.836511064507     1.007825032230

  Basis Set: AUG-CC-PVTZ
    Blend: AUG-CC-PVTZ
  Basis Set: (AUG-CC-PVTZ AUX)
    Blend: AUG-CC-PVTZ-JKFIT
	 Reference Energy          =    -495.9712902422285197 [Eh]
	 Singles Energy            =      -0.0000000000000000 [Eh]
	 Same-Spin Energy          =      -0.5336745900467545 [Eh]
	 Opposite-Spin Energy      =      -1.6369305321576748 [Eh]
	 Correlation Energy        =      -2.1706051222044294 [Eh]
	 Total Energy              =    -498.1418953644329690 [Eh]

	 ================> DF-SCS-MP2 Energies <==================
	-----------------------------------------------------------
	 SCS Same-Spin Scale       =       0.3333333333333333 [-]
	 SCS Opposite-Spin Scale   =       1.2000000000000000 [-]
	 SCS Same-Spin Energy      =      -0.1778915300155848 [Eh]
	 SCS Opposite-Spin Energy  =      -1.9643166385892097 [Eh]
	 SCS Correlation Energy    =      -2.1422081686047947 [Eh]
	 SCS Total Energy          =    -498.1134984108333015 [Eh]
	-----------------------------------------------------------

  Dipole Moment: [D]
     X:     8.4531      Y:     1.3416      Z:     3.0664     Total:     9.0916

*** Psi4 exiting successfully. Buy a developer a beer!
