                               Psi4 1.3.2 release

  ==> Input File <==

--------------------------------------------------------------------------
#psi4
#
memory 32 gb

molecule  {
-1 1
  O       -2.4775990    -1.4732410    -0.5357720
  O       -2.5836320     0.8103810    -0.7086120
  C        0.1769840    -0.1996970     0.5360780
  C        0.8528670     0.9715620     0.1268880
  C       -1.0802178    -0.1637892     0.9086712
  C        0.8256870    -1.4354030     0.3918760
  C        2.1654290     0.8711020    -0.3500530
  C        0.1613040     2.3091050     0.2016770
  C        2.1298550    -1.5237740    -0.0958170
  C        2.8103870    -0.3625320    -0.4658790
  C       -2.2184660    -0.2891600    -0.2009230
  H       -1.4126520    -1.0091000     1.7035120
  H       -1.4413430     0.7679950     1.5725290
  H        0.2756770    -2.3364080     0.6567980
  H        2.6838580     1.7794620    -0.6595800
  H       -0.8491240     2.2156170    -0.2099720
  H        0.0735000     2.6566880     1.2394400
  H        0.7245490     3.0640340    -0.3581400
  H        2.6081740    -2.4970700    -0.1982670
  H        3.8302350    -0.4147610    -0.8445580
units angstrom
no_reorient  #important for SAPT in psi4, default
symmetry c1  #important for SAPT in psi4, default
}

set PROPERTIES_ORIGIN ["COM"]
properties('MP2/aug-cc-pvtz', properties = ['dipole'])
--------------------------------------------------------------------------

    Molecular point group: c1
  Charge       = -1
  Multiplicity = 1
  Basis Set: AUG-CC-PVTZ
    Blend: AUG-CC-PVTZ
  Basis Set: (AUG-CC-PVTZ AUX)
    Blend: AUG-CC-PVTZ-JKFIT

    Orbital Energies [Eh]
    ---------------------

    Doubly Occupied:

       1A    -20.313761     2A    -20.313668     3A    -11.163732
       4A    -11.117662     5A    -11.116321     6A    -11.115736
       7A    -11.114344     8A    -11.106095     9A    -11.100537
      10A    -11.091781    11A    -11.079562    12A     -1.183252
      13A     -1.087345    14A     -1.041118    15A     -0.944801
      16A     -0.914517    17A     -0.825031    18A     -0.783346
      19A     -0.690656    20A     -0.661752    21A     -0.573531
      22A     -0.533208    23A     -0.526943    24A     -0.503485
      25A     -0.465849    26A     -0.460257    27A     -0.448127
      28A     -0.424156    29A     -0.420932    30A     -0.415196
      31A     -0.379107    32A     -0.372531    33A     -0.363771
      34A     -0.347321    35A     -0.316257    36A     -0.246705
      37A     -0.225878    38A     -0.213393    39A     -0.207734
      40A     -0.165000

  @DF-RHF Final Energy:  -495.94667018923423

   => Energetics <=

    Nuclear Repulsion Energy =            575.3104696449281619
    One-Electron Energy =               -1829.7654934512950149
    Two-Electron Energy =                 758.5083536171326841
    Total Energy =                       -495.9466701892341689
  Basis Set: (AUG-CC-PVTZ AUX)
    Blend: AUG-CC-PVTZ-RI
    Molecular point group: c1

    Geometry (in Angstrom), charge = -1, multiplicity = 1:

       Center              X                  Y                   Z               Mass
    ------------   -----------------  -----------------  -----------------  -----------------
         O           -2.447246667778    -1.444971261995    -0.506595013375    15.994914619570
         O           -2.553279667778     0.838650738005    -0.679435013375    15.994914619570
         C            0.207336332222    -0.171427261995     0.565254986625    12.000000000000
         C            0.883219332222     0.999831738005     0.156064986625    12.000000000000
         C           -1.049865467778    -0.135519461995     0.937848186625    12.000000000000
         C            0.856039332222    -1.407133261995     0.421052986625    12.000000000000
         C            2.195781332222     0.899371738005    -0.320876013375    12.000000000000
         C            0.191656332222     2.337374738005     0.230853986625    12.000000000000
         C            2.160207332222    -1.495504261995    -0.066640013375    12.000000000000
         C            2.840739332222    -0.334262261995    -0.436702013375    12.000000000000
         C           -2.188113667778    -0.260890261995    -0.171746013375    12.000000000000
         H           -1.382299667778    -0.980830261995     1.732688986625     1.007825032230
         H           -1.410990667778     0.796264738005     1.601705986625     1.007825032230
         H            0.306029332222    -2.308138261995     0.685974986625     1.007825032230
         H            2.714210332222     1.807731738005    -0.630403013375     1.007825032230
         H           -0.818771667778     2.243886738005    -0.180795013375     1.007825032230
         H            0.103852332222     2.684957738005     1.268616986625     1.007825032230
         H            0.754901332222     3.092303738005    -0.328963013375     1.007825032230
         H            2.638526332222    -2.468800261995    -0.169090013375     1.007825032230
         H            3.860587332222    -0.386491261995    -0.815381013375     1.007825032230

  Basis Set: AUG-CC-PVTZ
    Blend: AUG-CC-PVTZ
  Basis Set: (AUG-CC-PVTZ AUX)
    Blend: AUG-CC-PVTZ-JKFIT
	 Reference Energy          =    -495.9466701892342257 [Eh]
	 Singles Energy            =      -0.0000000000000000 [Eh]
	 Same-Spin Energy          =      -0.5370537360702663 [Eh]
	 Opposite-Spin Energy      =      -1.6412343649331274 [Eh]
	 Correlation Energy        =      -2.1782881010033934 [Eh]
	 Total Energy              =    -498.1249582902376005 [Eh]

	 ================> DF-SCS-MP2 Energies <==================
	-----------------------------------------------------------
	 SCS Same-Spin Scale       =       0.3333333333333333 [-]
	 SCS Opposite-Spin Scale   =       1.2000000000000000 [-]
	 SCS Same-Spin Energy      =      -0.1790179120234221 [Eh]
	 SCS Opposite-Spin Energy  =      -1.9694812379197528 [Eh]
	 SCS Correlation Energy    =      -2.1484991499431749 [Eh]
	 SCS Total Energy          =    -498.0951693391774029 [Eh]
	-----------------------------------------------------------

  Dipole Moment: [D]
     X:     8.2635      Y:     1.3754      Z:     2.7028     Total:     8.8024

*** Psi4 exiting successfully. Buy a developer a beer!
