                               Psi4 1.3.2 release

  ==> Input File <==

--------------------------------------------------------------------------
#psi4
#
memory 32 gb

molecule  {
-1 1
  O       -2.4775990    -1.4732410    -0.5357720
  O       -2.5836320     0.8103810    -0.7086120
  C        0.1769840    -0.1996970     0.5360780
  C        0.8528670     0.9715620     0.1268880
  C       -1.1984682    -0.1622958     1.0009458
  C        0.8256870    -1.4354030     0.3918760
  C        2.1654290     0.8711020    -0.3500530
  C        0.1613040     2.3091050     0.2016770
  C        2.1298550    -1.5237740    -0.0958170
  C        2.8103870    -0.3625320    -0.4658790
  C       -2.2184660    -0.2891600    -0.2009230
  H       -1.4126520    -1.0091000     1.7035120
  H       -1.4413430     0.7679950     1.5725290
  H        0.2756770    -2.3364080     0.6567980
  H        2.6838580     1.7794620    -0.6595800
  H       -0.8491240     2.2156170    -0.2099720
  H        0.0735000     2.6566880     1.2394400
  H        0.7245490     3.0640340    -0.3581400
  H        2.6081740    -2.4970700    -0.1982670
  H        3.8302350    -0.4147610    -0.8445580
units angstrom
no_reorient  #important for SAPT in psi4, default
symmetry c1  #important for SAPT in psi4, default
}

set PROPERTIES_ORIGIN ["COM"]
properties('MP2/aug-cc-pvtz', properties = ['dipole'])
--------------------------------------------------------------------------

    Molecular point group: c1
  Charge       = -1
  Multiplicity = 1
  Basis Set: AUG-CC-PVTZ
    Blend: AUG-CC-PVTZ
  Basis Set: (AUG-CC-PVTZ AUX)
    Blend: AUG-CC-PVTZ-JKFIT

    Orbital Energies [Eh]
    ---------------------

    Doubly Occupied:

       1A    -20.309948     2A    -20.309836     3A    -11.157804
       4A    -11.118330     5A    -11.116995     6A    -11.116054
       7A    -11.114650     8A    -11.110384     9A    -11.106725
      10A    -11.092135    11A    -11.074717    12A     -1.179961
      13A     -1.084060    14A     -1.033733    15A     -0.929798
      16A     -0.910066    17A     -0.821983    18A     -0.786587
      19A     -0.690039    20A     -0.663956    21A     -0.564294
      22A     -0.532486    23A     -0.523759    24A     -0.501144
      25A     -0.462324    26A     -0.454031    27A     -0.443254
      28A     -0.426283    29A     -0.424042    30A     -0.413539
      31A     -0.381574    32A     -0.374045    33A     -0.364536
      34A     -0.346187    35A     -0.337556    36A     -0.237587
      37A     -0.225674    38A     -0.211665    39A     -0.207296
      40A     -0.174060

  @DF-RHF Final Energy:  -495.99364993901770

   => Energetics <=

    Nuclear Repulsion Energy =            572.8228998469567159
    One-Electron Energy =               -1824.9669001492127336
    Two-Electron Energy =                 756.1503503632383172
    Total Energy =                       -495.9936499390177005
  Basis Set: (AUG-CC-PVTZ AUX)
    Blend: AUG-CC-PVTZ-RI
    Molecular point group: c1

    Geometry (in Angstrom), charge = -1, multiplicity = 1:

       Center              X                  Y                   Z               Mass
    ------------   -----------------  -----------------  -----------------  -----------------
         O           -2.437726995317    -1.445091487202    -0.514023520749    15.994914619570
         O           -2.543759995317     0.838530512798    -0.686863520749    15.994914619570
         C            0.216856004683    -0.171547487202     0.557826479251    12.000000000000
         C            0.892739004683     0.999711512798     0.148636479251    12.000000000000
         C           -1.158596195317    -0.134146287202     1.022694279251    12.000000000000
         C            0.865559004683    -1.407253487202     0.413624479251    12.000000000000
         C            2.205301004683     0.899251512798    -0.328304520749    12.000000000000
         C            0.201176004683     2.337254512798     0.223425479251    12.000000000000
         C            2.169727004683    -1.495624487202    -0.074068520749    12.000000000000
         C            2.850259004683    -0.334382487202    -0.444130520749    12.000000000000
         C           -2.178593995317    -0.261010487202    -0.179174520749    12.000000000000
         H           -1.372779995317    -0.980950487202     1.725260479251     1.007825032230
         H           -1.401470995317     0.796144512798     1.594277479251     1.007825032230
         H            0.315549004683    -2.308258487202     0.678546479251     1.007825032230
         H            2.723730004683     1.807611512798    -0.637831520749     1.007825032230
         H           -0.809251995317     2.243766512798    -0.188223520749     1.007825032230
         H            0.113372004683     2.684837512798     1.261188479251     1.007825032230
         H            0.764421004683     3.092183512798    -0.336391520749     1.007825032230
         H            2.648046004683    -2.468920487202    -0.176518520749     1.007825032230
         H            3.870107004683    -0.386611487202    -0.822809520749     1.007825032230

  Basis Set: AUG-CC-PVTZ
    Blend: AUG-CC-PVTZ
  Basis Set: (AUG-CC-PVTZ AUX)
    Blend: AUG-CC-PVTZ-JKFIT
	 Reference Energy          =    -495.9936499390177005 [Eh]
	 Singles Energy            =      -0.0000000000000000 [Eh]
	 Same-Spin Energy          =      -0.5336506216933254 [Eh]
	 Opposite-Spin Energy      =      -1.6363033214033260 [Eh]
	 Correlation Energy        =      -2.1699539430966515 [Eh]
	 Total Energy              =    -498.1636038821143302 [Eh]

	 ================> DF-SCS-MP2 Energies <==================
	-----------------------------------------------------------
	 SCS Same-Spin Scale       =       0.3333333333333333 [-]
	 SCS Opposite-Spin Scale   =       1.2000000000000000 [-]
	 SCS Same-Spin Energy      =      -0.1778835405644418 [Eh]
	 SCS Opposite-Spin Energy  =      -1.9635639856839910 [Eh]
	 SCS Correlation Energy    =      -2.1414475262484327 [Eh]
	 SCS Total Energy          =    -498.1350974652661421 [Eh]
	-----------------------------------------------------------

  Dipole Moment: [D]
     X:     8.4477      Y:     1.3888      Z:     2.9180     Total:     9.0448

*** Psi4 exiting successfully. Buy a developer a beer!
