                               Psi4 1.3.2 release

  ==> Input File <==

--------------------------------------------------------------------------
#psi4
#
memory 32 gb

molecule  {
0 1
  O       -2.3851110    -0.4314350    -0.0002820
  N        2.5187010    -0.2207910    -0.0001120
  C       -0.0130310    -0.3414550     0.0003300
  C        1.2524210     0.5177120    -0.0001190
  C       -1.2093698     0.5459206     0.0001139
  H       -0.0208770    -0.9936910    -0.8809850
  H       -0.0206570    -0.9930790     0.8820930
  H        1.2550010     1.1745560     0.8775860
  H        1.2546990     1.1740390    -0.8782090
  H       -1.3125800     1.1321620    -0.8873520
  H       -1.3130830     1.1320500     0.8875860
  H        2.5458240    -0.8359140    -0.8127320
  H        2.5461020    -0.8354320     0.8128620
  H       -3.2031750     0.0928130     0.0003940
units angstrom
no_reorient  #important for SAPT in psi4, default
symmetry c1  #important for SAPT in psi4, default
}

set PROPERTIES_ORIGIN ["COM"]
properties('MP2/aug-cc-pvtz', properties = ['dipole'])
--------------------------------------------------------------------------

    Molecular point group: c1
  Charge       = 0
  Multiplicity = 1
  Basis Set: AUG-CC-PVTZ
    Blend: AUG-CC-PVTZ
  Basis Set: (AUG-CC-PVTZ AUX)
    Blend: AUG-CC-PVTZ-JKFIT

    Orbital Energies [Eh]
    ---------------------

    Doubly Occupied:

       1A    -20.550463     2A    -15.542596     3A    -11.279025
       4A    -11.251598     5A    -11.221160     6A     -1.321648
       7A     -1.180283     8A     -1.043056     9A     -0.890514
      10A     -0.815266    11A     -0.685794    12A     -0.667802
      13A     -0.643124    14A     -0.598155    15A     -0.548924
      16A     -0.545855    17A     -0.526125    18A     -0.498295
      19A     -0.483795    20A     -0.454937    21A     -0.391897

  @DF-RHF Final Energy:  -248.22740425525723

   => Energetics <=

    Nuclear Repulsion Energy =            185.1247311077626421
    One-Electron Energy =                -704.4236445515426794
    Two-Electron Energy =                 271.0715091885228389
    Total Energy =                       -248.2274042552572269
  Basis Set: (AUG-CC-PVTZ AUX)
    Blend: AUG-CC-PVTZ-RI
    Molecular point group: c1

    Geometry (in Angstrom), charge = 0, multiplicity = 1:

       Center              X                  Y                   Z               Mass
    ------------   -----------------  -----------------  -----------------  -----------------
         O           -2.374786460738    -0.427829132569    -0.000269646153    15.994914619570
         N            2.529025539262    -0.217185132569    -0.000099646153    14.003074004430
         C           -0.002706460738    -0.337849132569     0.000342353847    12.000000000000
         C            1.262745539262     0.521317867431    -0.000106646153    12.000000000000
         C           -1.199045260738     0.549526467431     0.000126253847    12.000000000000
         H           -0.010552460738    -0.990085132569    -0.880972646153     1.007825032230
         H           -0.010332460738    -0.989473132569     0.882105353847     1.007825032230
         H            1.265325539262     1.178161867431     0.877598353847     1.007825032230
         H            1.265023539262     1.177644867431    -0.878196646153     1.007825032230
         H           -1.302255460738     1.135767867431    -0.887339646153     1.007825032230
         H           -1.302758460738     1.135655867431     0.887598353847     1.007825032230
         H            2.556148539262    -0.832308132569    -0.812719646153     1.007825032230
         H            2.556426539262    -0.831826132569     0.812874353847     1.007825032230
         H           -3.192850460738     0.096418867431     0.000406353847     1.007825032230

  Basis Set: AUG-CC-PVTZ
    Blend: AUG-CC-PVTZ
  Basis Set: (AUG-CC-PVTZ AUX)
    Blend: AUG-CC-PVTZ-JKFIT
	 Reference Energy          =    -248.2274042552572269 [Eh]
	 Singles Energy            =      -0.0000000000000000 [Eh]
	 Same-Spin Energy          =      -0.2487373570891038 [Eh]
	 Opposite-Spin Energy      =      -0.8476013616380706 [Eh]
	 Correlation Energy        =      -1.0963387187271745 [Eh]
	 Total Energy              =    -249.3237429739843947 [Eh]

	 ================> DF-SCS-MP2 Energies <==================
	-----------------------------------------------------------
	 SCS Same-Spin Scale       =       0.3333333333333333 [-]
	 SCS Opposite-Spin Scale   =       1.2000000000000000 [-]
	 SCS Same-Spin Energy      =      -0.0829124523630346 [Eh]
	 SCS Opposite-Spin Energy  =      -1.0171216339656848 [Eh]
	 SCS Correlation Energy    =      -1.1000340863287195 [Eh]
	 SCS Total Energy          =    -249.3274383415859461 [Eh]
	-----------------------------------------------------------

  Dipole Moment: [D]
     X:    -0.8492      Y:     0.8931      Z:     0.0019     Total:     1.2324

*** Psi4 exiting successfully. Buy a developer a beer!
