                               Psi4 1.3.2 release

  ==> Input File <==

--------------------------------------------------------------------------
#psi4
#
memory 32 gb

molecule  {
0 1
  O       -2.3851110    -0.4314350    -0.0002820
  N        2.5187010    -0.2207910    -0.0001120
  C       -0.0130310    -0.3414550     0.0003300
  C        1.2178818     0.4425481    -0.1293502
  C       -1.2862700     0.4819960     0.0000880
  H       -0.0208770    -0.9936910    -0.8809850
  H       -0.0206570    -0.9930790     0.8820930
  H        1.2550010     1.1745560     0.8775860
  H        1.2546990     1.1740390    -0.8782090
  H       -1.3125800     1.1321620    -0.8873520
  H       -1.3130830     1.1320500     0.8875860
  H        2.5458240    -0.8359140    -0.8127320
  H        2.5461020    -0.8354320     0.8128620
  H       -3.2031750     0.0928130     0.0003940
units angstrom
no_reorient  #important for SAPT in psi4, default
symmetry c1  #important for SAPT in psi4, default
}

set PROPERTIES_ORIGIN ["COM"]
properties('MP2/aug-cc-pvtz', properties = ['dipole'])
--------------------------------------------------------------------------

    Molecular point group: c1
  Charge       = 0
  Multiplicity = 1
  Basis Set: AUG-CC-PVTZ
    Blend: AUG-CC-PVTZ
  Basis Set: (AUG-CC-PVTZ AUX)
    Blend: AUG-CC-PVTZ-JKFIT

    Orbital Energies [Eh]
    ---------------------

    Doubly Occupied:

       1A    -20.562946     2A    -15.545848     3A    -11.281169
       4A    -11.256312     5A    -11.219769     6A     -1.358955
       7A     -1.184495     8A     -1.043310     9A     -0.890737
      10A     -0.808884    11A     -0.696680    12A     -0.678642
      13A     -0.641172    14A     -0.603359    15A     -0.571434
      16A     -0.555627    17A     -0.536261    18A     -0.491429
      19A     -0.450179    20A     -0.443156    21A     -0.398567

  @DF-RHF Final Energy:  -248.21259652392740

   => Energetics <=

    Nuclear Repulsion Energy =            186.2108858225542178
    One-Electron Energy =                -706.4091074519139966
    Two-Electron Energy =                 271.9856251054323479
    Total Energy =                       -248.2125965239274024
  Basis Set: (AUG-CC-PVTZ AUX)
    Blend: AUG-CC-PVTZ-RI
    Molecular point group: c1

    Geometry (in Angstrom), charge = 0, multiplicity = 1:

       Center              X                  Y                   Z               Mass
    ------------   -----------------  -----------------  -----------------  -----------------
         O           -2.356972406460    -0.405595253991     0.020392642007    15.994914619570
         N            2.546839593540    -0.194951253991     0.020562642007    14.003074004430
         C            0.015107593540    -0.315615253991     0.021004642007    12.000000000000
         C            1.246020393540     0.468387846009    -0.108675557993    12.000000000000
         C           -1.258131406460     0.507835746009     0.020762642007    12.000000000000
         H            0.007261593540    -0.967851253991    -0.860310357993     1.007825032230
         H            0.007481593540    -0.967239253991     0.902767642007     1.007825032230
         H            1.283139593540     1.200395746009     0.898260642007     1.007825032230
         H            1.282837593540     1.199878746009    -0.857534357993     1.007825032230
         H           -1.284441406460     1.158001746009    -0.866677357993     1.007825032230
         H           -1.284944406460     1.157889746009     0.908260642007     1.007825032230
         H            2.573962593540    -0.810074253991    -0.792057357993     1.007825032230
         H            2.574240593540    -0.809592253991     0.833536642007     1.007825032230
         H           -3.175036406460     0.118652746009     0.021068642007     1.007825032230

  Basis Set: AUG-CC-PVTZ
    Blend: AUG-CC-PVTZ
  Basis Set: (AUG-CC-PVTZ AUX)
    Blend: AUG-CC-PVTZ-JKFIT
	 Reference Energy          =    -248.2125965239274024 [Eh]
	 Singles Energy            =      -0.0000000000000000 [Eh]
	 Same-Spin Energy          =      -0.2492096062869432 [Eh]
	 Opposite-Spin Energy      =      -0.8474474118405571 [Eh]
	 Correlation Energy        =      -1.0966570181275002 [Eh]
	 Total Energy              =    -249.3092535420549041 [Eh]

	 ================> DF-SCS-MP2 Energies <==================
	-----------------------------------------------------------
	 SCS Same-Spin Scale       =       0.3333333333333333 [-]
	 SCS Opposite-Spin Scale   =       1.2000000000000000 [-]
	 SCS Same-Spin Energy      =      -0.0830698687623144 [Eh]
	 SCS Opposite-Spin Energy  =      -1.0169368942086685 [Eh]
	 SCS Correlation Energy    =      -1.1000067629709829 [Eh]
	 SCS Total Energy          =    -249.3126032868983941 [Eh]
	-----------------------------------------------------------

  Dipole Moment: [D]
     X:    -1.2120      Y:     0.5741      Z:    -0.1312     Total:     1.3475

*** Psi4 exiting successfully. Buy a developer a beer!
