                               Psi4 1.4a3.dev225

  ==> Input File <==

--------------------------------------------------------------------------
#psi4
#
memory 32 gb

molecule  {
0 1
  O        2.3850150    -0.4314620    -0.0000020
  N       -2.5187610    -0.2207970     0.0000020
  C        0.0130360    -0.3413840    -0.0000010
  C       -1.2351212     0.5277853    -0.0000071
  C        1.2864090     0.4819960     0.0000060
  H        0.0207440    -0.9933730     0.8815180
  H        0.0207540    -0.9933720    -0.8815200
  H       -1.2549080     1.1742870    -0.8779080
  H       -1.2549050     1.1743050     0.8778810
  H        1.3129410     1.1321370     0.8874920
  H        1.3129410     1.1321530    -0.8874690
  H       -2.5459240    -0.8356760     0.8128080
  H       -2.5459230    -0.8357000    -0.8127860
  H        3.2032020     0.0925730    -0.0000070
units angstrom
no_reorient  #important for SAPT in psi4, default
symmetry c1  #important for SAPT in psi4, default
}

set PROPERTIES_ORIGIN ["COM"]
properties('MP2/aug-cc-pvtz', properties = ['dipole'])
--------------------------------------------------------------------------

    Molecular point group: c1
  Charge       = 0
  Multiplicity = 1
  Basis Set: AUG-CC-PVTZ
    Blend: AUG-CC-PVTZ
  Basis Set: (AUG-CC-PVTZ AUX)
    Blend: AUG-CC-PVTZ-JKFIT

    Orbital Energies [Eh]
    ---------------------

    Doubly Occupied:

       1A    -20.561603     2A    -15.541153     3A    -11.278895
       4A    -11.249771     5A    -11.219351     6A     -1.357631
       7A     -1.172993     8A     -1.034168     9A     -0.888716
      10A     -0.809884    11A     -0.692976    12A     -0.681019
      13A     -0.638421    14A     -0.595475    15A     -0.555638
      16A     -0.552556    17A     -0.535123    18A     -0.485430
      19A     -0.485278    20A     -0.447447    21A     -0.392430

  @DF-RHF Final Energy:  -248.23631443330160

   => Energetics <=

    Nuclear Repulsion Energy =            185.5079914391655507
    One-Electron Energy =                -705.1366944616070214
    Two-Electron Energy =                 271.3923885891398413
    Total Energy =                       -248.2363144333015725
  Basis Set: (AUG-CC-PVTZ AUX)
    Blend: AUG-CC-PVTZ-RI
    Molecular point group: c1

    Geometry (in Angstrom), charge = 0, multiplicity = 1:

       Center              X                  Y                   Z               Mass
    ------------   -----------------  -----------------  -----------------  -----------------
         O            2.359638461874    -0.419249972165    -0.000001732068    15.994914619570
         N           -2.544137538126    -0.208584972165     0.000002267932    14.003074004430
         C           -0.012340538126    -0.329171972165    -0.000000732068    12.000000000000
         C           -1.260497738126     0.539997327835    -0.000006832068    12.000000000000
         C            1.261032461874     0.494208027835     0.000006267932    12.000000000000
         H           -0.004632538126    -0.981160972165     0.881518267932     1.007825032230
         H           -0.004622538126    -0.981159972165    -0.881519732068     1.007825032230
         H           -1.280284538126     1.186499027835    -0.877907732068     1.007825032230
         H           -1.280281538126     1.186517027835     0.877881267932     1.007825032230
         H            1.287564461874     1.144349027835     0.887492267932     1.007825032230
         H            1.287564461874     1.144365027835    -0.887468732068     1.007825032230
         H           -2.571300538126    -0.823463972165     0.812808267932     1.007825032230
         H           -2.571299538126    -0.823487972165    -0.812785732068     1.007825032230
         H            3.177825461874     0.104785027835    -0.000006732068     1.007825032230

  Basis Set: AUG-CC-PVTZ
    Blend: AUG-CC-PVTZ
  Basis Set: (AUG-CC-PVTZ AUX)
    Blend: AUG-CC-PVTZ-JKFIT
	 Reference Energy          =    -248.2363144333016010 [Eh]
	 Singles Energy            =      -0.0000000000000000 [Eh]
	 Same-Spin Energy          =      -0.2481698002567859 [Eh]
	 Opposite-Spin Energy      =      -0.8455809986765950 [Eh]
	 Correlation Energy        =      -1.0937507989333808 [Eh]
	 Total Energy              =    -249.3300652322349720 [Eh]

	 ================> DF-SCS-MP2 Energies <==================
	-----------------------------------------------------------
	 SCS Same-Spin Scale       =       0.3333333333333333 [-]
	 SCS Opposite-Spin Scale   =       1.2000000000000000 [-]
	 SCS Same-Spin Energy      =      -0.0827232667522620 [Eh]
	 SCS Opposite-Spin Energy  =      -1.0146971984119140 [Eh]
	 SCS Correlation Energy    =      -1.0974204651641759 [Eh]
	 SCS Total Energy          =    -249.3337348984657638 [Eh]
	-----------------------------------------------------------

  Dipole Moment: [D]
     X:     1.2232      Y:     0.7296      Z:     0.0000     Total:     1.4243

*** Psi4 exiting successfully. Buy a developer a beer!
