                               Psi4 1.4a3.dev225

  ==> Input File <==

--------------------------------------------------------------------------
#psi4
#
memory 32 gb

molecule  {
0 1
  O        2.3850150    -0.4314620    -0.0000020
  N       -2.5187610    -0.2207970     0.0000020
  C        0.0130360    -0.3413840    -0.0000010
  C       -1.2523980     0.5177100    -0.0000070
  C        1.2864090     0.4819960     0.0000060
  H        0.0207440    -0.9933730     0.8815180
  H        0.0207540    -0.9933720    -0.8815200
  H       -1.2549080     1.1742870    -0.8779080
  H       -1.2549050     1.1743050     0.8778810
  H        1.3129410     1.1321370     0.8874920
  H        1.3129410     1.1321530    -0.8874690
  H       -2.5459240    -0.8356760     0.8128080
  H       -2.5453902    -0.8236377    -0.7968418
  H        3.2032020     0.0925730    -0.0000070
units angstrom
no_reorient  #important for SAPT in psi4, default
symmetry c1  #important for SAPT in psi4, default
}

set PROPERTIES_ORIGIN ["COM"]
properties('MP2/aug-cc-pvtz', properties = ['dipole'])
--------------------------------------------------------------------------

    Molecular point group: c1
  Charge       = 0
  Multiplicity = 1
  Basis Set: AUG-CC-PVTZ
    Blend: AUG-CC-PVTZ
  Basis Set: (AUG-CC-PVTZ AUX)
    Blend: AUG-CC-PVTZ-JKFIT

    Orbital Energies [Eh]
    ---------------------

    Doubly Occupied:

       1A    -20.561506     2A    -15.539459     3A    -11.278809
       4A    -11.249994     5A    -11.219075     6A     -1.357487
       7A     -1.180991     8A     -1.033210     9A     -0.888478
      10A     -0.809359    11A     -0.692893    12A     -0.683098
      13A     -0.640555    14A     -0.597852    15A     -0.558632
      16A     -0.551764    17A     -0.536019    18A     -0.485087
      19A     -0.483004    20A     -0.447175    21A     -0.392323

  @DF-RHF Final Energy:  -248.23704500914829

   => Energetics <=

    Nuclear Repulsion Energy =            185.6351434653483636
    One-Electron Energy =                -705.3708379161348603
    Two-Electron Energy =                 271.4986494416381788
    Total Energy =                       -248.2370450091482894
  Basis Set: (AUG-CC-PVTZ AUX)
    Blend: AUG-CC-PVTZ-RI
    Molecular point group: c1

    Geometry (in Angstrom), charge = 0, multiplicity = 1:

       Center              X                  Y                   Z               Mass
    ------------   -----------------  -----------------  -----------------  -----------------
         O            2.362393077564    -0.417801334763    -0.000215805645    15.994914619570
         N           -2.541382922436    -0.207136334763    -0.000211805645    14.003074004430
         C           -0.009585922436    -0.327723334763    -0.000214805645    12.000000000000
         C           -1.275019922436     0.531370665237    -0.000220805645    12.000000000000
         C            1.263787077564     0.495656665237    -0.000207805645    12.000000000000
         H           -0.001877922436    -0.979712334763     0.881304194355     1.007825032230
         H           -0.001867922436    -0.979711334763    -0.881733805645     1.007825032230
         H           -1.277529922436     1.187947665237    -0.878121805645     1.007825032230
         H           -1.277526922436     1.187965665237     0.877667194355     1.007825032230
         H            1.290319077564     1.145797665237     0.887278194355     1.007825032230
         H            1.290319077564     1.145813665237    -0.887682805645     1.007825032230
         H           -2.568545922436    -0.822015334763     0.812594194355     1.007825032230
         H           -2.568012122436    -0.809977034763    -0.797055605645     1.007825032230
         H            3.180580077564     0.106233665237    -0.000220805645     1.007825032230

  Basis Set: AUG-CC-PVTZ
    Blend: AUG-CC-PVTZ
  Basis Set: (AUG-CC-PVTZ AUX)
    Blend: AUG-CC-PVTZ-JKFIT
	 Reference Energy          =    -248.2370450091482894 [Eh]
	 Singles Energy            =      -0.0000000000000000 [Eh]
	 Same-Spin Energy          =      -0.2480969301519173 [Eh]
	 Opposite-Spin Energy      =      -0.8451296764481858 [Eh]
	 Correlation Energy        =      -1.0932266066001031 [Eh]
	 Total Energy              =    -249.3302716157483871 [Eh]

	 ================> DF-SCS-MP2 Energies <==================
	-----------------------------------------------------------
	 SCS Same-Spin Scale       =       0.3333333333333333 [-]
	 SCS Opposite-Spin Scale   =       1.2000000000000000 [-]
	 SCS Same-Spin Energy      =      -0.0826989767173057 [Eh]
	 SCS Opposite-Spin Energy  =      -1.0141556117378230 [Eh]
	 SCS Correlation Energy    =      -1.0968545884551288 [Eh]
	 SCS Total Energy          =    -249.3338995976034198 [Eh]
	-----------------------------------------------------------

  Dipole Moment: [D]
     X:     1.1717      Y:     0.7104      Z:     0.0032     Total:     1.3702

*** Psi4 exiting successfully. Buy a developer a beer!
