                               Psi4 1.3.2 release

  ==> Input File <==

--------------------------------------------------------------------------
#psi4
#
memory 32 gb

molecule  {
0 1
  O       -2.3851110    -0.4314350    -0.0002820
  N        2.5187010    -0.2207910    -0.0001120
  C       -0.0130310    -0.3414550     0.0003300
  C        1.2393446     0.4935174    -0.0432661
  C       -1.2862700     0.4819960     0.0000880
  H       -0.0208770    -0.9936910    -0.8809850
  H       -0.0206570    -0.9930790     0.8820930
  H        1.2550010     1.1745560     0.8775860
  H        1.2546990     1.1740390    -0.8782090
  H       -1.3125800     1.1321620    -0.8873520
  H       -1.3130830     1.1320500     0.8875860
  H        2.5458240    -0.8359140    -0.8127320
  H        2.5461020    -0.8354320     0.8128620
  H       -3.2031750     0.0928130     0.0003940
units angstrom
no_reorient  #important for SAPT in psi4, default
symmetry c1  #important for SAPT in psi4, default
}

set PROPERTIES_ORIGIN ["COM"]
properties('MP2/aug-cc-pvtz', properties = ['dipole'])
--------------------------------------------------------------------------

    Molecular point group: c1
  Charge       = 0
  Multiplicity = 1
  Basis Set: AUG-CC-PVTZ
    Blend: AUG-CC-PVTZ
  Basis Set: (AUG-CC-PVTZ AUX)
    Blend: AUG-CC-PVTZ-JKFIT

    Orbital Energies [Eh]
    ---------------------

    Doubly Occupied:

       1A    -20.561971     2A    -15.542718     3A    -11.279538
       4A    -11.251269     5A    -11.218915     6A     -1.357915
       7A     -1.180115     8A     -1.036071     9A     -0.888033
      10A     -0.808435    11A     -0.693773    12A     -0.680871
      13A     -0.639589    14A     -0.598676    15A     -0.562077
      16A     -0.551114    17A     -0.536393    18A     -0.487324
      19A     -0.471700    20A     -0.447609    21A     -0.395636

  @DF-RHF Final Energy:  -248.23348127337789

   => Energetics <=

    Nuclear Repulsion Energy =            185.7862966715407254
    One-Electron Energy =                -705.6600702411089969
    Two-Electron Energy =                 271.6402922961903528
    Total Energy =                       -248.2334812733778904
  Basis Set: (AUG-CC-PVTZ AUX)
    Blend: AUG-CC-PVTZ-RI
    Molecular point group: c1

    Geometry (in Angstrom), charge = 0, multiplicity = 1:

       Center              X                  Y                   Z               Mass
    ------------   -----------------  -----------------  -----------------  -----------------
         O           -2.360403324826    -0.413742909817     0.006631738504    15.994914619570
         N            2.543408675174    -0.203098909817     0.006801738504    14.003074004430
         C            0.011676675174    -0.323762909817     0.007243738504    12.000000000000
         C            1.264052275174     0.511209490183    -0.036352361496    12.000000000000
         C           -1.261562324826     0.499688090183     0.007001738504    12.000000000000
         H            0.003830675174    -0.975998909817    -0.874071261496     1.007825032230
         H            0.004050675174    -0.975386909817     0.889006738504     1.007825032230
         H            1.279708675174     1.192248090183     0.884499738504     1.007825032230
         H            1.279406675174     1.191731090183    -0.871295261496     1.007825032230
         H           -1.287872324826     1.149854090183    -0.880438261496     1.007825032230
         H           -1.288375324826     1.149742090183     0.894499738504     1.007825032230
         H            2.570531675174    -0.818221909817    -0.805818261496     1.007825032230
         H            2.570809675174    -0.817739909817     0.819775738504     1.007825032230
         H           -3.178467324826     0.110505090183     0.007307738504     1.007825032230

  Basis Set: AUG-CC-PVTZ
    Blend: AUG-CC-PVTZ
  Basis Set: (AUG-CC-PVTZ AUX)
    Blend: AUG-CC-PVTZ-JKFIT
	 Reference Energy          =    -248.2334812733778904 [Eh]
	 Singles Energy            =      -0.0000000000000000 [Eh]
	 Same-Spin Energy          =      -0.2484263762327976 [Eh]
	 Opposite-Spin Energy      =      -0.8458359552639693 [Eh]
	 Correlation Energy        =      -1.0942623314967668 [Eh]
	 Total Energy              =    -249.3277436048746551 [Eh]

	 ================> DF-SCS-MP2 Energies <==================
	-----------------------------------------------------------
	 SCS Same-Spin Scale       =       0.3333333333333333 [-]
	 SCS Opposite-Spin Scale   =       1.2000000000000000 [-]
	 SCS Same-Spin Energy      =      -0.0828087920775992 [Eh]
	 SCS Opposite-Spin Energy  =      -1.0150031463167630 [Eh]
	 SCS Correlation Energy    =      -1.0978119383943623 [Eh]
	 SCS Total Energy          =    -249.3312932117722482 [Eh]
	-----------------------------------------------------------

  Dipole Moment: [D]
     X:    -1.1885      Y:     0.6760      Z:    -0.0383     Total:     1.3678

*** Psi4 exiting successfully. Buy a developer a beer!
