                               Psi4 1.3.2 release

  ==> Input File <==

--------------------------------------------------------------------------
#psi4
#
memory 32 gb

molecule  {
0 1
  O       -2.3851110    -0.4314350    -0.0002820
  N        2.5187010    -0.2207910    -0.0001120
  C       -0.0130310    -0.3414550     0.0003300
  C        1.2524210     0.5177120    -0.0001190
  C       -1.2862700     0.4819960     0.0000880
  H       -0.0208770    -0.9936910    -0.8809850
  H       -0.0206570    -0.9930790     0.8820930
  H        1.2550010     1.1745560     0.8775860
  H        1.2546990     1.1740390    -0.8782090
  H       -1.3125800     1.1321620    -0.8873520
  H       -1.3130830     1.1320500     0.8875860
  H        2.5458240    -0.8359140    -0.8127320
  H        2.5514772    -0.9560043     0.9723406
  H       -3.2031750     0.0928130     0.0003940
units angstrom
no_reorient  #important for SAPT in psi4, default
symmetry c1  #important for SAPT in psi4, default
}

set PROPERTIES_ORIGIN ["COM"]
properties('MP2/aug-cc-pvtz', properties = ['dipole'])
--------------------------------------------------------------------------

    Molecular point group: c1
  Charge       = 0
  Multiplicity = 1
  Basis Set: AUG-CC-PVTZ
    Blend: AUG-CC-PVTZ
  Basis Set: (AUG-CC-PVTZ AUX)
    Blend: AUG-CC-PVTZ-JKFIT

    Orbital Energies [Eh]
    ---------------------

    Doubly Occupied:

       1A    -20.561505     2A    -15.562550     3A    -11.278733
       4A    -11.251472     5A    -11.218978     6A     -1.357413
       7A     -1.162606     8A     -1.028401     9A     -0.881790
      10A     -0.807534    11A     -0.692602    12A     -0.672048
      13A     -0.627517    14A     -0.593207    15A     -0.557452
      16A     -0.537678    17A     -0.532596    18A     -0.485141
      19A     -0.478548    20A     -0.447155    21A     -0.390331

  @DF-RHF Final Energy:  -248.20911684016943

   => Energetics <=

    Nuclear Repulsion Energy =            184.7212466694045077
    One-Electron Energy =                -703.6102096444285507
    Two-Electron Energy =                 270.6798461348545857
    Total Energy =                       -248.2091168401694290
  Basis Set: (AUG-CC-PVTZ AUX)
    Blend: AUG-CC-PVTZ-RI
    Molecular point group: c1

    Geometry (in Angstrom), charge = 0, multiplicity = 1:

       Center              X                  Y                   Z               Mass
    ------------   -----------------  -----------------  -----------------  -----------------
         O           -2.362565806390    -0.415991783998    -0.002406573215    15.994914619570
         N            2.541246193610    -0.205347783998    -0.002236573215    14.003074004430
         C            0.009514193610    -0.326011783998    -0.001794573215    12.000000000000
         C            1.274966193610     0.533155216002    -0.002243573215    12.000000000000
         C           -1.263724806390     0.497439216002    -0.002036573215    12.000000000000
         H            0.001668193610    -0.978247783998    -0.883109573215     1.007825032230
         H            0.001888193610    -0.977635783998     0.879968426785     1.007825032230
         H            1.277546193610     1.189999216002     0.875461426785     1.007825032230
         H            1.277244193610     1.189482216002    -0.880333573215     1.007825032230
         H           -1.290034806390     1.147605216002    -0.889476573215     1.007825032230
         H           -1.290537806390     1.147493216002     0.885461426785     1.007825032230
         H            2.568369193610    -0.820470783998    -0.814856573215     1.007825032230
         H            2.574022393610    -0.940561083998     0.970216026785     1.007825032230
         H           -3.180629806390     0.108256216002    -0.001730573215     1.007825032230

  Basis Set: AUG-CC-PVTZ
    Blend: AUG-CC-PVTZ
  Basis Set: (AUG-CC-PVTZ AUX)
    Blend: AUG-CC-PVTZ-JKFIT
	 Reference Energy          =    -248.2091168401694290 [Eh]
	 Singles Energy            =      -0.0000000000000000 [Eh]
	 Same-Spin Energy          =      -0.2489865234278770 [Eh]
	 Opposite-Spin Energy      =      -0.8491269817640594 [Eh]
	 Correlation Energy        =      -1.0981135051919364 [Eh]
	 Total Energy              =    -249.3072303453613756 [Eh]

	 ================> DF-SCS-MP2 Energies <==================
	-----------------------------------------------------------
	 SCS Same-Spin Scale       =       0.3333333333333333 [-]
	 SCS Opposite-Spin Scale   =       1.2000000000000000 [-]
	 SCS Same-Spin Energy      =      -0.0829955078092923 [Eh]
	 SCS Opposite-Spin Energy  =      -1.0189523781168712 [Eh]
	 SCS Correlation Energy    =      -1.1019478859261636 [Eh]
	 SCS Total Energy          =    -249.3110647260955943 [Eh]
	-----------------------------------------------------------

  Dipole Moment: [D]
     X:    -1.1803      Y:     0.7439      Z:     0.0093     Total:     1.3952

*** Psi4 exiting successfully. Buy a developer a beer!
