                               Psi4 1.3.2 release

  ==> Input File <==

--------------------------------------------------------------------------
#psi4
#
memory 32 gb

molecule  {
0 1
  O       -2.3851110    -0.4314350    -0.0002820
  N        2.5187010    -0.2207910    -0.0001120
  C       -0.0130310    -0.3414550     0.0003300
  C        1.2524210     0.5177120    -0.0001190
  C       -1.3877691     0.5918522     0.0002073
  H       -0.0208770    -0.9936910    -0.8809850
  H       -0.0206570    -0.9930790     0.8820930
  H        1.2550010     1.1745560     0.8775860
  H        1.2546990     1.1740390    -0.8782090
  H       -1.3125800     1.1321620    -0.8873520
  H       -1.3130830     1.1320500     0.8875860
  H        2.5458240    -0.8359140    -0.8127320
  H        2.5461020    -0.8354320     0.8128620
  H       -3.2031750     0.0928130     0.0003940
units angstrom
no_reorient  #important for SAPT in psi4, default
symmetry c1  #important for SAPT in psi4, default
}

set PROPERTIES_ORIGIN ["COM"]
properties('MP2/aug-cc-pvtz', properties = ['dipole'])
--------------------------------------------------------------------------

    Molecular point group: c1
  Charge       = 0
  Multiplicity = 1
  Basis Set: AUG-CC-PVTZ
    Blend: AUG-CC-PVTZ
  Basis Set: (AUG-CC-PVTZ AUX)
    Blend: AUG-CC-PVTZ-JKFIT

    Orbital Energies [Eh]
    ---------------------

    Doubly Occupied:

       1A    -20.566839     2A    -15.539158     3A    -11.275580
       4A    -11.246119     5A    -11.221822     6A     -1.362089
       7A     -1.175161     8A     -1.010688     9A     -0.892064
      10A     -0.810540    11A     -0.688607    12A     -0.681346
      13A     -0.651299    14A     -0.591094    15A     -0.560108
      16A     -0.554333    17A     -0.532010    18A     -0.479199
      19A     -0.467848    20A     -0.456541    21A     -0.382835

  @DF-RHF Final Energy:  -248.21592439560180

   => Energetics <=

    Nuclear Repulsion Energy =            184.0834264958863287
    One-Electron Energy =                -702.3081401715144239
    Two-Electron Energy =                 270.0087892800262921
    Total Energy =                       -248.2159243956018031
  Basis Set: (AUG-CC-PVTZ AUX)
    Blend: AUG-CC-PVTZ-RI
    Molecular point group: c1

    Geometry (in Angstrom), charge = 0, multiplicity = 1:

       Center              X                  Y                   Z               Mass
    ------------   -----------------  -----------------  -----------------  -----------------
         O           -2.346268586330    -0.435171490976    -0.000284576534    15.994914619570
         N            2.557543413670    -0.224527490976    -0.000114576534    14.003074004430
         C            0.025811413670    -0.345191490976     0.000327423466    12.000000000000
         C            1.291263413670     0.513975509024    -0.000121576534    12.000000000000
         C           -1.348926686330     0.588115709024     0.000204723466    12.000000000000
         H            0.017965413670    -0.997427490976    -0.880987576534     1.007825032230
         H            0.018185413670    -0.996815490976     0.882090423466     1.007825032230
         H            1.293843413670     1.170819509024     0.877583423466     1.007825032230
         H            1.293541413670     1.170302509024    -0.878211576534     1.007825032230
         H           -1.273737586330     1.128425509024    -0.887354576534     1.007825032230
         H           -1.274240586330     1.128313509024     0.887583423466     1.007825032230
         H            2.584666413670    -0.839650490976    -0.812734576534     1.007825032230
         H            2.584944413670    -0.839168490976     0.812859423466     1.007825032230
         H           -3.164332586330     0.089076509024     0.000391423466     1.007825032230

  Basis Set: AUG-CC-PVTZ
    Blend: AUG-CC-PVTZ
  Basis Set: (AUG-CC-PVTZ AUX)
    Blend: AUG-CC-PVTZ-JKFIT
	 Reference Energy          =    -248.2159243956018031 [Eh]
	 Singles Energy            =      -0.0000000000000000 [Eh]
	 Same-Spin Energy          =      -0.2484623093498256 [Eh]
	 Opposite-Spin Energy      =      -0.8471360022283041 [Eh]
	 Correlation Energy        =      -1.0955983115781298 [Eh]
	 Total Energy              =    -249.3115227071799325 [Eh]

	 ================> DF-SCS-MP2 Energies <==================
	-----------------------------------------------------------
	 SCS Same-Spin Scale       =       0.3333333333333333 [-]
	 SCS Opposite-Spin Scale   =       1.2000000000000000 [-]
	 SCS Same-Spin Energy      =      -0.0828207697832752 [Eh]
	 SCS Opposite-Spin Energy  =      -1.0165632026739648 [Eh]
	 SCS Correlation Energy    =      -1.0993839724572401 [Eh]
	 SCS Total Energy          =    -249.3153083680590498 [Eh]
	-----------------------------------------------------------

  Dipole Moment: [D]
     X:    -1.3615      Y:     0.7835      Z:     0.0020     Total:     1.5708

*** Psi4 exiting successfully. Buy a developer a beer!
