                               Psi4 1.3.2 release

  ==> Input File <==

--------------------------------------------------------------------------
#psi4
#
memory 32 gb

molecule  {
0 1
  O       -2.3851110    -0.4314350    -0.0002820
  N        2.5187010    -0.2207910    -0.0001120
  C       -0.0130310    -0.3414550     0.0003300
  C        1.2524210     0.5177120    -0.0001190
  C       -1.3188177     0.5197885     0.0001283
  H       -0.0208770    -0.9936910    -0.8809850
  H       -0.0206570    -0.9930790     0.8820930
  H        1.2550010     1.1745560     0.8775860
  H        1.2546990     1.1740390    -0.8782090
  H       -1.3125800     1.1321620    -0.8873520
  H       -1.3130830     1.1320500     0.8875860
  H        2.5458240    -0.8359140    -0.8127320
  H        2.5461020    -0.8354320     0.8128620
  H       -3.2031750     0.0928130     0.0003940
units angstrom
no_reorient  #important for SAPT in psi4, default
symmetry c1  #important for SAPT in psi4, default
}

set PROPERTIES_ORIGIN ["COM"]
properties('MP2/aug-cc-pvtz', properties = ['dipole'])
--------------------------------------------------------------------------

    Molecular point group: c1
  Charge       = 0
  Multiplicity = 1
  Basis Set: AUG-CC-PVTZ
    Blend: AUG-CC-PVTZ
  Basis Set: (AUG-CC-PVTZ AUX)
    Blend: AUG-CC-PVTZ-JKFIT

    Orbital Energies [Eh]
    ---------------------

    Doubly Occupied:

       1A    -20.563071     2A    -15.540815     3A    -11.276968
       4A    -11.248591     5A    -11.220026     6A     -1.358722
       7A     -1.177261     8A     -1.024279     9A     -0.888595
      10A     -0.810137    11A     -0.691470    12A     -0.680909
      13A     -0.642958    14A     -0.594440    15A     -0.556357
      16A     -0.552237    17A     -0.535430    18A     -0.481412
      19A     -0.477770    20A     -0.455127    21A     -0.389407

  @DF-RHF Final Energy:  -248.23417339135057

   => Energetics <=

    Nuclear Repulsion Energy =            185.0471164751257049
    One-Electron Energy =                -704.2306215334499484
    Two-Electron Energy =                 270.9493316669737055
    Total Energy =                       -248.2341733913505664
  Basis Set: (AUG-CC-PVTZ AUX)
    Blend: AUG-CC-PVTZ-RI
    Molecular point group: c1

    Geometry (in Angstrom), charge = 0, multiplicity = 1:

       Center              X                  Y                   Z               Mass
    ------------   -----------------  -----------------  -----------------  -----------------
         O           -2.357290756066    -0.423651807065    -0.000271948053    15.994914619570
         N            2.546521243934    -0.213007807065    -0.000101948053    14.003074004430
         C            0.014789243934    -0.333671807065     0.000340051947    12.000000000000
         C            1.280241243934     0.525495192935    -0.000108948053    12.000000000000
         C           -1.290997456066     0.527571692935     0.000138351947    12.000000000000
         H            0.006943243934    -0.985907807065    -0.880974948053     1.007825032230
         H            0.007163243934    -0.985295807065     0.882103051947     1.007825032230
         H            1.282821243934     1.182339192935     0.877596051947     1.007825032230
         H            1.282519243934     1.181822192935    -0.878198948053     1.007825032230
         H           -1.284759756066     1.139945192935    -0.887341948053     1.007825032230
         H           -1.285262756066     1.139833192935     0.887596051947     1.007825032230
         H            2.573644243934    -0.828130807065    -0.812721948053     1.007825032230
         H            2.573922243934    -0.827648807065     0.812872051947     1.007825032230
         H           -3.175354756066     0.100596192935     0.000404051947     1.007825032230

  Basis Set: AUG-CC-PVTZ
    Blend: AUG-CC-PVTZ
  Basis Set: (AUG-CC-PVTZ AUX)
    Blend: AUG-CC-PVTZ-JKFIT
	 Reference Energy          =    -248.2341733913505664 [Eh]
	 Singles Energy            =      -0.0000000000000000 [Eh]
	 Same-Spin Energy          =      -0.2480920512831983 [Eh]
	 Opposite-Spin Energy      =      -0.8456597005620292 [Eh]
	 Correlation Energy        =      -1.0937517518452275 [Eh]
	 Total Energy              =    -249.3279251431957846 [Eh]

	 ================> DF-SCS-MP2 Energies <==================
	-----------------------------------------------------------
	 SCS Same-Spin Scale       =       0.3333333333333333 [-]
	 SCS Opposite-Spin Scale   =       1.2000000000000000 [-]
	 SCS Same-Spin Energy      =      -0.0826973504277328 [Eh]
	 SCS Opposite-Spin Energy  =      -1.0147916406744351 [Eh]
	 SCS Correlation Energy    =      -1.0974889911021679 [Eh]
	 SCS Total Energy          =    -249.3316623824527483 [Eh]
	-----------------------------------------------------------

  Dipole Moment: [D]
     X:    -1.2402      Y:     0.7477      Z:     0.0019     Total:     1.4482

*** Psi4 exiting successfully. Buy a developer a beer!
