                               Psi4 1.4a3.dev225

  ==> Input File <==

--------------------------------------------------------------------------
#psi4
#
memory 32 gb

molecule  {
0 1
  O        2.3850150    -0.4314620    -0.0000020
  N       -2.5187610    -0.2207970     0.0000020
  C        0.0130360    -0.3413840    -0.0000010
  C       -1.2523980     0.5177100    -0.0000070
  C        1.3248553     0.4500291     0.0000057
  H        0.0207440    -0.9933730     0.8815180
  H        0.0207540    -0.9933720    -0.8815200
  H       -1.2549080     1.1742870    -0.8779080
  H       -1.2549050     1.1743050     0.8778810
  H        1.3129410     1.1321370     0.8874920
  H        1.3129410     1.1321530    -0.8874690
  H       -2.5459240    -0.8356760     0.8128080
  H       -2.5459230    -0.8357000    -0.8127860
  H        3.2032020     0.0925730    -0.0000070
units angstrom
no_reorient  #important for SAPT in psi4, default
symmetry c1  #important for SAPT in psi4, default
}

set PROPERTIES_ORIGIN ["COM"]
properties('MP2/aug-cc-pvtz', properties = ['dipole'])
--------------------------------------------------------------------------

    Molecular point group: c1
  Charge       = 0
  Multiplicity = 1
  Basis Set: AUG-CC-PVTZ
    Blend: AUG-CC-PVTZ
  Basis Set: (AUG-CC-PVTZ AUX)
    Blend: AUG-CC-PVTZ-JKFIT

    Orbital Energies [Eh]
    ---------------------

    Doubly Occupied:

       1A    -20.566905     2A    -15.541445     3A    -11.280172
       4A    -11.249468     5A    -11.218282     6A     -1.378898
       7A     -1.177732     8A     -1.027481     9A     -0.886608
      10A     -0.806291    11A     -0.706843    12A     -0.680069
      13A     -0.639350    14A     -0.601837    15A     -0.566345
      16A     -0.552982    17A     -0.536671    18A     -0.482471
      19A     -0.475044    20A     -0.439655    21A     -0.391954

  @DF-RHF Final Energy:  -248.23487569834109

   => Energetics <=

    Nuclear Repulsion Energy =            185.7881996888696392
    One-Electron Energy =                -705.6331508883140486
    Two-Electron Energy =                 271.6100755011032675
    Total Energy =                       -248.2348756983411135
  Basis Set: (AUG-CC-PVTZ AUX)
    Blend: AUG-CC-PVTZ-RI
    Molecular point group: c1

    Geometry (in Angstrom), charge = 0, multiplicity = 1:

       Center              X                  Y                   Z               Mass
    ------------   -----------------  -----------------  -----------------  -----------------
         O            2.356254428740    -0.412529350619    -0.000001700097    15.994914619570
         N           -2.547521571260    -0.201864350619     0.000002299903    14.003074004430
         C           -0.015724571260    -0.322451350619    -0.000000700097    12.000000000000
         C           -1.281158571260     0.536642649381    -0.000006700097    12.000000000000
         C            1.296094728740     0.468961749381     0.000005999903    12.000000000000
         H           -0.008016571260    -0.974440350619     0.881518299903     1.007825032230
         H           -0.008006571260    -0.974439350619    -0.881519700097     1.007825032230
         H           -1.283668571260     1.193219649381    -0.877907700097     1.007825032230
         H           -1.283665571260     1.193237649381     0.877881299903     1.007825032230
         H            1.284180428740     1.151069649381     0.887492299903     1.007825032230
         H            1.284180428740     1.151085649381    -0.887468700097     1.007825032230
         H           -2.574684571260    -0.816743350619     0.812808299903     1.007825032230
         H           -2.574683571260    -0.816767350619    -0.812785700097     1.007825032230
         H            3.174441428740     0.111505649381    -0.000006700097     1.007825032230

  Basis Set: AUG-CC-PVTZ
    Blend: AUG-CC-PVTZ
  Basis Set: (AUG-CC-PVTZ AUX)
    Blend: AUG-CC-PVTZ-JKFIT
	 Reference Energy          =    -248.2348756983410851 [Eh]
	 Singles Energy            =      -0.0000000000000000 [Eh]
	 Same-Spin Energy          =      -0.2481258435180543 [Eh]
	 Opposite-Spin Energy      =      -0.8447662762308168 [Eh]
	 Correlation Energy        =      -1.0928921197488710 [Eh]
	 Total Energy              =    -249.3277678180899670 [Eh]

	 ================> DF-SCS-MP2 Energies <==================
	-----------------------------------------------------------
	 SCS Same-Spin Scale       =       0.3333333333333333 [-]
	 SCS Opposite-Spin Scale   =       1.2000000000000000 [-]
	 SCS Same-Spin Energy      =      -0.0827086145060181 [Eh]
	 SCS Opposite-Spin Energy  =      -1.0137195314769800 [Eh]
	 SCS Correlation Energy    =      -1.0964281459829981 [Eh]
	 SCS Total Energy          =    -249.3313038443240828 [Eh]
	-----------------------------------------------------------

  Dipole Moment: [D]
     X:     1.3424      Y:     0.6001      Z:     0.0000     Total:     1.4705

*** Psi4 exiting successfully. Buy a developer a beer!
