                               Psi4 1.3.2 release

  ==> Input File <==

--------------------------------------------------------------------------
#psi4
#
memory 32 gb

molecule  {
0 1
  O       -2.3769140    -0.4409467    -0.0218294
  N        2.5187010    -0.2207910    -0.0001120
  C       -0.0130310    -0.3414550     0.0003300
  C        1.2524210     0.5177120    -0.0001190
  C       -1.2862700     0.4819960     0.0000880
  H       -0.0208770    -0.9936910    -0.8809850
  H       -0.0206570    -0.9930790     0.8820930
  H        1.2550010     1.1745560     0.8775860
  H        1.2546990     1.1740390    -0.8782090
  H       -1.3125800     1.1321620    -0.8873520
  H       -1.3130830     1.1320500     0.8875860
  H        2.5458240    -0.8359140    -0.8127320
  H        2.5461020    -0.8354320     0.8128620
  H       -3.2031750     0.0928130     0.0003940
units angstrom
no_reorient  #important for SAPT in psi4, default
symmetry c1  #important for SAPT in psi4, default
}

set PROPERTIES_ORIGIN ["COM"]
properties('MP2/aug-cc-pvtz', properties = ['dipole'])
--------------------------------------------------------------------------

    Molecular point group: c1
  Charge       = 0
  Multiplicity = 1
  Basis Set: AUG-CC-PVTZ
    Blend: AUG-CC-PVTZ
  Basis Set: (AUG-CC-PVTZ AUX)
    Blend: AUG-CC-PVTZ-JKFIT

    Orbital Energies [Eh]
    ---------------------

    Doubly Occupied:

       1A    -20.563102     2A    -15.541570     3A    -11.278617
       4A    -11.249800     5A    -11.218669     6A     -1.355475
       7A     -1.178297     8A     -1.031958     9A     -0.886783
      10A     -0.808987    11A     -0.690234    12A     -0.681331
      13A     -0.639188    14A     -0.597207    15A     -0.557447
      16A     -0.550467    17A     -0.535827    18A     -0.485297
      19A     -0.482425    20A     -0.447399    21A     -0.391692

  @DF-RHF Final Energy:  -248.23557661415495

   => Energetics <=

    Nuclear Repulsion Energy =            185.5500646183447770
    One-Electron Energy =                -705.2277393098041784
    Two-Electron Energy =                 271.4420980773044221
    Total Energy =                       -248.2355766141549793
  Basis Set: (AUG-CC-PVTZ AUX)
    Blend: AUG-CC-PVTZ-RI
    Molecular point group: c1

    Geometry (in Angstrom), charge = 0, multiplicity = 1:

       Center              X                  Y                   Z               Mass
    ------------   -----------------  -----------------  -----------------  -----------------
         O           -2.356043186432    -0.425095548814    -0.017221776248    15.994914619570
         N            2.539571813568    -0.204939848814     0.004495623752    14.003074004430
         C            0.007839813568    -0.325603848814     0.004937623752    12.000000000000
         C            1.273291813568     0.533563151186     0.004488623752    12.000000000000
         C           -1.265399186432     0.497847151186     0.004695623752    12.000000000000
         H           -0.000006186432    -0.977839848814    -0.876377376248     1.007825032230
         H            0.000213813568    -0.977227848814     0.886700623752     1.007825032230
         H            1.275871813568     1.190407151186     0.882193623752     1.007825032230
         H            1.275569813568     1.189890151186    -0.873601376248     1.007825032230
         H           -1.291709186432     1.148013151186    -0.882744376248     1.007825032230
         H           -1.292212186432     1.147901151186     0.892193623752     1.007825032230
         H            2.566694813568    -0.820062848814    -0.808124376248     1.007825032230
         H            2.566972813568    -0.819580848814     0.817469623752     1.007825032230
         H           -3.182304186432     0.108664151186     0.005001623752     1.007825032230

  Basis Set: AUG-CC-PVTZ
    Blend: AUG-CC-PVTZ
  Basis Set: (AUG-CC-PVTZ AUX)
    Blend: AUG-CC-PVTZ-JKFIT
	 Reference Energy          =    -248.2355766141549509 [Eh]
	 Singles Energy            =      -0.0000000000000000 [Eh]
	 Same-Spin Energy          =      -0.2483730333240887 [Eh]
	 Opposite-Spin Energy      =      -0.8459272847023989 [Eh]
	 Correlation Energy        =      -1.0943003180264876 [Eh]
	 Total Energy              =    -249.3298769321814348 [Eh]

	 ================> DF-SCS-MP2 Energies <==================
	-----------------------------------------------------------
	 SCS Same-Spin Scale       =       0.3333333333333333 [-]
	 SCS Opposite-Spin Scale   =       1.2000000000000000 [-]
	 SCS Same-Spin Energy      =      -0.0827910111080296 [Eh]
	 SCS Opposite-Spin Energy  =      -1.0151127416428787 [Eh]
	 SCS Correlation Energy    =      -1.0979037527509083 [Eh]
	 SCS Total Energy          =    -249.3334803669058601 [Eh]
	-----------------------------------------------------------

  Dipole Moment: [D]
     X:    -1.1911      Y:     0.7224      Z:     0.0529     Total:     1.3940

*** Psi4 exiting successfully. Buy a developer a beer!
