                               Psi4 1.3.2 release

  ==> Input File <==

--------------------------------------------------------------------------
#psi4
#
memory 32 gb

molecule  {
0 1
  O       -2.3503401    -0.4677838    -0.0864053
  N        2.5187010    -0.2207910    -0.0001120
  C       -0.0130310    -0.3414550     0.0003300
  C        1.2524210     0.5177120    -0.0001190
  C       -1.2862700     0.4819960     0.0000880
  H       -0.0208770    -0.9936910    -0.8809850
  H       -0.0206570    -0.9930790     0.8820930
  H        1.2550010     1.1745560     0.8775860
  H        1.2546990     1.1740390    -0.8782090
  H       -1.3125800     1.1321620    -0.8873520
  H       -1.3130830     1.1320500     0.8875860
  H        2.5458240    -0.8359140    -0.8127320
  H        2.5461020    -0.8354320     0.8128620
  H       -3.2031750     0.0928130     0.0003940
units angstrom
no_reorient  #important for SAPT in psi4, default
symmetry c1  #important for SAPT in psi4, default
}

set PROPERTIES_ORIGIN ["COM"]
properties('MP2/aug-cc-pvtz', properties = ['dipole'])
--------------------------------------------------------------------------

    Molecular point group: c1
  Charge       = 0
  Multiplicity = 1
  Basis Set: AUG-CC-PVTZ
    Blend: AUG-CC-PVTZ
  Basis Set: (AUG-CC-PVTZ AUX)
    Blend: AUG-CC-PVTZ-JKFIT

    Orbital Energies [Eh]
    ---------------------

    Doubly Occupied:

       1A    -20.568125     2A    -15.540954     3A    -11.278174
       4A    -11.248959     5A    -11.217575     6A     -1.349785
       7A     -1.177648     8A     -1.029892     9A     -0.884379
      10A     -0.808755    11A     -0.684500    12A     -0.678444
      13A     -0.638756    14A     -0.596629    15A     -0.555500
      16A     -0.549528    17A     -0.534798    18A     -0.485961
      19A     -0.481434    20A     -0.447679    21A     -0.390473

  @DF-RHF Final Energy:  -248.22936445783102

   => Energetics <=

    Nuclear Repulsion Energy =            185.5902726650402315
    One-Electron Energy =                -705.3433793042129309
    Two-Electron Energy =                 271.5237421813417313
    Total Energy =                       -248.2293644578310250
  Basis Set: (AUG-CC-PVTZ AUX)
    Blend: AUG-CC-PVTZ-RI
    Molecular point group: c1

    Geometry (in Angstrom), charge = 0, multiplicity = 1:

       Center              X                  Y                   Z               Mass
    ------------   -----------------  -----------------  -----------------  -----------------
         O           -2.335131418338    -0.446214436576    -0.068038413822    15.994914619570
         N            2.533909681662    -0.199221636576     0.018254886178    14.003074004430
         C            0.002177681662    -0.319885636576     0.018696886178    12.000000000000
         C            1.267629681662     0.539281363424     0.018247886178    12.000000000000
         C           -1.271061318338     0.503565363424     0.018454886178    12.000000000000
         H           -0.005668318338    -0.972121636576    -0.862618113822     1.007825032230
         H           -0.005448318338    -0.971509636576     0.900459886178     1.007825032230
         H            1.270209681662     1.196125363424     0.895952886178     1.007825032230
         H            1.269907681662     1.195608363424    -0.859842113822     1.007825032230
         H           -1.297371318338     1.153731363424    -0.868985113822     1.007825032230
         H           -1.297874318338     1.153619363424     0.905952886178     1.007825032230
         H            2.561032681662    -0.814344636576    -0.794365113822     1.007825032230
         H            2.561310681662    -0.813862636576     0.831228886178     1.007825032230
         H           -3.187966318338     0.114382363424     0.018760886178     1.007825032230

  Basis Set: AUG-CC-PVTZ
    Blend: AUG-CC-PVTZ
  Basis Set: (AUG-CC-PVTZ AUX)
    Blend: AUG-CC-PVTZ-JKFIT
	 Reference Energy          =    -248.2293644578310250 [Eh]
	 Singles Energy            =      -0.0000000000000000 [Eh]
	 Same-Spin Energy          =      -0.2490142317636729 [Eh]
	 Opposite-Spin Energy      =      -0.8475910362249042 [Eh]
	 Correlation Energy        =      -1.0966052679885769 [Eh]
	 Total Energy              =    -249.3259697258195899 [Eh]

	 ================> DF-SCS-MP2 Energies <==================
	-----------------------------------------------------------
	 SCS Same-Spin Scale       =       0.3333333333333333 [-]
	 SCS Opposite-Spin Scale   =       1.2000000000000000 [-]
	 SCS Same-Spin Energy      =      -0.0830047439212243 [Eh]
	 SCS Opposite-Spin Energy  =      -1.0171092434698850 [Eh]
	 SCS Correlation Energy    =      -1.1001139873911092 [Eh]
	 SCS Total Energy          =    -249.3294784452221222 [Eh]
	-----------------------------------------------------------

  Dipole Moment: [D]
     X:    -1.2553      Y:     0.7465      Z:     0.2004     Total:     1.4742

*** Psi4 exiting successfully. Buy a developer a beer!
