                               Psi4 1.3.2 release

  ==> Input File <==

--------------------------------------------------------------------------
#psi4
#
memory 32 gb

molecule  {
0 1
  O       -2.3851110    -0.4314350    -0.0002820
  N        2.5187010    -0.2207910    -0.0001120
  C       -0.0130310    -0.3414550     0.0003300
  C        1.2524210     0.5177120    -0.0001190
  C       -1.4400704     0.3541467     0.0000362
  H       -0.0208770    -0.9936910    -0.8809850
  H       -0.0206570    -0.9930790     0.8820930
  H        1.2550010     1.1745560     0.8775860
  H        1.2546990     1.1740390    -0.8782090
  H       -1.3125800     1.1321620    -0.8873520
  H       -1.3130830     1.1320500     0.8875860
  H        2.5458240    -0.8359140    -0.8127320
  H        2.5461020    -0.8354320     0.8128620
  H       -3.2031750     0.0928130     0.0003940
units angstrom
no_reorient  #important for SAPT in psi4, default
symmetry c1  #important for SAPT in psi4, default
}

set PROPERTIES_ORIGIN ["COM"]
properties('MP2/aug-cc-pvtz', properties = ['dipole'])
--------------------------------------------------------------------------

    Molecular point group: c1
  Charge       = 0
  Multiplicity = 1
  Basis Set: AUG-CC-PVTZ
    Blend: AUG-CC-PVTZ
  Basis Set: (AUG-CC-PVTZ AUX)
    Blend: AUG-CC-PVTZ-JKFIT

    Orbital Energies [Eh]
    ---------------------

    Doubly Occupied:

       1A    -20.585499     2A    -15.540436     3A    -11.290346
       4A    -11.247807     5A    -11.216666     6A     -1.462573
       7A     -1.175595     8A     -1.013003     9A     -0.888151
      10A     -0.803216    11A     -0.749641    12A     -0.679920
      13A     -0.653352    14A     -0.638083    15A     -0.574802
      16A     -0.560594    17A     -0.534403    18A     -0.480766
      19A     -0.439827    20A     -0.406063    21A     -0.389767

  @DF-RHF Final Energy:  -248.19124554715268

   => Energetics <=

    Nuclear Repulsion Energy =            186.7865272558735796
    One-Electron Energy =                -707.2945278783419099
    Two-Electron Energy =                 272.3167550753156547
    Total Energy =                       -248.1912455471526755
  Basis Set: (AUG-CC-PVTZ AUX)
    Blend: AUG-CC-PVTZ-RI
    Molecular point group: c1

    Geometry (in Angstrom), charge = 0, multiplicity = 1:

       Center              X                  Y                   Z               Mass
    ------------   -----------------  -----------------  -----------------  -----------------
         O           -2.337908004731    -0.397173272401    -0.000257225483    15.994914619570
         N            2.565903995269    -0.186529272401    -0.000087225483    14.003074004430
         C            0.034171995269    -0.307193272401     0.000354774517    12.000000000000
         C            1.299623995269     0.551973727599    -0.000094225483    12.000000000000
         C           -1.392867404731     0.388408427599     0.000060974517    12.000000000000
         H            0.026325995269    -0.959429272401    -0.880960225483     1.007825032230
         H            0.026545995269    -0.958817272401     0.882117774517     1.007825032230
         H            1.302203995269     1.208817727599     0.877610774517     1.007825032230
         H            1.301901995269     1.208300727599    -0.878184225483     1.007825032230
         H           -1.265377004731     1.166423727599    -0.887327225483     1.007825032230
         H           -1.265880004731     1.166311727599     0.887610774517     1.007825032230
         H            2.593026995269    -0.801652272401    -0.812707225483     1.007825032230
         H            2.593304995269    -0.801170272401     0.812886774517     1.007825032230
         H           -3.155972004731     0.127074727599     0.000418774517     1.007825032230

  Basis Set: AUG-CC-PVTZ
    Blend: AUG-CC-PVTZ
  Basis Set: (AUG-CC-PVTZ AUX)
    Blend: AUG-CC-PVTZ-JKFIT
	 Reference Energy          =    -248.1912455471526755 [Eh]
	 Singles Energy            =      -0.0000000000000000 [Eh]
	 Same-Spin Energy          =      -0.2488745373112532 [Eh]
	 Opposite-Spin Energy      =      -0.8444849163971639 [Eh]
	 Correlation Energy        =      -1.0933594537084170 [Eh]
	 Total Energy              =    -249.2846050008610916 [Eh]

	 ================> DF-SCS-MP2 Energies <==================
	-----------------------------------------------------------
	 SCS Same-Spin Scale       =       0.3333333333333333 [-]
	 SCS Opposite-Spin Scale   =       1.2000000000000000 [-]
	 SCS Same-Spin Energy      =      -0.0829581791037511 [Eh]
	 SCS Opposite-Spin Energy  =      -1.0133818996765966 [Eh]
	 SCS Correlation Energy    =      -1.0963400787803477 [Eh]
	 SCS Total Energy          =    -249.2875856259330192 [Eh]
	-----------------------------------------------------------

  Dipole Moment: [D]
     X:    -1.9411      Y:     0.1447      Z:     0.0018     Total:     1.9465

*** Psi4 exiting successfully. Buy a developer a beer!
