                               Psi4 1.3.2 release

  ==> Input File <==

--------------------------------------------------------------------------
#psi4
#
memory 32 gb

molecule  {
0 1
  O       -2.3851110    -0.4314350    -0.0002820
  N        2.5537398    -0.1447703     0.1284820
  C       -0.0130310    -0.3414550     0.0003300
  C        1.2524210     0.5177120    -0.0001190
  C       -1.2862700     0.4819960     0.0000880
  H       -0.0208770    -0.9936910    -0.8809850
  H       -0.0206570    -0.9930790     0.8820930
  H        1.2550010     1.1745560     0.8775860
  H        1.2546990     1.1740390    -0.8782090
  H       -1.3125800     1.1321620    -0.8873520
  H       -1.3130830     1.1320500     0.8875860
  H        2.5458240    -0.8359140    -0.8127320
  H        2.5461020    -0.8354320     0.8128620
  H       -3.2031750     0.0928130     0.0003940
units angstrom
no_reorient  #important for SAPT in psi4, default
symmetry c1  #important for SAPT in psi4, default
}

set PROPERTIES_ORIGIN ["COM"]
properties('MP2/aug-cc-pvtz', properties = ['dipole'])
--------------------------------------------------------------------------

    Molecular point group: c1
  Charge       = 0
  Multiplicity = 1
  Basis Set: AUG-CC-PVTZ
    Blend: AUG-CC-PVTZ
  Basis Set: (AUG-CC-PVTZ AUX)
    Blend: AUG-CC-PVTZ-JKFIT

    Orbital Energies [Eh]
    ---------------------

    Doubly Occupied:

       1A    -20.562915     2A    -15.556621     3A    -11.280862
       4A    -11.251134     5A    -11.222209     6A     -1.358870
       7A     -1.177059     8A     -1.034105     9A     -0.887794
      10A     -0.811409    11A     -0.695343    12A     -0.673717
      13A     -0.631563    14A     -0.597773    15A     -0.569944
      16A     -0.541305    17A     -0.526968    18A     -0.488299
      19A     -0.470268    20A     -0.448606    21A     -0.404336

  @DF-RHF Final Energy:  -248.21353060002653

   => Energetics <=

    Nuclear Repulsion Energy =            185.0107336005629008
    One-Electron Energy =                -704.0663267083403980
    Two-Electron Energy =                 270.8420625077508817
    Total Energy =                       -248.2135306000265587
  Basis Set: (AUG-CC-PVTZ AUX)
    Blend: AUG-CC-PVTZ-RI
    Molecular point group: c1

    Geometry (in Angstrom), charge = 0, multiplicity = 1:

       Center              X                  Y                   Z               Mass
    ------------   -----------------  -----------------  -----------------  -----------------
         O           -2.369029692104    -0.431791228908    -0.024253108766    15.994914619570
         N            2.569821107896    -0.145126528908     0.104510891234    14.003074004430
         C            0.003050307896    -0.341811228908    -0.023641108766    12.000000000000
         C            1.268502307896     0.517355771092    -0.024090108766    12.000000000000
         C           -1.270188692104     0.481639771092    -0.023883108766    12.000000000000
         H           -0.004795692104    -0.994047228908    -0.904956108766     1.007825032230
         H           -0.004575692104    -0.993435228908     0.858121891234     1.007825032230
         H            1.271082307896     1.174199771092     0.853614891234     1.007825032230
         H            1.270780307896     1.173682771092    -0.902180108766     1.007825032230
         H           -1.296498692104     1.131805771092    -0.911323108766     1.007825032230
         H           -1.297001692104     1.131693771092     0.863614891234     1.007825032230
         H            2.561905307896    -0.836270228908    -0.836703108766     1.007825032230
         H            2.562183307896    -0.835788228908     0.788890891234     1.007825032230
         H           -3.187093692104     0.092456771092    -0.023577108766     1.007825032230

  Basis Set: AUG-CC-PVTZ
    Blend: AUG-CC-PVTZ
  Basis Set: (AUG-CC-PVTZ AUX)
    Blend: AUG-CC-PVTZ-JKFIT
	 Reference Energy          =    -248.2135306000265302 [Eh]
	 Singles Energy            =      -0.0000000000000000 [Eh]
	 Same-Spin Energy          =      -0.2489227890710355 [Eh]
	 Opposite-Spin Energy      =      -0.8483671793894777 [Eh]
	 Correlation Energy        =      -1.0972899684605131 [Eh]
	 Total Energy              =    -249.3108205684870313 [Eh]

	 ================> DF-SCS-MP2 Energies <==================
	-----------------------------------------------------------
	 SCS Same-Spin Scale       =       0.3333333333333333 [-]
	 SCS Opposite-Spin Scale   =       1.2000000000000000 [-]
	 SCS Same-Spin Energy      =      -0.0829742630236785 [Eh]
	 SCS Opposite-Spin Energy  =      -1.0180406152673731 [Eh]
	 SCS Correlation Energy    =      -1.1010148782910516 [Eh]
	 SCS Total Energy          =    -249.3145454783175694 [Eh]
	-----------------------------------------------------------

  Dipole Moment: [D]
     X:    -1.3277      Y:     0.6245      Z:    -0.1176     Total:     1.4719

*** Psi4 exiting successfully. Buy a developer a beer!
