                               Psi4 1.3.2 release

  ==> Input File <==

--------------------------------------------------------------------------
#psi4
#
memory 32 gb

molecule  {
0 1
  O       -2.3851110    -0.4314350    -0.0002820
  N        2.5187010    -0.2207910    -0.0001120
  C       -0.0130310    -0.3414550     0.0003300
  C        1.2524210     0.5177120    -0.0001190
  C       -1.2862700     0.4819960     0.0000880
  H       -0.0208770    -0.9936910    -0.8809850
  H       -0.0206570    -0.9930790     0.8820930
  H        1.2550010     1.1745560     0.8775860
  H        1.2546990     1.1740390    -0.8782090
  H       -1.3125800     1.1321620    -0.8873520
  H       -1.3130830     1.1320500     0.8875860
  H        2.5458240    -0.8359140    -0.8127320
  H        2.5434144    -0.7751459     0.7331227
  H       -3.2031750     0.0928130     0.0003940
units angstrom
no_reorient  #important for SAPT in psi4, default
symmetry c1  #important for SAPT in psi4, default
}

set PROPERTIES_ORIGIN ["COM"]
properties('MP2/aug-cc-pvtz', properties = ['dipole'])
--------------------------------------------------------------------------

    Molecular point group: c1
  Charge       = 0
  Multiplicity = 1
  Basis Set: AUG-CC-PVTZ
    Blend: AUG-CC-PVTZ
  Basis Set: (AUG-CC-PVTZ AUX)
    Blend: AUG-CC-PVTZ-JKFIT

    Orbital Energies [Eh]
    ---------------------

    Doubly Occupied:

       1A    -20.561582     2A    -15.529782     3A    -11.278952
       4A    -11.249825     5A    -11.219265     6A     -1.357514
       7A     -1.193219     8A     -1.035929     9A     -0.892463
      10A     -0.810511    11A     -0.694320    12A     -0.689751
      13A     -0.645320    14A     -0.599664    15A     -0.560828
      16A     -0.554276    17A     -0.536381    18A     -0.485320
      19A     -0.483942    20A     -0.447288    21A     -0.393443

  @DF-RHF Final Energy:  -248.23016126229163

   => Energetics <=

    Nuclear Repulsion Energy =            186.0481344894056974
    One-Electron Energy =                -706.1174395055217019
    Two-Electron Energy =                 271.8391437538243736
    Total Energy =                       -248.2301612622916309
  Basis Set: (AUG-CC-PVTZ AUX)
    Blend: AUG-CC-PVTZ-RI
    Molecular point group: c1

    Geometry (in Angstrom), charge = 0, multiplicity = 1:

       Center              X                  Y                   Z               Mass
    ------------   -----------------  -----------------  -----------------  -----------------
         O           -2.362457559908    -0.418419884091     0.000805027713    15.994914619570
         N            2.541354440092    -0.207775884091     0.000975027713    14.003074004430
         C            0.009622440092    -0.328439884091     0.001417027713    12.000000000000
         C            1.275074440092     0.530727115909     0.000968027713    12.000000000000
         C           -1.263616559908     0.495011115909     0.001175027713    12.000000000000
         H            0.001776440092    -0.980675884091    -0.879897972287     1.007825032230
         H            0.001996440092    -0.980063884091     0.883180027713     1.007825032230
         H            1.277654440092     1.187571115909     0.878673027713     1.007825032230
         H            1.277352440092     1.187054115909    -0.877121972287     1.007825032230
         H           -1.289926559908     1.145177115909    -0.886264972287     1.007825032230
         H           -1.290429559908     1.145065115909     0.888673027713     1.007825032230
         H            2.568477440092    -0.822898884091    -0.811644972287     1.007825032230
         H            2.566067840092    -0.762130784091     0.734209727713     1.007825032230
         H           -3.180521559908     0.105828115909     0.001481027713     1.007825032230

  Basis Set: AUG-CC-PVTZ
    Blend: AUG-CC-PVTZ
  Basis Set: (AUG-CC-PVTZ AUX)
    Blend: AUG-CC-PVTZ-JKFIT
	 Reference Energy          =    -248.2301612622916309 [Eh]
	 Singles Energy            =      -0.0000000000000000 [Eh]
	 Same-Spin Energy          =      -0.2477521246310420 [Eh]
	 Opposite-Spin Energy      =      -0.8439896583013881 [Eh]
	 Correlation Energy        =      -1.0917417829324301 [Eh]
	 Total Energy              =    -249.3219030452240474 [Eh]

	 ================> DF-SCS-MP2 Energies <==================
	-----------------------------------------------------------
	 SCS Same-Spin Scale       =       0.3333333333333333 [-]
	 SCS Opposite-Spin Scale   =       1.2000000000000000 [-]
	 SCS Same-Spin Energy      =      -0.0825840415436807 [Eh]
	 SCS Opposite-Spin Energy  =      -1.0127875899616656 [Eh]
	 SCS Correlation Energy    =      -1.0953716315053463 [Eh]
	 SCS Total Energy          =    -249.3255328937969750 [Eh]
	-----------------------------------------------------------

  Dipole Moment: [D]
     X:    -1.1767      Y:     0.7089      Z:    -0.0184     Total:     1.3738

*** Psi4 exiting successfully. Buy a developer a beer!
