                               Psi4 1.3.2 release

  ==> Input File <==

--------------------------------------------------------------------------
#psi4
#
memory 32 gb

molecule  {
0 1
  O       -2.3851110    -0.4314350    -0.0002820
  N        2.5187010    -0.2207910    -0.0001120
  C       -0.0130310    -0.3414550     0.0003300
  C        1.2524210     0.5177120    -0.0001190
  C       -1.2252290     0.4031197     0.0000061
  H       -0.0208770    -0.9936910    -0.8809850
  H       -0.0206570    -0.9930790     0.8820930
  H        1.2550010     1.1745560     0.8775860
  H        1.2546990     1.1740390    -0.8782090
  H       -1.3125800     1.1321620    -0.8873520
  H       -1.3130830     1.1320500     0.8875860
  H        2.5458240    -0.8359140    -0.8127320
  H        2.5461020    -0.8354320     0.8128620
  H       -3.2031750     0.0928130     0.0003940
units angstrom
no_reorient  #important for SAPT in psi4, default
symmetry c1  #important for SAPT in psi4, default
}

set PROPERTIES_ORIGIN ["COM"]
properties('MP2/aug-cc-pvtz', properties = ['dipole'])
--------------------------------------------------------------------------

    Molecular point group: c1
  Charge       = 0
  Multiplicity = 1
  Basis Set: AUG-CC-PVTZ
    Blend: AUG-CC-PVTZ
  Basis Set: (AUG-CC-PVTZ AUX)
    Blend: AUG-CC-PVTZ-JKFIT

    Orbital Energies [Eh]
    ---------------------

    Doubly Occupied:

       1A    -20.558990     2A    -15.543916     3A    -11.284461
       4A    -11.253560     5A    -11.216873     6A     -1.355517
       7A     -1.181459     8A     -1.052922     9A     -0.887955
      10A     -0.805084    11A     -0.695225    12A     -0.684113
      13A     -0.634742    14A     -0.606730    15A     -0.569309
      16A     -0.547269    17A     -0.534958    18A     -0.489644
      19A     -0.485849    20A     -0.427841    21A     -0.396812

  @DF-RHF Final Energy:  -248.22517202015359

   => Energetics <=

    Nuclear Repulsion Energy =            186.5521751691837551
    One-Electron Energy =                -707.1282410860226264
    Two-Electron Energy =                 272.3508938966852497
    Total Energy =                       -248.2251720201535932
  Basis Set: (AUG-CC-PVTZ AUX)
    Blend: AUG-CC-PVTZ-RI
    Molecular point group: c1

    Geometry (in Angstrom), charge = 0, multiplicity = 1:

       Center              X                  Y                   Z               Mass
    ------------   -----------------  -----------------  -----------------  -----------------
         O           -2.372251301273    -0.405001811321    -0.000252413872    15.994914619570
         N            2.531560698727    -0.194357811321    -0.000082413872    14.003074004430
         C           -0.000171301273    -0.315021811321     0.000359586128    12.000000000000
         C            1.265280698727     0.544145188679    -0.000089413872    12.000000000000
         C           -1.212369301273     0.429552888679     0.000035686128    12.000000000000
         H           -0.008017301273    -0.967257811321    -0.880955413872     1.007825032230
         H           -0.007797301273    -0.966645811321     0.882122586128     1.007825032230
         H            1.267860698727     1.200989188679     0.877615586128     1.007825032230
         H            1.267558698727     1.200472188679    -0.878179413872     1.007825032230
         H           -1.299720301273     1.158595188679    -0.887322413872     1.007825032230
         H           -1.300223301273     1.158483188679     0.887615586128     1.007825032230
         H            2.558683698727    -0.809480811321    -0.812702413872     1.007825032230
         H            2.558961698727    -0.808998811321     0.812891586128     1.007825032230
         H           -3.190315301273     0.119246188679     0.000423586128     1.007825032230

  Basis Set: AUG-CC-PVTZ
    Blend: AUG-CC-PVTZ
  Basis Set: (AUG-CC-PVTZ AUX)
    Blend: AUG-CC-PVTZ-JKFIT
	 Reference Energy          =    -248.2251720201535932 [Eh]
	 Singles Energy            =      -0.0000000000000000 [Eh]
	 Same-Spin Energy          =      -0.2489669181960196 [Eh]
	 Opposite-Spin Energy      =      -0.8461323789590764 [Eh]
	 Correlation Energy        =      -1.0950992971550961 [Eh]
	 Total Energy              =    -249.3202713173086806 [Eh]

	 ================> DF-SCS-MP2 Energies <==================
	-----------------------------------------------------------
	 SCS Same-Spin Scale       =       0.3333333333333333 [-]
	 SCS Opposite-Spin Scale   =       1.2000000000000000 [-]
	 SCS Same-Spin Energy      =      -0.0829889727320065 [Eh]
	 SCS Opposite-Spin Energy  =      -1.0153588547508916 [Eh]
	 SCS Correlation Energy    =      -1.0983478274828982 [Eh]
	 SCS Total Energy          =    -249.3235198476365042 [Eh]
	-----------------------------------------------------------

  Dipole Moment: [D]
     X:    -1.0127      Y:     0.6050      Z:     0.0017     Total:     1.1797

*** Psi4 exiting successfully. Buy a developer a beer!
