                               Psi4 1.4a3.dev225

  ==> Input File <==

--------------------------------------------------------------------------
#psi4
#
memory 32 gb

molecule  {
0 1
  O        2.3850150    -0.4314620    -0.0000020
  N       -2.5187610    -0.2207970     0.0000020
  C        0.0130360    -0.3413840    -0.0000010
  C       -1.2523980     0.5177100    -0.0000070
  C        1.2864090     0.4819960     0.0000060
  H        0.0207440    -0.9933730     0.8815180
  H        0.0207540    -0.9933720    -0.8815200
  H       -1.2549080     1.1742870    -0.8779080
  H       -1.2549050     1.1743050     0.8778810
  H        1.3129410     1.1321370     0.8874920
  H        1.3129410     1.1321530    -0.8874690
  H       -2.5459240    -0.8356760     0.8128080
  H       -2.5445909    -0.8055442    -0.7729256
  H        3.2032020     0.0925730    -0.0000070
units angstrom
no_reorient  #important for SAPT in psi4, default
symmetry c1  #important for SAPT in psi4, default
}

set PROPERTIES_ORIGIN ["COM"]
properties('MP2/aug-cc-pvtz', properties = ['dipole'])
--------------------------------------------------------------------------

    Molecular point group: c1
  Charge       = 0
  Multiplicity = 1
  Basis Set: AUG-CC-PVTZ
    Blend: AUG-CC-PVTZ
  Basis Set: (AUG-CC-PVTZ AUX)
    Blend: AUG-CC-PVTZ-JKFIT

    Orbital Energies [Eh]
    ---------------------

    Doubly Occupied:

       1A    -20.561533     2A    -15.535906     3A    -11.278858
       4A    -11.249907     5A    -11.219139     6A     -1.357516
       7A     -1.185136     8A     -1.034168     9A     -0.889872
      10A     -0.809761    11A     -0.693133    12A     -0.685633
      13A     -0.642438    14A     -0.598536    15A     -0.559346
      16A     -0.552953    17A     -0.536140    18A     -0.485148
      19A     -0.483381    20A     -0.447208    21A     -0.392717

  @DF-RHF Final Energy:  -248.23615552422677

   => Energetics <=

    Nuclear Repulsion Energy =            185.7838666223274231
    One-Electron Energy =                -705.6431831184571593
    Two-Electron Energy =                 271.6231609719029620
    Total Energy =                       -248.2361555242267741
  Basis Set: (AUG-CC-PVTZ AUX)
    Blend: AUG-CC-PVTZ-RI
    Molecular point group: c1

    Geometry (in Angstrom), charge = 0, multiplicity = 1:

       Center              X                  Y                   Z               Mass
    ------------   -----------------  -----------------  -----------------  -----------------
         O            2.362382346625    -0.418044247611    -0.000536890689    15.994914619570
         N           -2.541393653375    -0.207379247611    -0.000532890689    14.003074004430
         C           -0.009596653375    -0.327966247611    -0.000535890689    12.000000000000
         C           -1.275030653375     0.531127752389    -0.000541890689    12.000000000000
         C            1.263776346625     0.495413752389    -0.000528890689    12.000000000000
         H           -0.001888653375    -0.979955247611     0.880983109311     1.007825032230
         H           -0.001878653375    -0.979954247611    -0.882054890689     1.007825032230
         H           -1.277540653375     1.187704752389    -0.878442890689     1.007825032230
         H           -1.277537653375     1.187722752389     0.877346109311     1.007825032230
         H            1.290308346625     1.145554752389     0.886957109311     1.007825032230
         H            1.290308346625     1.145570752389    -0.888003890689     1.007825032230
         H           -2.568556653375    -0.822258247611     0.812273109311     1.007825032230
         H           -2.567223553375    -0.792126447611    -0.773460490689     1.007825032230
         H            3.180569346625     0.105990752389    -0.000541890689     1.007825032230

  Basis Set: AUG-CC-PVTZ
    Blend: AUG-CC-PVTZ
  Basis Set: (AUG-CC-PVTZ AUX)
    Blend: AUG-CC-PVTZ-JKFIT
	 Reference Energy          =    -248.2361555242267741 [Eh]
	 Singles Energy            =      -0.0000000000000000 [Eh]
	 Same-Spin Energy          =      -0.2479647636643005 [Eh]
	 Opposite-Spin Energy      =      -0.8446762691190214 [Eh]
	 Correlation Energy        =      -1.0926410327833218 [Eh]
	 Total Energy              =    -249.3287965570100937 [Eh]

	 ================> DF-SCS-MP2 Energies <==================
	-----------------------------------------------------------
	 SCS Same-Spin Scale       =       0.3333333333333333 [-]
	 SCS Opposite-Spin Scale   =       1.2000000000000000 [-]
	 SCS Same-Spin Energy      =      -0.0826549212214335 [Eh]
	 SCS Opposite-Spin Energy  =      -1.0136115229428255 [Eh]
	 SCS Correlation Energy    =      -1.0962664441642591 [Eh]
	 SCS Total Energy          =    -249.3324219683910314 [Eh]
	-----------------------------------------------------------

  Dipole Moment: [D]
     X:     1.1734      Y:     0.7091      Z:     0.0089     Total:     1.3711

*** Psi4 exiting successfully. Buy a developer a beer!
