                               Psi4 1.3.2 release

  ==> Input File <==

--------------------------------------------------------------------------
#psi4
#
memory 32 gb

molecule  {
0 1
  O       -2.3309990    -0.4842332    -0.1293352
  N        2.5187010    -0.2207910    -0.0001120
  C       -0.0130310    -0.3414550     0.0003300
  C        1.2524210     0.5177120    -0.0001190
  C       -1.2862700     0.4819960     0.0000880
  H       -0.0208770    -0.9936910    -0.8809850
  H       -0.0206570    -0.9930790     0.8820930
  H        1.2550010     1.1745560     0.8775860
  H        1.2546990     1.1740390    -0.8782090
  H       -1.3125800     1.1321620    -0.8873520
  H       -1.3130830     1.1320500     0.8875860
  H        2.5458240    -0.8359140    -0.8127320
  H        2.5461020    -0.8354320     0.8128620
  H       -3.2031750     0.0928130     0.0003940
units angstrom
no_reorient  #important for SAPT in psi4, default
symmetry c1  #important for SAPT in psi4, default
}

set PROPERTIES_ORIGIN ["COM"]
properties('MP2/aug-cc-pvtz', properties = ['dipole'])
--------------------------------------------------------------------------

    Molecular point group: c1
  Charge       = 0
  Multiplicity = 1
  Basis Set: AUG-CC-PVTZ
    Blend: AUG-CC-PVTZ
  Basis Set: (AUG-CC-PVTZ AUX)
    Blend: AUG-CC-PVTZ-JKFIT

    Orbital Energies [Eh]
    ---------------------

    Doubly Occupied:

       1A    -20.571537     2A    -15.540542     3A    -11.277940
       4A    -11.248387     5A    -11.216864     6A     -1.346211
       7A     -1.177212     8A     -1.028501     9A     -0.882889
      10A     -0.808731    11A     -0.683340    12A     -0.673738
      13A     -0.638279    14A     -0.596253    15A     -0.554645
      16A     -0.549012    17A     -0.533382    18A     -0.486199
      19A     -0.480842    20A     -0.447589    21A     -0.389586

  @DF-RHF Final Energy:  -248.22286853636706

   => Energetics <=

    Nuclear Repulsion Energy =            185.6260559191243544
    One-Electron Energy =                -705.4344917009448181
    Two-Electron Energy =                 271.5855672454533760
    Total Energy =                       -248.2228685363670593
  Basis Set: (AUG-CC-PVTZ AUX)
    Blend: AUG-CC-PVTZ-RI
    Molecular point group: c1

    Geometry (in Angstrom), charge = 0, multiplicity = 1:

       Center              X                  Y                   Z               Mass
    ------------   -----------------  -----------------  -----------------  -----------------
         O           -2.319911349102    -0.459158943708    -0.101821189894    15.994914619570
         N            2.529788650898    -0.195716743708     0.027402010106    14.003074004430
         C           -0.001943349102    -0.316380743708     0.027844010106    12.000000000000
         C            1.263508650898     0.542786256292     0.027395010106    12.000000000000
         C           -1.275182349102     0.507070256292     0.027602010106    12.000000000000
         H           -0.009789349102    -0.968616743708    -0.853470989894     1.007825032230
         H           -0.009569349102    -0.968004743708     0.909607010106     1.007825032230
         H            1.266088650898     1.199630256292     0.905100010106     1.007825032230
         H            1.265786650898     1.199113256292    -0.850694989894     1.007825032230
         H           -1.301492349102     1.157236256292    -0.859837989894     1.007825032230
         H           -1.301995349102     1.157124256292     0.915100010106     1.007825032230
         H            2.556911650898    -0.810839743708    -0.785217989894     1.007825032230
         H            2.557189650898    -0.810357743708     0.840376010106     1.007825032230
         H           -3.192087349102     0.117887256292     0.027908010106     1.007825032230

  Basis Set: AUG-CC-PVTZ
    Blend: AUG-CC-PVTZ
  Basis Set: (AUG-CC-PVTZ AUX)
    Blend: AUG-CC-PVTZ-JKFIT
	 Reference Energy          =    -248.2228685363670593 [Eh]
	 Singles Energy            =      -0.0000000000000000 [Eh]
	 Same-Spin Energy          =      -0.2495041463776330 [Eh]
	 Opposite-Spin Energy      =      -0.8488888713188210 [Eh]
	 Correlation Energy        =      -1.0983930176964540 [Eh]
	 Total Energy              =    -249.3212615540635113 [Eh]

	 ================> DF-SCS-MP2 Energies <==================
	-----------------------------------------------------------
	 SCS Same-Spin Scale       =       0.3333333333333333 [-]
	 SCS Opposite-Spin Scale   =       1.2000000000000000 [-]
	 SCS Same-Spin Energy      =      -0.0831680487925443 [Eh]
	 SCS Opposite-Spin Energy  =      -1.0186666455825850 [Eh]
	 SCS Correlation Energy    =      -1.1018346943751294 [Eh]
	 SCS Total Energy          =    -249.3247032307421875 [Eh]
	-----------------------------------------------------------

  Dipole Moment: [D]
     X:    -1.2973      Y:     0.7577      Z:     0.2939     Total:     1.5308

*** Psi4 exiting successfully. Buy a developer a beer!
