                               Psi4 1.3.2 release

  ==> Input File <==

--------------------------------------------------------------------------
#psi4
#
memory 32 gb

molecule  {
0 1
  O       -2.3851110    -0.4314350    -0.0002820
  N        2.5187010    -0.2207910    -0.0001120
  C       -0.0130310    -0.3414550     0.0003300
  C        1.2524210     0.5177120    -0.0001190
  C       -1.2550611     0.4430906     0.0000473
  H       -0.0208770    -0.9936910    -0.8809850
  H       -0.0206570    -0.9930790     0.8820930
  H        1.2550010     1.1745560     0.8775860
  H        1.2546990     1.1740390    -0.8782090
  H       -1.3125800     1.1321620    -0.8873520
  H       -1.3130830     1.1320500     0.8875860
  H        2.5458240    -0.8359140    -0.8127320
  H        2.5461020    -0.8354320     0.8128620
  H       -3.2031750     0.0928130     0.0003940
units angstrom
no_reorient  #important for SAPT in psi4, default
symmetry c1  #important for SAPT in psi4, default
}

set PROPERTIES_ORIGIN ["COM"]
properties('MP2/aug-cc-pvtz', properties = ['dipole'])
--------------------------------------------------------------------------

    Molecular point group: c1
  Charge       = 0
  Multiplicity = 1
  Basis Set: AUG-CC-PVTZ
    Blend: AUG-CC-PVTZ
  Basis Set: (AUG-CC-PVTZ AUX)
    Blend: AUG-CC-PVTZ-JKFIT

    Orbital Energies [Eh]
    ---------------------

    Doubly Occupied:

       1A    -20.560118     2A    -15.542803     3A    -11.281292
       4A    -11.251723     5A    -11.217972     6A     -1.356340
       7A     -1.179899     8A     -1.042151     9A     -0.887367
      10A     -0.807428    11A     -0.693971    12A     -0.682626
      13A     -0.636439    14A     -0.601424    15A     -0.563067
      16A     -0.549084    17A     -0.535486    18A     -0.489067
      19A     -0.484221    20A     -0.438073    21A     -0.394505

  @DF-RHF Final Energy:  -248.23393636669601

   => Energetics <=

    Nuclear Repulsion Energy =            186.0405697081828862
    One-Electron Energy =                -706.1589033436634963
    Two-Electron Energy =                 271.8843972687846531
    Total Energy =                       -248.2339363666960139
  Basis Set: (AUG-CC-PVTZ AUX)
    Blend: AUG-CC-PVTZ-RI
    Molecular point group: c1

    Geometry (in Angstrom), charge = 0, multiplicity = 1:

       Center              X                  Y                   Z               Mass
    ------------   -----------------  -----------------  -----------------  -----------------
         O           -2.367482515291    -0.411391326897    -0.000258999864    15.994914619570
         N            2.536329484709    -0.200747326897    -0.000088999864    14.003074004430
         C            0.004597484709    -0.321411326897     0.000353000136    12.000000000000
         C            1.270049484709     0.537755673103    -0.000095999864    12.000000000000
         C           -1.237432615291     0.463134273103     0.000070300136    12.000000000000
         H           -0.003248515291    -0.973647326897    -0.880961999864     1.007825032230
         H           -0.003028515291    -0.973035326897     0.882116000136     1.007825032230
         H            1.272629484709     1.194599673103     0.877609000136     1.007825032230
         H            1.272327484709     1.194082673103    -0.878185999864     1.007825032230
         H           -1.294951515291     1.152205673103    -0.887328999864     1.007825032230
         H           -1.295454515291     1.152093673103     0.887609000136     1.007825032230
         H            2.563452484709    -0.815870326897    -0.812708999864     1.007825032230
         H            2.563730484709    -0.815388326897     0.812885000136     1.007825032230
         H           -3.185546515291     0.112856673103     0.000417000136     1.007825032230

  Basis Set: AUG-CC-PVTZ
    Blend: AUG-CC-PVTZ
  Basis Set: (AUG-CC-PVTZ AUX)
    Blend: AUG-CC-PVTZ-JKFIT
	 Reference Energy          =    -248.2339363666960139 [Eh]
	 Singles Energy            =      -0.0000000000000000 [Eh]
	 Same-Spin Energy          =      -0.2484758228244455 [Eh]
	 Opposite-Spin Energy      =      -0.8456033281179215 [Eh]
	 Correlation Energy        =      -1.0940791509423671 [Eh]
	 Total Energy              =    -249.3280155176383914 [Eh]

	 ================> DF-SCS-MP2 Energies <==================
	-----------------------------------------------------------
	 SCS Same-Spin Scale       =       0.3333333333333333 [-]
	 SCS Opposite-Spin Scale   =       1.2000000000000000 [-]
	 SCS Same-Spin Energy      =      -0.0828252742748152 [Eh]
	 SCS Opposite-Spin Energy  =      -1.0147239937415058 [Eh]
	 SCS Correlation Energy    =      -1.0975492680163210 [Eh]
	 SCS Total Energy          =    -249.3314856347123225 [Eh]
	-----------------------------------------------------------

  Dipole Moment: [D]
     X:    -1.0939      Y:     0.6647      Z:     0.0018     Total:     1.2800

*** Psi4 exiting successfully. Buy a developer a beer!
