                               Psi4 1.3.2 release

  ==> Input File <==

--------------------------------------------------------------------------
#psi4
#
memory 32 gb

molecule  {
0 1
  O       -2.3851110    -0.4314350    -0.0002820
  N        2.5889588    -0.0843831    -0.0001623
  C       -0.0130310    -0.3414550     0.0003300
  C        1.2524210     0.5177120    -0.0001190
  C       -1.2862700     0.4819960     0.0000880
  H       -0.0208770    -0.9936910    -0.8809850
  H       -0.0206570    -0.9930790     0.8820930
  H        1.2550010     1.1745560     0.8775860
  H        1.2546990     1.1740390    -0.8782090
  H       -1.3125800     1.1321620    -0.8873520
  H       -1.3130830     1.1320500     0.8875860
  H        2.5458240    -0.8359140    -0.8127320
  H        2.5461020    -0.8354320     0.8128620
  H       -3.2031750     0.0928130     0.0003940
units angstrom
no_reorient  #important for SAPT in psi4, default
symmetry c1  #important for SAPT in psi4, default
}

set PROPERTIES_ORIGIN ["COM"]
properties('MP2/aug-cc-pvtz', properties = ['dipole'])
--------------------------------------------------------------------------

    Molecular point group: c1
  Charge       = 0
  Multiplicity = 1
  Basis Set: AUG-CC-PVTZ
    Blend: AUG-CC-PVTZ
  Basis Set: (AUG-CC-PVTZ AUX)
    Blend: AUG-CC-PVTZ-JKFIT

    Orbital Energies [Eh]
    ---------------------

    Doubly Occupied:

       1A    -20.563762     2A    -15.568726     3A    -11.282097
       4A    -11.249995     5A    -11.224236     6A     -1.359732
       7A     -1.170282     8A     -1.033121     9A     -0.882350
      10A     -0.809551    11A     -0.695105    12A     -0.672915
      13A     -0.624504    14A     -0.592287    15A     -0.566617
      16A     -0.536051    17A     -0.529946    18A     -0.484287
      19A     -0.473434    20A     -0.449410    21A     -0.412544

  @DF-RHF Final Energy:  -248.21520664739427

   => Energetics <=

    Nuclear Repulsion Energy =            184.4942235694726662
    One-Electron Energy =                -703.0569562645575843
    Two-Electron Energy =                 270.3475260476906783
    Total Energy =                       -248.2152066473942682
  Basis Set: (AUG-CC-PVTZ AUX)
    Blend: AUG-CC-PVTZ-RI
    Molecular point group: c1

    Geometry (in Angstrom), charge = 0, multiplicity = 1:

       Center              X                  Y                   Z               Mass
    ------------   -----------------  -----------------  -----------------  -----------------
         O           -2.375599356197    -0.443055706022    -0.000256123094    15.994914619570
         N            2.598470443803    -0.096003806022    -0.000136423094    14.003074004430
         C           -0.003519356197    -0.353075706022     0.000355876906    12.000000000000
         C            1.261932643803     0.506091293978    -0.000093123094    12.000000000000
         C           -1.276758356197     0.470375293978     0.000113876906    12.000000000000
         H           -0.011365356197    -1.005311706022    -0.880959123094     1.007825032230
         H           -0.011145356197    -1.004699706022     0.882118876906     1.007825032230
         H            1.264512643803     1.162935293978     0.877611876906     1.007825032230
         H            1.264210643803     1.162418293978    -0.878183123094     1.007825032230
         H           -1.303068356197     1.120541293978    -0.887326123094     1.007825032230
         H           -1.303571356197     1.120429293978     0.887611876906     1.007825032230
         H            2.555335643803    -0.847534706022    -0.812706123094     1.007825032230
         H            2.555613643803    -0.847052706022     0.812887876906     1.007825032230
         H           -3.193663356197     0.081192293978     0.000419876906     1.007825032230

  Basis Set: AUG-CC-PVTZ
    Blend: AUG-CC-PVTZ
  Basis Set: (AUG-CC-PVTZ AUX)
    Blend: AUG-CC-PVTZ-JKFIT
	 Reference Energy          =    -248.2152066473942682 [Eh]
	 Singles Energy            =      -0.0000000000000000 [Eh]
	 Same-Spin Energy          =      -0.2496152394736066 [Eh]
	 Opposite-Spin Energy      =      -0.8501789757735828 [Eh]
	 Correlation Energy        =      -1.0997942152471896 [Eh]
	 Total Energy              =    -249.3150008626414547 [Eh]

	 ================> DF-SCS-MP2 Energies <==================
	-----------------------------------------------------------
	 SCS Same-Spin Scale       =       0.3333333333333333 [-]
	 SCS Opposite-Spin Scale   =       1.2000000000000000 [-]
	 SCS Same-Spin Energy      =      -0.0832050798245355 [Eh]
	 SCS Opposite-Spin Energy  =      -1.0202147709282994 [Eh]
	 SCS Correlation Energy    =      -1.1034198507528350 [Eh]
	 SCS Total Energy          =    -249.3186264981470970 [Eh]
	-----------------------------------------------------------

  Dipole Moment: [D]
     X:    -1.4028      Y:     0.5478      Z:     0.0019     Total:     1.5059

*** Psi4 exiting successfully. Buy a developer a beer!
