                               Psi4 1.3.2 release

  ==> Input File <==

--------------------------------------------------------------------------
#psi4
#
memory 32 gb

molecule  {
0 1
  O       -2.3851110    -0.4314350    -0.0002820
  N        2.5313968    -0.1985789    -0.0001204
  C       -0.0130310    -0.3414550     0.0003300
  C        1.2524210     0.5177120    -0.0001190
  C       -1.2862700     0.4819960     0.0000880
  H       -0.0208770    -0.9936910    -0.8809850
  H       -0.0206570    -0.9930790     0.8820930
  H        1.2550010     1.1745560     0.8775860
  H        1.2546990     1.1740390    -0.8782090
  H       -1.3125800     1.1321620    -0.8873520
  H       -1.3130830     1.1320500     0.8875860
  H        2.5458240    -0.8359140    -0.8127320
  H        2.5461020    -0.8354320     0.8128620
  H       -3.2031750     0.0928130     0.0003940
units angstrom
no_reorient  #important for SAPT in psi4, default
symmetry c1  #important for SAPT in psi4, default
}

set PROPERTIES_ORIGIN ["COM"]
properties('MP2/aug-cc-pvtz', properties = ['dipole'])
--------------------------------------------------------------------------

    Molecular point group: c1
  Charge       = 0
  Multiplicity = 1
  Basis Set: AUG-CC-PVTZ
    Blend: AUG-CC-PVTZ
  Basis Set: (AUG-CC-PVTZ AUX)
    Blend: AUG-CC-PVTZ-JKFIT

    Orbital Energies [Eh]
    ---------------------

    Doubly Occupied:

       1A    -20.561880     2A    -15.545974     3A    -11.279368
       4A    -11.249975     5A    -11.219901     6A     -1.357814
       7A     -1.177109     8A     -1.032730     9A     -0.886798
      10A     -0.809341    11A     -0.693191    12A     -0.679104
      13A     -0.636921    14A     -0.596402    15A     -0.559676
      16A     -0.548608    17A     -0.535110    18A     -0.485105
      19A     -0.481830    20A     -0.447564    21A     -0.395496

  @DF-RHF Final Energy:  -248.23522922300117

   => Energetics <=

    Nuclear Repulsion Energy =            185.3609917074058160
    One-Electron Energy =                -704.8326441064828032
    Two-Electron Energy =                 271.2364231760758457
    Total Energy =                       -248.2352292230011699
  Basis Set: (AUG-CC-PVTZ AUX)
    Blend: AUG-CC-PVTZ-RI
    Molecular point group: c1

    Geometry (in Angstrom), charge = 0, multiplicity = 1:

       Center              X                  Y                   Z               Mass
    ------------   -----------------  -----------------  -----------------  -----------------
         O           -2.364861884818    -0.421753907369    -0.000263939015    15.994914619570
         N            2.551645915182    -0.188897807369    -0.000102339015    14.003074004430
         C            0.007218115182    -0.331773907369     0.000348060985    12.000000000000
         C            1.272670115182     0.527393092631    -0.000100939015    12.000000000000
         C           -1.266020884818     0.491677092631     0.000106060985    12.000000000000
         H           -0.000627884818    -0.984009907369    -0.880966939015     1.007825032230
         H           -0.000407884818    -0.983397907369     0.882111060985     1.007825032230
         H            1.275250115182     1.184237092631     0.877604060985     1.007825032230
         H            1.274948115182     1.183720092631    -0.878190939015     1.007825032230
         H           -1.292330884818     1.141843092631    -0.887333939015     1.007825032230
         H           -1.292833884818     1.141731092631     0.887604060985     1.007825032230
         H            2.566073115182    -0.826232907369    -0.812713939015     1.007825032230
         H            2.566351115182    -0.825750907369     0.812880060985     1.007825032230
         H           -3.182925884818     0.102494092631     0.000412060985     1.007825032230

  Basis Set: AUG-CC-PVTZ
    Blend: AUG-CC-PVTZ
  Basis Set: (AUG-CC-PVTZ AUX)
    Blend: AUG-CC-PVTZ-JKFIT
	 Reference Energy          =    -248.2352292230011699 [Eh]
	 Singles Energy            =      -0.0000000000000000 [Eh]
	 Same-Spin Energy          =      -0.2483494418345117 [Eh]
	 Opposite-Spin Energy      =      -0.8460498458957677 [Eh]
	 Correlation Energy        =      -1.0943992877302795 [Eh]
	 Total Energy              =    -249.3296285107314532 [Eh]

	 ================> DF-SCS-MP2 Energies <==================
	-----------------------------------------------------------
	 SCS Same-Spin Scale       =       0.3333333333333333 [-]
	 SCS Opposite-Spin Scale   =       1.2000000000000000 [-]
	 SCS Same-Spin Energy      =      -0.0827831472781706 [Eh]
	 SCS Opposite-Spin Energy  =      -1.0152598150749212 [Eh]
	 SCS Correlation Energy    =      -1.0980429623530918 [Eh]
	 SCS Total Energy          =    -249.3332721853542751 [Eh]
	-----------------------------------------------------------

  Dipole Moment: [D]
     X:    -1.2149      Y:     0.6780      Z:     0.0019     Total:     1.3913

*** Psi4 exiting successfully. Buy a developer a beer!
