                               Psi4 1.4a3.dev225

  ==> Input File <==

--------------------------------------------------------------------------
#psi4
#
memory 32 gb

molecule  {
0 1
  O        2.3850150    -0.4314620    -0.0000020
  N       -2.5187610    -0.2207970     0.0000020
  C        0.0130360    -0.3413840    -0.0000010
  C       -1.2955900     0.4925217    -0.0000067
  C        1.2864090     0.4819960     0.0000060
  H        0.0207440    -0.9933730     0.8815180
  H        0.0207540    -0.9933720    -0.8815200
  H       -1.2549080     1.1742870    -0.8779080
  H       -1.2549050     1.1743050     0.8778810
  H        1.3129410     1.1321370     0.8874920
  H        1.3129410     1.1321530    -0.8874690
  H       -2.5459240    -0.8356760     0.8128080
  H       -2.5459230    -0.8357000    -0.8127860
  H        3.2032020     0.0925730    -0.0000070
units angstrom
no_reorient  #important for SAPT in psi4, default
symmetry c1  #important for SAPT in psi4, default
}

set PROPERTIES_ORIGIN ["COM"]
properties('MP2/aug-cc-pvtz', properties = ['dipole'])
--------------------------------------------------------------------------

    Molecular point group: c1
  Charge       = 0
  Multiplicity = 1
  Basis Set: AUG-CC-PVTZ
    Blend: AUG-CC-PVTZ
  Basis Set: (AUG-CC-PVTZ AUX)
    Blend: AUG-CC-PVTZ-JKFIT

    Orbital Energies [Eh]
    ---------------------

    Doubly Occupied:

       1A    -20.561189     2A    -15.543221     3A    -11.278503
       4A    -11.251377     5A    -11.218239     6A     -1.357052
       7A     -1.193873     8A     -1.028681     9A     -0.884625
      10A     -0.807345    11A     -0.692565    12A     -0.683921
      13A     -0.641062    14A     -0.604195    15A     -0.565289
      16A     -0.546331    17A     -0.537097    18A     -0.483785
      19A     -0.475555    20A     -0.446411    21A     -0.389694

  @DF-RHF Final Energy:  -248.23425371370544

   => Energetics <=

    Nuclear Repulsion Energy =            185.6391129382584495
    One-Electron Energy =                -705.3667136667628483
    Two-Electron Energy =                 271.4933470147989851
    Total Energy =                       -248.2342537137054137
  Basis Set: (AUG-CC-PVTZ AUX)
    Blend: AUG-CC-PVTZ-RI
    Molecular point group: c1

    Geometry (in Angstrom), charge = 0, multiplicity = 1:

       Center              X                  Y                   Z               Mass
    ------------   -----------------  -----------------  -----------------  -----------------
         O            2.369304652514    -0.413612938186    -0.000001796009    15.994914619570
         N           -2.534471347486    -0.202947938186     0.000002203991    14.003074004430
         C           -0.002674347486    -0.323534938186    -0.000000796009    12.000000000000
         C           -1.311300347486     0.510370761814    -0.000006496009    12.000000000000
         C            1.270698652514     0.499845061814     0.000006203991    12.000000000000
         H            0.005033652514    -0.975523938186     0.881518203991     1.007825032230
         H            0.005043652514    -0.975522938186    -0.881519796009     1.007825032230
         H           -1.270618347486     1.192136061814    -0.877907796009     1.007825032230
         H           -1.270615347486     1.192154061814     0.877881203991     1.007825032230
         H            1.297230652514     1.149986061814     0.887492203991     1.007825032230
         H            1.297230652514     1.150002061814    -0.887468796009     1.007825032230
         H           -2.561634347486    -0.817826938186     0.812808203991     1.007825032230
         H           -2.561633347486    -0.817850938186    -0.812785796009     1.007825032230
         H            3.187491652514     0.110422061814    -0.000006796009     1.007825032230

  Basis Set: AUG-CC-PVTZ
    Blend: AUG-CC-PVTZ
  Basis Set: (AUG-CC-PVTZ AUX)
    Blend: AUG-CC-PVTZ-JKFIT
	 Reference Energy          =    -248.2342537137054421 [Eh]
	 Singles Energy            =      -0.0000000000000000 [Eh]
	 Same-Spin Energy          =      -0.2483645393329781 [Eh]
	 Opposite-Spin Energy      =      -0.8453379026569195 [Eh]
	 Correlation Energy        =      -1.0937024419898975 [Eh]
	 Total Energy              =    -249.3279561556953468 [Eh]

	 ================> DF-SCS-MP2 Energies <==================
	-----------------------------------------------------------
	 SCS Same-Spin Scale       =       0.3333333333333333 [-]
	 SCS Opposite-Spin Scale   =       1.2000000000000000 [-]
	 SCS Same-Spin Energy      =      -0.0827881797776594 [Eh]
	 SCS Opposite-Spin Energy  =      -1.0144054831883034 [Eh]
	 SCS Correlation Energy    =      -1.0971936629659627 [Eh]
	 SCS Total Energy          =    -249.3314473766714059 [Eh]
	-----------------------------------------------------------

  Dipole Moment: [D]
     X:     1.0315      Y:     0.6617      Z:     0.0000     Total:     1.2255

*** Psi4 exiting successfully. Buy a developer a beer!
