                               Psi4 1.3.2 release

  ==> Input File <==

--------------------------------------------------------------------------
#psi4
#
memory 32 gb

molecule  {
0 1
  O       -2.3851110    -0.4314350    -0.0002820
  N        2.4641010    -0.3073233    -0.0000785
  C       -0.0130310    -0.3414550     0.0003300
  C        1.2524210     0.5177120    -0.0001190
  C       -1.2862700     0.4819960     0.0000880
  H       -0.0208770    -0.9936910    -0.8809850
  H       -0.0206570    -0.9930790     0.8820930
  H        1.2550010     1.1745560     0.8775860
  H        1.2546990     1.1740390    -0.8782090
  H       -1.3125800     1.1321620    -0.8873520
  H       -1.3130830     1.1320500     0.8875860
  H        2.5458240    -0.8359140    -0.8127320
  H        2.5461020    -0.8354320     0.8128620
  H       -3.2031750     0.0928130     0.0003940
units angstrom
no_reorient  #important for SAPT in psi4, default
symmetry c1  #important for SAPT in psi4, default
}

set PROPERTIES_ORIGIN ["COM"]
properties('MP2/aug-cc-pvtz', properties = ['dipole'])
--------------------------------------------------------------------------

    Molecular point group: c1
  Charge       = 0
  Multiplicity = 1
  Basis Set: AUG-CC-PVTZ
    Blend: AUG-CC-PVTZ
  Basis Set: (AUG-CC-PVTZ AUX)
    Blend: AUG-CC-PVTZ-JKFIT

    Orbital Energies [Eh]
    ---------------------

    Doubly Occupied:

       1A    -20.559773     2A    -15.526691     3A    -11.276210
       4A    -11.250651     5A    -11.215547     6A     -1.355656
       7A     -1.183772     8A     -1.031992     9A     -0.890354
      10A     -0.807707    11A     -0.695980    12A     -0.690751
      13A     -0.645629    14A     -0.601890    15A     -0.557415
      16A     -0.552907    17A     -0.537838    18A     -0.484827
      19A     -0.484444    20A     -0.445455    21A     -0.378955

  @DF-RHF Final Energy:  -248.23507519854533

   => Energetics <=

    Nuclear Repulsion Energy =            186.2561131986549015
    One-Electron Energy =                -706.6334898707210641
    Two-Electron Energy =                 272.1423014735207744
    Total Energy =                       -248.2350751985453599
  Basis Set: (AUG-CC-PVTZ AUX)
    Blend: AUG-CC-PVTZ-RI
    Molecular point group: c1

    Geometry (in Angstrom), charge = 0, multiplicity = 1:

       Center              X                  Y                   Z               Mass
    ------------   -----------------  -----------------  -----------------  -----------------
         O           -2.352308694755    -0.401468999225    -0.000271754936    15.994914619570
         N            2.496903305245    -0.277357299225    -0.000068254936    14.003074004430
         C            0.019771305245    -0.311488999225     0.000340245064    12.000000000000
         C            1.285223305245     0.547678000775    -0.000108754936    12.000000000000
         C           -1.253467694755     0.511962000775     0.000098245064    12.000000000000
         H            0.011925305245    -0.963724999225    -0.880974754936     1.007825032230
         H            0.012145305245    -0.963112999225     0.882103245064     1.007825032230
         H            1.287803305245     1.204522000775     0.877596245064     1.007825032230
         H            1.287501305245     1.204005000775    -0.878198754936     1.007825032230
         H           -1.279777694755     1.162128000775    -0.887341754936     1.007825032230
         H           -1.280280694755     1.162016000775     0.887596245064     1.007825032230
         H            2.578626305245    -0.805947999225    -0.812721754936     1.007825032230
         H            2.578904305245    -0.805465999225     0.812872245064     1.007825032230
         H           -3.170372694755     0.122779000775     0.000404245064     1.007825032230

  Basis Set: AUG-CC-PVTZ
    Blend: AUG-CC-PVTZ
  Basis Set: (AUG-CC-PVTZ AUX)
    Blend: AUG-CC-PVTZ-JKFIT
	 Reference Energy          =    -248.2350751985453314 [Eh]
	 Singles Energy            =      -0.0000000000000000 [Eh]
	 Same-Spin Energy          =      -0.2478173151725302 [Eh]
	 Opposite-Spin Energy      =      -0.8437568538447591 [Eh]
	 Correlation Energy        =      -1.0915741690172893 [Eh]
	 Total Energy              =    -249.3266493675626236 [Eh]

	 ================> DF-SCS-MP2 Energies <==================
	-----------------------------------------------------------
	 SCS Same-Spin Scale       =       0.3333333333333333 [-]
	 SCS Opposite-Spin Scale   =       1.2000000000000000 [-]
	 SCS Same-Spin Energy      =      -0.0826057717241767 [Eh]
	 SCS Opposite-Spin Energy  =      -1.0125082246137109 [Eh]
	 SCS Correlation Energy    =      -1.0951139963378878 [Eh]
	 SCS Total Energy          =    -249.3301891948832179 [Eh]
	-----------------------------------------------------------

  Dipole Moment: [D]
     X:    -0.9546      Y:     0.8750      Z:     0.0018     Total:     1.2950

*** Psi4 exiting successfully. Buy a developer a beer!
