                               Psi4 1.3.2 release

  ==> Input File <==

--------------------------------------------------------------------------
#psi4
#
memory 32 gb

molecule  {
0 1
  O       -2.3851110    -0.4314350    -0.0002820
  N        2.5056195    -0.2427782    -0.0001036
  C       -0.0130310    -0.3414550     0.0003300
  C        1.2524210     0.5177120    -0.0001190
  C       -1.2862700     0.4819960     0.0000880
  H       -0.0208770    -0.9936910    -0.8809850
  H       -0.0206570    -0.9930790     0.8820930
  H        1.2550010     1.1745560     0.8775860
  H        1.2546990     1.1740390    -0.8782090
  H       -1.3125800     1.1321620    -0.8873520
  H       -1.3130830     1.1320500     0.8875860
  H        2.5458240    -0.8359140    -0.8127320
  H        2.5461020    -0.8354320     0.8128620
  H       -3.2031750     0.0928130     0.0003940
units angstrom
no_reorient  #important for SAPT in psi4, default
symmetry c1  #important for SAPT in psi4, default
}

set PROPERTIES_ORIGIN ["COM"]
properties('MP2/aug-cc-pvtz', properties = ['dipole'])
--------------------------------------------------------------------------

    Molecular point group: c1
  Charge       = 0
  Multiplicity = 1
  Basis Set: AUG-CC-PVTZ
    Blend: AUG-CC-PVTZ
  Basis Set: (AUG-CC-PVTZ AUX)
    Blend: AUG-CC-PVTZ-JKFIT

    Orbital Energies [Eh]
    ---------------------

    Doubly Occupied:

       1A    -20.561071     2A    -15.537724     3A    -11.278167
       4A    -11.250192     5A    -11.218166     6A     -1.356987
       7A     -1.179887     8A     -1.032506     9A     -0.888379
      10A     -0.808841    11A     -0.692281    12A     -0.684489
      13A     -0.641333    14A     -0.598452    15A     -0.556815
      16A     -0.552744    17A     -0.536685    18A     -0.485000
      19A     -0.483478    20A     -0.446760    21A     -0.388675

  @DF-RHF Final Energy:  -248.23741068732349

   => Energetics <=

    Nuclear Repulsion Energy =            185.7183571638396415
    One-Electron Energy =                -705.5542705785231874
    Two-Electron Energy =                 271.5985027273600281
    Total Energy =                       -248.2374106873235178
  Basis Set: (AUG-CC-PVTZ AUX)
    Blend: AUG-CC-PVTZ-RI
    Molecular point group: c1

    Geometry (in Angstrom), charge = 0, multiplicity = 1:

       Center              X                  Y                   Z               Mass
    ------------   -----------------  -----------------  -----------------  -----------------
         O           -2.360053451807    -0.413509080596    -0.000267072845    15.994914619570
         N            2.530677048193    -0.224852280596    -0.000088672845    14.003074004430
         C            0.012026548193    -0.323529080596     0.000344927155    12.000000000000
         C            1.277478548193     0.535637919404    -0.000104072845    12.000000000000
         C           -1.261212451807     0.499921919404     0.000102927155    12.000000000000
         H            0.004180548193    -0.975765080596    -0.880970072845     1.007825032230
         H            0.004400548193    -0.975153080596     0.882107927155     1.007825032230
         H            1.280058548193     1.192481919404     0.877600927155     1.007825032230
         H            1.279756548193     1.191964919404    -0.878194072845     1.007825032230
         H           -1.287522451807     1.150087919404    -0.887337072845     1.007825032230
         H           -1.288025451807     1.149975919404     0.887600927155     1.007825032230
         H            2.570881548193    -0.817988080596    -0.812717072845     1.007825032230
         H            2.571159548193    -0.817506080596     0.812876927155     1.007825032230
         H           -3.178117451807     0.110738919404     0.000408927155     1.007825032230

  Basis Set: AUG-CC-PVTZ
    Blend: AUG-CC-PVTZ
  Basis Set: (AUG-CC-PVTZ AUX)
    Blend: AUG-CC-PVTZ-JKFIT
	 Reference Energy          =    -248.2374106873234894 [Eh]
	 Singles Energy            =      -0.0000000000000000 [Eh]
	 Same-Spin Energy          =      -0.2480523781233374 [Eh]
	 Opposite-Spin Energy      =      -0.8449216060984903 [Eh]
	 Correlation Energy        =      -1.0929739842218278 [Eh]
	 Total Energy              =    -249.3303846715453176 [Eh]

	 ================> DF-SCS-MP2 Energies <==================
	-----------------------------------------------------------
	 SCS Same-Spin Scale       =       0.3333333333333333 [-]
	 SCS Opposite-Spin Scale   =       1.2000000000000000 [-]
	 SCS Same-Spin Energy      =      -0.0826841260411124 [Eh]
	 SCS Opposite-Spin Energy  =      -1.0139059273181883 [Eh]
	 SCS Correlation Energy    =      -1.0965900533593007 [Eh]
	 SCS Total Energy          =    -249.3340007406827965 [Eh]
	-----------------------------------------------------------

  Dipole Moment: [D]
     X:    -1.1212      Y:     0.7489      Z:     0.0018     Total:     1.3483

*** Psi4 exiting successfully. Buy a developer a beer!
