                               Psi4 1.3.2 release

  ==> Input File <==

--------------------------------------------------------------------------
#psi4
#
memory 32 gb

molecule  {
0 1
  O       -2.3851110    -0.4314350    -0.0002820
  N        2.5319443    -0.1963104     0.0428224
  C       -0.0130310    -0.3414550     0.0003300
  C        1.2524210     0.5177120    -0.0001190
  C       -1.2862700     0.4819960     0.0000880
  H       -0.0208770    -0.9936910    -0.8809850
  H       -0.0206570    -0.9930790     0.8820930
  H        1.2550010     1.1745560     0.8775860
  H        1.2546990     1.1740390    -0.8782090
  H       -1.3125800     1.1321620    -0.8873520
  H       -1.3130830     1.1320500     0.8875860
  H        2.5458240    -0.8359140    -0.8127320
  H        2.5461020    -0.8354320     0.8128620
  H       -3.2031750     0.0928130     0.0003940
units angstrom
no_reorient  #important for SAPT in psi4, default
symmetry c1  #important for SAPT in psi4, default
}

set PROPERTIES_ORIGIN ["COM"]
properties('MP2/aug-cc-pvtz', properties = ['dipole'])
--------------------------------------------------------------------------

    Molecular point group: c1
  Charge       = 0
  Multiplicity = 1
  Basis Set: AUG-CC-PVTZ
    Blend: AUG-CC-PVTZ
  Basis Set: (AUG-CC-PVTZ AUX)
    Blend: AUG-CC-PVTZ-JKFIT

    Orbital Energies [Eh]
    ---------------------

    Doubly Occupied:

       1A    -20.561935     2A    -15.546404     3A    -11.279446
       4A    -11.250124     5A    -11.220019     6A     -1.357870
       7A     -1.177383     8A     -1.032897     9A     -0.887127
      10A     -0.809579    11A     -0.693446    12A     -0.678581
      13A     -0.636832    14A     -0.596718    15A     -0.561633
      16A     -0.546768    17A     -0.534530    18A     -0.485972
      19A     -0.480385    20A     -0.447621    21A     -0.395921

  @DF-RHF Final Energy:  -248.23299730915102

   => Energetics <=

    Nuclear Repulsion Energy =            185.3518663077609006
    One-Electron Energy =                -704.8073482011814122
    Two-Electron Energy =                 271.2224845842694663
    Total Energy =                       -248.2329973091510169
  Basis Set: (AUG-CC-PVTZ AUX)
    Blend: AUG-CC-PVTZ-RI
    Molecular point group: c1

    Geometry (in Angstrom), charge = 0, multiplicity = 1:

       Center              X                  Y                   Z               Mass
    ------------   -----------------  -----------------  -----------------  -----------------
         O           -2.364964014097    -0.422177067680    -0.008274381423    15.994914619570
         N            2.552091285903    -0.187052467680     0.034830018577    14.003074004430
         C            0.007115985903    -0.332197067680    -0.007662381423    12.000000000000
         C            1.272567985903     0.526969932320    -0.008111381423    12.000000000000
         C           -1.266123014097     0.491253932320    -0.007904381423    12.000000000000
         H           -0.000730014097    -0.984433067680    -0.888977381423     1.007825032230
         H           -0.000510014097    -0.983821067680     0.874100618577     1.007825032230
         H            1.275147985903     1.183813932320     0.869593618577     1.007825032230
         H            1.274845985903     1.183296932320    -0.886201381423     1.007825032230
         H           -1.292433014097     1.141419932320    -0.895344381423     1.007825032230
         H           -1.292936014097     1.141307932320     0.879593618577     1.007825032230
         H            2.565970985903    -0.826656067680    -0.820724381423     1.007825032230
         H            2.566248985903    -0.826174067680     0.804869618577     1.007825032230
         H           -3.183028014097     0.102070932320    -0.007598381423     1.007825032230

  Basis Set: AUG-CC-PVTZ
    Blend: AUG-CC-PVTZ
  Basis Set: (AUG-CC-PVTZ AUX)
    Blend: AUG-CC-PVTZ-JKFIT
	 Reference Energy          =    -248.2329973091510169 [Eh]
	 Singles Energy            =      -0.0000000000000000 [Eh]
	 Same-Spin Energy          =      -0.2483775453622971 [Eh]
	 Opposite-Spin Energy      =      -0.8461869276211099 [Eh]
	 Correlation Energy        =      -1.0945644729834070 [Eh]
	 Total Energy              =    -249.3275617821344099 [Eh]

	 ================> DF-SCS-MP2 Energies <==================
	-----------------------------------------------------------
	 SCS Same-Spin Scale       =       0.3333333333333333 [-]
	 SCS Opposite-Spin Scale   =       1.2000000000000000 [-]
	 SCS Same-Spin Energy      =      -0.0827925151207657 [Eh]
	 SCS Opposite-Spin Energy  =      -1.0154243131453318 [Eh]
	 SCS Correlation Energy    =      -1.0982168282660973 [Eh]
	 SCS Total Energy          =    -249.3312141374171063 [Eh]
	-----------------------------------------------------------

  Dipole Moment: [D]
     X:    -1.2214      Y:     0.6769      Z:    -0.0443     Total:     1.3971

*** Psi4 exiting successfully. Buy a developer a beer!
