                               Psi4 1.3.2 release

  ==> Input File <==

--------------------------------------------------------------------------
#psi4
#
memory 32 gb

molecule  {
0 1
  O       -2.3851110    -0.4314350    -0.0002820
  N        2.5187010    -0.2207910    -0.0001120
  C       -0.0130310    -0.3414550     0.0003300
  C        1.2524210     0.5177120    -0.0001190
  C       -1.3631702     0.4180714     0.0000621
  H       -0.0208770    -0.9936910    -0.8809850
  H       -0.0206570    -0.9930790     0.8820930
  H        1.2550010     1.1745560     0.8775860
  H        1.2546990     1.1740390    -0.8782090
  H       -1.3125800     1.1321620    -0.8873520
  H       -1.3130830     1.1320500     0.8875860
  H        2.5458240    -0.8359140    -0.8127320
  H        2.5461020    -0.8354320     0.8128620
  H       -3.2031750     0.0928130     0.0003940
units angstrom
no_reorient  #important for SAPT in psi4, default
symmetry c1  #important for SAPT in psi4, default
}

set PROPERTIES_ORIGIN ["COM"]
properties('MP2/aug-cc-pvtz', properties = ['dipole'])
--------------------------------------------------------------------------

    Molecular point group: c1
  Charge       = 0
  Multiplicity = 1
  Basis Set: AUG-CC-PVTZ
    Blend: AUG-CC-PVTZ
  Basis Set: (AUG-CC-PVTZ AUX)
    Blend: AUG-CC-PVTZ-JKFIT

    Orbital Energies [Eh]
    ---------------------

    Doubly Occupied:

       1A    -20.572512     2A    -15.541132     3A    -11.282558
       4A    -11.248929     5A    -11.217668     6A     -1.403193
       7A     -1.177035     8A     -1.022474     9A     -0.886103
      10A     -0.803985    11A     -0.721484    12A     -0.679086
      13A     -0.641512    14A     -0.610849    15A     -0.571472
      16A     -0.555649    17A     -0.536350    18A     -0.482106
      19A     -0.463960    20A     -0.430139    21A     -0.391601

  @DF-RHF Final Energy:  -248.22749246587202

   => Energetics <=

    Nuclear Repulsion Energy =            186.0725068075201705
    One-Electron Energy =                -706.1204049486365193
    Two-Electron Energy =                 271.8204056752443307
    Total Energy =                       -248.2274924658719897
  Basis Set: (AUG-CC-PVTZ AUX)
    Blend: AUG-CC-PVTZ-RI
    Molecular point group: c1

    Geometry (in Angstrom), charge = 0, multiplicity = 1:

       Center              X                  Y                   Z               Mass
    ------------   -----------------  -----------------  -----------------  -----------------
         O           -2.350200823400    -0.407391903114    -0.000261365706    15.994914619570
         N            2.553611176600    -0.196747903114    -0.000091365706    14.003074004430
         C            0.021879176600    -0.317411903114     0.000350634294    12.000000000000
         C            1.287331176600     0.541755096886    -0.000098365706    12.000000000000
         C           -1.328260023400     0.442114496886     0.000082734294    12.000000000000
         H            0.014033176600    -0.969647903114    -0.880964365706     1.007825032230
         H            0.014253176600    -0.969035903114     0.882113634294     1.007825032230
         H            1.289911176600     1.198599096886     0.877606634294     1.007825032230
         H            1.289609176600     1.198082096886    -0.878188365706     1.007825032230
         H           -1.277669823400     1.156205096886    -0.887331365706     1.007825032230
         H           -1.278172823400     1.156093096886     0.887606634294     1.007825032230
         H            2.580734176600    -0.811870903114    -0.812711365706     1.007825032230
         H            2.581012176600    -0.811388903114     0.812882634294     1.007825032230
         H           -3.168264823400     0.116856096886     0.000414634294     1.007825032230

  Basis Set: AUG-CC-PVTZ
    Blend: AUG-CC-PVTZ
  Basis Set: (AUG-CC-PVTZ AUX)
    Blend: AUG-CC-PVTZ-JKFIT
	 Reference Energy          =    -248.2274924658720181 [Eh]
	 Singles Energy            =      -0.0000000000000000 [Eh]
	 Same-Spin Energy          =      -0.2482206216586925 [Eh]
	 Opposite-Spin Energy      =      -0.8443753358867463 [Eh]
	 Correlation Energy        =      -1.0925959575454387 [Eh]
	 Total Energy              =    -249.3200884234174453 [Eh]

	 ================> DF-SCS-MP2 Energies <==================
	-----------------------------------------------------------
	 SCS Same-Spin Scale       =       0.3333333333333333 [-]
	 SCS Opposite-Spin Scale   =       1.2000000000000000 [-]
	 SCS Same-Spin Energy      =      -0.0827402072195642 [Eh]
	 SCS Opposite-Spin Energy  =      -1.0132504030640954 [Eh]
	 SCS Correlation Energy    =      -1.0959906102836596 [Eh]
	 SCS Total Energy          =    -249.3234830761556680 [Eh]
	-----------------------------------------------------------

  Dipole Moment: [D]
     X:    -1.5241      Y:     0.4713      Z:     0.0018     Total:     1.5953

*** Psi4 exiting successfully. Buy a developer a beer!
