                               Psi4 1.3.2 release

  ==> Input File <==

--------------------------------------------------------------------------
#psi4
#
memory 32 gb

molecule  {
0 1
  O       -2.3851110    -0.4314350    -0.0002820
  N        2.4345696    -0.3491077    -0.0000618
  C       -0.0130310    -0.3414550     0.0003300
  C        1.2524210     0.5177120    -0.0001190
  C       -1.2862700     0.4819960     0.0000880
  H       -0.0208770    -0.9936910    -0.8809850
  H       -0.0206570    -0.9930790     0.8820930
  H        1.2550010     1.1745560     0.8775860
  H        1.2546990     1.1740390    -0.8782090
  H       -1.3125800     1.1321620    -0.8873520
  H       -1.3130830     1.1320500     0.8875860
  H        2.5458240    -0.8359140    -0.8127320
  H        2.5461020    -0.8354320     0.8128620
  H       -3.2031750     0.0928130     0.0003940
units angstrom
no_reorient  #important for SAPT in psi4, default
symmetry c1  #important for SAPT in psi4, default
}

set PROPERTIES_ORIGIN ["COM"]
properties('MP2/aug-cc-pvtz', properties = ['dipole'])
--------------------------------------------------------------------------

    Molecular point group: c1
  Charge       = 0
  Multiplicity = 1
  Basis Set: AUG-CC-PVTZ
    Blend: AUG-CC-PVTZ
  Basis Set: (AUG-CC-PVTZ AUX)
    Blend: AUG-CC-PVTZ-JKFIT

    Orbital Energies [Eh]
    ---------------------

    Doubly Occupied:

       1A    -20.558842     2A    -15.520410     3A    -11.274786
       4A    -11.250980     5A    -11.213790     6A     -1.354699
       7A     -1.186056     8A     -1.031487     9A     -0.891351
      10A     -0.806728    11A     -0.704907    12A     -0.689622
      13A     -0.646998    14A     -0.604386    15A     -0.559557
      16A     -0.550951    17A     -0.537348    18A     -0.485191
      19A     -0.483840    20A     -0.444507    21A     -0.373053

  @DF-RHF Final Energy:  -248.23051710525564

   => Energetics <=

    Nuclear Repulsion Energy =            186.6105283949836746
    One-Electron Energy =                -707.3431126980590307
    Two-Electron Energy =                 272.5020671978196560
    Total Energy =                       -248.2305171052556716
  Basis Set: (AUG-CC-PVTZ AUX)
    Blend: AUG-CC-PVTZ-RI
    Molecular point group: c1

    Geometry (in Angstrom), charge = 0, multiplicity = 1:

       Center              X                  Y                   Z               Mass
    ------------   -----------------  -----------------  -----------------  -----------------
         O           -2.346799981328    -0.393674641853    -0.000274870112    15.994914619570
         N            2.472880618672    -0.311347341853    -0.000054670112    14.003074004430
         C            0.025280018672    -0.303694641853     0.000337129888    12.000000000000
         C            1.290732018672     0.555472358147    -0.000111870112    12.000000000000
         C           -1.247958981328     0.519756358147     0.000095129888    12.000000000000
         H            0.017434018672    -0.955930641853    -0.880977870112     1.007825032230
         H            0.017654018672    -0.955318641853     0.882100129888     1.007825032230
         H            1.293312018672     1.212316358147     0.877593129888     1.007825032230
         H            1.293010018672     1.211799358147    -0.878201870112     1.007825032230
         H           -1.274268981328     1.169922358147    -0.887344870112     1.007825032230
         H           -1.274771981328     1.169810358147     0.887593129888     1.007825032230
         H            2.584135018672    -0.798153641853    -0.812724870112     1.007825032230
         H            2.584413018672    -0.797671641853     0.812869129888     1.007825032230
         H           -3.164863981328     0.130573358147     0.000401129888     1.007825032230

  Basis Set: AUG-CC-PVTZ
    Blend: AUG-CC-PVTZ
  Basis Set: (AUG-CC-PVTZ AUX)
    Blend: AUG-CC-PVTZ-JKFIT
	 Reference Energy          =    -248.2305171052556432 [Eh]
	 Singles Energy            =      -0.0000000000000000 [Eh]
	 Same-Spin Energy          =      -0.2477848406103417 [Eh]
	 Opposite-Spin Energy      =      -0.8432989242026632 [Eh]
	 Correlation Energy        =      -1.0910837648130047 [Eh]
	 Total Energy              =    -249.3216008700686359 [Eh]

	 ================> DF-SCS-MP2 Energies <==================
	-----------------------------------------------------------
	 SCS Same-Spin Scale       =       0.3333333333333333 [-]
	 SCS Opposite-Spin Scale   =       1.2000000000000000 [-]
	 SCS Same-Spin Energy      =      -0.0825949468701139 [Eh]
	 SCS Opposite-Spin Energy  =      -1.0119587090431958 [Eh]
	 SCS Correlation Energy    =      -1.0945536559133098 [Eh]
	 SCS Total Energy          =    -249.3250707611689450 [Eh]
	-----------------------------------------------------------

  Dipole Moment: [D]
     X:    -0.8241      Y:     0.9717      Z:     0.0017     Total:     1.2741

*** Psi4 exiting successfully. Buy a developer a beer!
