                               Psi4 1.3.2 release

  ==> Input File <==

--------------------------------------------------------------------------
#psi4
#
memory 32 gb

molecule  {
0 1
  O       -2.3851110    -0.4314350    -0.0002820
  N        2.5187010    -0.2207910    -0.0001120
  C       -0.0130310    -0.3414550     0.0003300
  C        1.2456889     0.5057254    -0.0216959
  C       -1.2862700     0.4819960     0.0000880
  H       -0.0208770    -0.9936910    -0.8809850
  H       -0.0206570    -0.9930790     0.8820930
  H        1.2550010     1.1745560     0.8775860
  H        1.2546990     1.1740390    -0.8782090
  H       -1.3125800     1.1321620    -0.8873520
  H       -1.3130830     1.1320500     0.8875860
  H        2.5458240    -0.8359140    -0.8127320
  H        2.5461020    -0.8354320     0.8128620
  H       -3.2031750     0.0928130     0.0003940
units angstrom
no_reorient  #important for SAPT in psi4, default
symmetry c1  #important for SAPT in psi4, default
}

set PROPERTIES_ORIGIN ["COM"]
properties('MP2/aug-cc-pvtz', properties = ['dipole'])
--------------------------------------------------------------------------

    Molecular point group: c1
  Charge       = 0
  Multiplicity = 1
  Basis Set: AUG-CC-PVTZ
    Blend: AUG-CC-PVTZ
  Basis Set: (AUG-CC-PVTZ AUX)
    Blend: AUG-CC-PVTZ-JKFIT

    Orbital Energies [Eh]
    ---------------------

    Doubly Occupied:

       1A    -20.561726     2A    -15.542192     3A    -11.279153
       4A    -11.250563     5A    -11.218932     6A     -1.357659
       7A     -1.179264     8A     -1.034330     9A     -0.887718
      10A     -0.808697    11A     -0.693202    12A     -0.681277
      13A     -0.639393    14A     -0.597908    15A     -0.559993
      16A     -0.550746    17A     -0.536228    18A     -0.486059
      19A     -0.477812    20A     -0.447401    21A     -0.393950

  @DF-RHF Final Energy:  -248.23578964995266

   => Energetics <=

    Nuclear Repulsion Energy =            185.6651806321651463
    One-Electron Energy =                -705.4335354581779711
    Two-Electron Energy =                 271.5325651760601318
    Total Energy =                       -248.2357896499526646
  Basis Set: (AUG-CC-PVTZ AUX)
    Blend: AUG-CC-PVTZ-RI
    Molecular point group: c1

    Geometry (in Angstrom), charge = 0, multiplicity = 1:

       Center              X                  Y                   Z               Mass
    ------------   -----------------  -----------------  -----------------  -----------------
         O           -2.361417487721    -0.415694409687     0.003183651799    15.994914619570
         N            2.542394512279    -0.205050409687     0.003353651799    14.003074004430
         C            0.010662512279    -0.325714409687     0.003795651799    12.000000000000
         C            1.269382412279     0.521465990313    -0.018230248201    12.000000000000
         C           -1.262576487721     0.497736590313     0.003553651799    12.000000000000
         H            0.002816512279    -0.977950409687    -0.877519348201     1.007825032230
         H            0.003036512279    -0.977338409687     0.885558651799     1.007825032230
         H            1.278694512279     1.190296590313     0.881051651799     1.007825032230
         H            1.278392512279     1.189779590313    -0.874743348201     1.007825032230
         H           -1.288886487721     1.147902590313    -0.883886348201     1.007825032230
         H           -1.289389487721     1.147790590313     0.891051651799     1.007825032230
         H            2.569517512279    -0.820173409687    -0.809266348201     1.007825032230
         H            2.569795512279    -0.819691409687     0.816327651799     1.007825032230
         H           -3.179481487721     0.108553590313     0.003859651799     1.007825032230

  Basis Set: AUG-CC-PVTZ
    Blend: AUG-CC-PVTZ
  Basis Set: (AUG-CC-PVTZ AUX)
    Blend: AUG-CC-PVTZ-JKFIT
	 Reference Energy          =    -248.2357896499526646 [Eh]
	 Singles Energy            =      -0.0000000000000000 [Eh]
	 Same-Spin Energy          =      -0.2482928944915137 [Eh]
	 Opposite-Spin Energy      =      -0.8456047964751561 [Eh]
	 Correlation Energy        =      -1.0938976909666698 [Eh]
	 Total Energy              =    -249.3296873409193211 [Eh]

	 ================> DF-SCS-MP2 Energies <==================
	-----------------------------------------------------------
	 SCS Same-Spin Scale       =       0.3333333333333333 [-]
	 SCS Opposite-Spin Scale   =       1.2000000000000000 [-]
	 SCS Same-Spin Energy      =      -0.0827642981638379 [Eh]
	 SCS Opposite-Spin Energy  =      -1.0147257557701872 [Eh]
	 SCS Correlation Energy    =      -1.0974900539340251 [Eh]
	 SCS Total Energy          =    -249.3332797038866886 [Eh]
	-----------------------------------------------------------

  Dipole Moment: [D]
     X:    -1.1797      Y:     0.6953      Z:    -0.0176     Total:     1.3695

*** Psi4 exiting successfully. Buy a developer a beer!
