                               Psi4 1.3.2 release

  ==> Input File <==

--------------------------------------------------------------------------
#psi4
#
memory 32 gb

molecule  {
0 1
  O       -2.3851110    -0.4314350    -0.0002820
  N        2.4876042    -0.2670242    -0.0859285
  C       -0.0130310    -0.3414550     0.0003300
  C        1.2524210     0.5177120    -0.0001190
  C       -1.2862700     0.4819960     0.0000880
  H       -0.0208770    -0.9936910    -0.8809850
  H       -0.0206570    -0.9930790     0.8820930
  H        1.2550010     1.1745560     0.8775860
  H        1.2546990     1.1740390    -0.8782090
  H       -1.3125800     1.1321620    -0.8873520
  H       -1.3130830     1.1320500     0.8875860
  H        2.5458240    -0.8359140    -0.8127320
  H        2.5461020    -0.8354320     0.8128620
  H       -3.2031750     0.0928130     0.0003940
units angstrom
no_reorient  #important for SAPT in psi4, default
symmetry c1  #important for SAPT in psi4, default
}

set PROPERTIES_ORIGIN ["COM"]
properties('MP2/aug-cc-pvtz', properties = ['dipole'])
--------------------------------------------------------------------------

    Molecular point group: c1
  Charge       = 0
  Multiplicity = 1
  Basis Set: AUG-CC-PVTZ
    Blend: AUG-CC-PVTZ
  Basis Set: (AUG-CC-PVTZ AUX)
    Blend: AUG-CC-PVTZ-JKFIT

    Orbital Energies [Eh]
    ---------------------

    Doubly Occupied:

       1A    -20.560666     2A    -15.533353     3A    -11.277543
       4A    -11.251065     5A    -11.217326     6A     -1.356571
       7A     -1.183307     8A     -1.033129     9A     -0.891225
      10A     -0.809375    11A     -0.693817    12A     -0.685461
      13A     -0.644310    14A     -0.601193    15A     -0.563813
      16A     -0.545013    17A     -0.536373    18A     -0.487315
      19A     -0.480187    20A     -0.446366    21A     -0.385267

  @DF-RHF Final Energy:  -248.22646301143641

   => Energetics <=

    Nuclear Repulsion Energy =            185.9604445149342666
    One-Electron Energy =                -706.0084645242254737
    Two-Electron Energy =                 271.8215569978548274
    Total Energy =                       -248.2264630114364081
  Basis Set: (AUG-CC-PVTZ AUX)
    Blend: AUG-CC-PVTZ-RI
    Molecular point group: c1

    Geometry (in Angstrom), charge = 0, multiplicity = 1:

       Center              X                  Y                   Z               Mass
    ------------   -----------------  -----------------  -----------------  -----------------
         O           -2.356692922845    -0.408986292454     0.015742489146    15.994914619570
         N            2.516022277155    -0.244575492454    -0.069904010854    14.003074004430
         C            0.015387077155    -0.319006292454     0.016354489146    12.000000000000
         C            1.280839077155     0.540160707546     0.015905489146    12.000000000000
         C           -1.257851922845     0.504444707546     0.016112489146    12.000000000000
         H            0.007541077155    -0.971242292454    -0.864960510854     1.007825032230
         H            0.007761077155    -0.970630292454     0.898117489146     1.007825032230
         H            1.283419077155     1.197004707546     0.893610489146     1.007825032230
         H            1.283117077155     1.196487707546    -0.862184510854     1.007825032230
         H           -1.284161922845     1.154610707546    -0.871327510854     1.007825032230
         H           -1.284664922845     1.154498707546     0.903610489146     1.007825032230
         H            2.574242077155    -0.813465292454    -0.796707510854     1.007825032230
         H            2.574520077155    -0.812983292454     0.828886489146     1.007825032230
         H           -3.174756922845     0.115261707546     0.016418489146     1.007825032230

  Basis Set: AUG-CC-PVTZ
    Blend: AUG-CC-PVTZ
  Basis Set: (AUG-CC-PVTZ AUX)
    Blend: AUG-CC-PVTZ-JKFIT
	 Reference Energy          =    -248.2264630114364081 [Eh]
	 Singles Energy            =      -0.0000000000000000 [Eh]
	 Same-Spin Energy          =      -0.2479978647728567 [Eh]
	 Opposite-Spin Energy      =      -0.8447540826594261 [Eh]
	 Correlation Energy        =      -1.0927519474322829 [Eh]
	 Total Energy              =    -249.3192149588686846 [Eh]

	 ================> DF-SCS-MP2 Energies <==================
	-----------------------------------------------------------
	 SCS Same-Spin Scale       =       0.3333333333333333 [-]
	 SCS Opposite-Spin Scale   =       1.2000000000000000 [-]
	 SCS Same-Spin Energy      =      -0.0826659549242856 [Eh]
	 SCS Opposite-Spin Energy  =      -1.0137048991913113 [Eh]
	 SCS Correlation Energy    =      -1.0963708541155970 [Eh]
	 SCS Total Energy          =    -249.3228338655520133 [Eh]
	-----------------------------------------------------------

  Dipole Moment: [D]
     X:    -1.0722      Y:     0.8032      Z:     0.1119     Total:     1.3443

*** Psi4 exiting successfully. Buy a developer a beer!
