                               Psi4 1.3.2 release

  ==> Input File <==

--------------------------------------------------------------------------
#psi4
#
memory 32 gb

molecule  {
0 1
  O       -2.3690021    -0.4504733    -0.0002798
  N        2.5187010    -0.2207910    -0.0001120
  C       -0.0130310    -0.3414550     0.0003300
  C        1.2524210     0.5177120    -0.0001190
  C       -1.2862700     0.4819960     0.0000880
  H       -0.0208770    -0.9936910    -0.8809850
  H       -0.0206570    -0.9930790     0.8820930
  H        1.2550010     1.1745560     0.8775860
  H        1.2546990     1.1740390    -0.8782090
  H       -1.3125800     1.1321620    -0.8873520
  H       -1.3130830     1.1320500     0.8875860
  H        2.5458240    -0.8359140    -0.8127320
  H        2.5461020    -0.8354320     0.8128620
  H       -3.2031750     0.0928130     0.0003940
units angstrom
no_reorient  #important for SAPT in psi4, default
symmetry c1  #important for SAPT in psi4, default
}

set PROPERTIES_ORIGIN ["COM"]
properties('MP2/aug-cc-pvtz', properties = ['dipole'])
--------------------------------------------------------------------------

    Molecular point group: c1
  Charge       = 0
  Multiplicity = 1
  Basis Set: AUG-CC-PVTZ
    Blend: AUG-CC-PVTZ
  Basis Set: (AUG-CC-PVTZ AUX)
    Blend: AUG-CC-PVTZ-JKFIT

    Orbital Energies [Eh]
    ---------------------

    Doubly Occupied:

       1A    -20.564605     2A    -15.541379     3A    -11.278492
       4A    -11.249542     5A    -11.218325     6A     -1.353741
       7A     -1.178098     8A     -1.031341     9A     -0.886046
      10A     -0.808891    11A     -0.687719    12A     -0.681278
      13A     -0.639178    14A     -0.597022    15A     -0.556718
      16A     -0.550186    17A     -0.535645    18A     -0.485371
      19A     -0.482158    20A     -0.447730    21A     -0.391336

  @DF-RHF Final Energy:  -248.23429085309095

   => Energetics <=

    Nuclear Repulsion Energy =            185.5639332840305258
    One-Electron Energy =                -705.2668451980648570
    Two-Electron Energy =                 271.4686210609433488
    Total Energy =                       -248.2342908530909540
  Basis Set: (AUG-CC-PVTZ AUX)
    Blend: AUG-CC-PVTZ-RI
    Molecular point group: c1

    Geometry (in Angstrom), charge = 0, multiplicity = 1:

       Center              X                  Y                   Z               Mass
    ------------   -----------------  -----------------  -----------------  -----------------
         O           -2.349817084204    -0.432592305027    -0.000263774686    15.994914619570
         N            2.537886015796    -0.202910005027    -0.000095974686    14.003074004430
         C            0.006154015796    -0.323574005027     0.000346025314    12.000000000000
         C            1.271606015796     0.535592994973    -0.000102974686    12.000000000000
         C           -1.267084984204     0.499876994973     0.000104025314    12.000000000000
         H           -0.001691984204    -0.975810005027    -0.880968974686     1.007825032230
         H           -0.001471984204    -0.975198005027     0.882109025314     1.007825032230
         H            1.274186015796     1.192436994973     0.877602025314     1.007825032230
         H            1.273884015796     1.191919994973    -0.878192974686     1.007825032230
         H           -1.293394984204     1.150042994973    -0.887335974686     1.007825032230
         H           -1.293897984204     1.149930994973     0.887602025314     1.007825032230
         H            2.565009015796    -0.818033005027    -0.812715974686     1.007825032230
         H            2.565287015796    -0.817551005027     0.812878025314     1.007825032230
         H           -3.183989984204     0.110693994973     0.000410025314     1.007825032230

  Basis Set: AUG-CC-PVTZ
    Blend: AUG-CC-PVTZ
  Basis Set: (AUG-CC-PVTZ AUX)
    Blend: AUG-CC-PVTZ-JKFIT
	 Reference Energy          =    -248.2342908530909540 [Eh]
	 Singles Energy            =      -0.0000000000000000 [Eh]
	 Same-Spin Energy          =      -0.2485489799039411 [Eh]
	 Opposite-Spin Energy      =      -0.8463835444664556 [Eh]
	 Correlation Energy        =      -1.0949325243703967 [Eh]
	 Total Energy              =    -249.3292233774613464 [Eh]

	 ================> DF-SCS-MP2 Energies <==================
	-----------------------------------------------------------
	 SCS Same-Spin Scale       =       0.3333333333333333 [-]
	 SCS Opposite-Spin Scale   =       1.2000000000000000 [-]
	 SCS Same-Spin Energy      =      -0.0828496599679804 [Eh]
	 SCS Opposite-Spin Energy  =      -1.0156602533597467 [Eh]
	 SCS Correlation Energy    =      -1.0985099133277272 [Eh]
	 SCS Total Energy          =    -249.3328007664186714 [Eh]
	-----------------------------------------------------------

  Dipole Moment: [D]
     X:    -1.2110      Y:     0.7333      Z:     0.0018     Total:     1.4157

*** Psi4 exiting successfully. Buy a developer a beer!
