                               Psi4 1.3.2 release

  ==> Input File <==

--------------------------------------------------------------------------
#psi4
#
memory 32 gb

molecule  {
0 1
  O       -2.3851110    -0.4314350    -0.0002820
  N        2.5039150    -0.2443718    -0.0430464
  C       -0.0130310    -0.3414550     0.0003300
  C        1.2524210     0.5177120    -0.0001190
  C       -1.2862700     0.4819960     0.0000880
  H       -0.0208770    -0.9936910    -0.8809850
  H       -0.0206570    -0.9930790     0.8820930
  H        1.2550010     1.1745560     0.8775860
  H        1.2546990     1.1740390    -0.8782090
  H       -1.3125800     1.1321620    -0.8873520
  H       -1.3130830     1.1320500     0.8875860
  H        2.5458240    -0.8359140    -0.8127320
  H        2.5461020    -0.8354320     0.8128620
  H       -3.2031750     0.0928130     0.0003940
units angstrom
no_reorient  #important for SAPT in psi4, default
symmetry c1  #important for SAPT in psi4, default
}

set PROPERTIES_ORIGIN ["COM"]
properties('MP2/aug-cc-pvtz', properties = ['dipole'])
--------------------------------------------------------------------------

    Molecular point group: c1
  Charge       = 0
  Multiplicity = 1
  Basis Set: AUG-CC-PVTZ
    Blend: AUG-CC-PVTZ
  Basis Set: (AUG-CC-PVTZ AUX)
    Blend: AUG-CC-PVTZ-JKFIT

    Orbital Energies [Eh]
    ---------------------

    Doubly Occupied:

       1A    -20.561057     2A    -15.537424     3A    -11.278142
       4A    -11.250373     5A    -11.218135     6A     -1.356972
       7A     -1.180447     8A     -1.032680     9A     -0.888916
      10A     -0.809047    11A     -0.692644    12A     -0.684160
      13A     -0.641693    14A     -0.598941    15A     -0.560012
      16A     -0.549357    17A     -0.536479    18A     -0.486053
      19A     -0.482072    20A     -0.446748    21A     -0.388508

  @DF-RHF Final Energy:  -248.23495840048648

   => Energetics <=

    Nuclear Repulsion Energy =            185.7413344699401989
    One-Electron Energy =                -705.5928645764907969
    Two-Electron Energy =                 271.6165717060641782
    Total Energy =                       -248.2349584004864482
  Basis Set: (AUG-CC-PVTZ AUX)
    Blend: AUG-CC-PVTZ-RI
    Molecular point group: c1

    Geometry (in Angstrom), charge = 0, multiplicity = 1:

       Center              X                  Y                   Z               Mass
    ------------   -----------------  -----------------  -----------------  -----------------
         O           -2.359735498644    -0.413211814442     0.007743369564    15.994914619570
         N            2.529290501356    -0.226148614442    -0.035021030436    14.003074004430
         C            0.012344501356    -0.323231814442     0.008355369564    12.000000000000
         C            1.277796501356     0.535935185558     0.007906369564    12.000000000000
         C           -1.260894498644     0.500219185558     0.008113369564    12.000000000000
         H            0.004498501356    -0.975467814442    -0.872959630436     1.007825032230
         H            0.004718501356    -0.974855814442     0.890118369564     1.007825032230
         H            1.280376501356     1.192779185558     0.885611369564     1.007825032230
         H            1.280074501356     1.192262185558    -0.870183630436     1.007825032230
         H           -1.287204498644     1.150385185558    -0.879326630436     1.007825032230
         H           -1.287707498644     1.150273185558     0.895611369564     1.007825032230
         H            2.571199501356    -0.817690814442    -0.804706630436     1.007825032230
         H            2.571477501356    -0.817208814442     0.820887369564     1.007825032230
         H           -3.177799498644     0.111036185558     0.008419369564     1.007825032230

  Basis Set: AUG-CC-PVTZ
    Blend: AUG-CC-PVTZ
  Basis Set: (AUG-CC-PVTZ AUX)
    Blend: AUG-CC-PVTZ-JKFIT
	 Reference Energy          =    -248.2349584004864766 [Eh]
	 Singles Energy            =      -0.0000000000000000 [Eh]
	 Same-Spin Energy          =      -0.2480573170812226 [Eh]
	 Opposite-Spin Energy      =      -0.8449663346034528 [Eh]
	 Correlation Energy        =      -1.0930236516846754 [Eh]
	 Total Energy              =    -249.3279820521711656 [Eh]

	 ================> DF-SCS-MP2 Energies <==================
	-----------------------------------------------------------
	 SCS Same-Spin Scale       =       0.3333333333333333 [-]
	 SCS Opposite-Spin Scale   =       1.2000000000000000 [-]
	 SCS Same-Spin Energy      =      -0.0826857723604075 [Eh]
	 SCS Opposite-Spin Energy  =      -1.0139596015241434 [Eh]
	 SCS Correlation Energy    =      -1.0966453738845510 [Eh]
	 SCS Total Energy          =    -249.3316037743710183 [Eh]
	-----------------------------------------------------------

  Dipole Moment: [D]
     X:    -1.1198      Y:     0.7541      Z:     0.0542     Total:     1.3511

*** Psi4 exiting successfully. Buy a developer a beer!
