                               Psi4 1.3.2 release

  ==> Input File <==

--------------------------------------------------------------------------
#psi4
#
memory 32 gb

molecule  {
0 1
  O       -2.3851110    -0.4314350    -0.0002820
  N        2.5187010    -0.2207910    -0.0001120
  C       -0.0130310    -0.3414550     0.0003300
  C        1.2831844     0.5633735     0.0861227
  C       -1.2862700     0.4819960     0.0000880
  H       -0.0208770    -0.9936910    -0.8809850
  H       -0.0206570    -0.9930790     0.8820930
  H        1.2550010     1.1745560     0.8775860
  H        1.2546990     1.1740390    -0.8782090
  H       -1.3125800     1.1321620    -0.8873520
  H       -1.3130830     1.1320500     0.8875860
  H        2.5458240    -0.8359140    -0.8127320
  H        2.5461020    -0.8354320     0.8128620
  H       -3.2031750     0.0928130     0.0003940
units angstrom
no_reorient  #important for SAPT in psi4, default
symmetry c1  #important for SAPT in psi4, default
}

set PROPERTIES_ORIGIN ["COM"]
properties('MP2/aug-cc-pvtz', properties = ['dipole'])
--------------------------------------------------------------------------

    Molecular point group: c1
  Charge       = 0
  Multiplicity = 1
  Basis Set: AUG-CC-PVTZ
    Blend: AUG-CC-PVTZ
  Basis Set: (AUG-CC-PVTZ AUX)
    Blend: AUG-CC-PVTZ-JKFIT

    Orbital Energies [Eh]
    ---------------------

    Doubly Occupied:

       1A    -20.560497     2A    -15.541152     3A    -11.277360
       4A    -11.250186     5A    -11.220199     6A     -1.356408
       7A     -1.176418     8A     -1.026289     9A     -0.890143
      10A     -0.812149    11A     -0.692358    12A     -0.680743
      13A     -0.639099    14A     -0.600015    15A     -0.562458
      16A     -0.546031    17A     -0.534378    18A     -0.495464
      19A     -0.476617    20A     -0.446141    21A     -0.383062

  @DF-RHF Final Energy:  -248.22455186682944

   => Energetics <=

    Nuclear Repulsion Energy =            184.9996257498355590
    One-Electron Energy =                -704.1140208574677217
    Two-Electron Energy =                 270.8898432408026906
    Total Energy =                       -248.2245518668294721
  Basis Set: (AUG-CC-PVTZ AUX)
    Blend: AUG-CC-PVTZ-RI
    Molecular point group: c1

    Geometry (in Angstrom), charge = 0, multiplicity = 1:

       Center              X                  Y                   Z               Mass
    ------------   -----------------  -----------------  -----------------  -----------------
         O           -2.367411300252    -0.424909699633    -0.014051602452    15.994914619570
         N            2.536400699748    -0.214265699633    -0.013881602452    14.003074004430
         C            0.004668699748    -0.334929699633    -0.013439602452    12.000000000000
         C            1.300884099748     0.569898800367     0.072353097548    12.000000000000
         C           -1.268570300252     0.488521300367    -0.013681602452    12.000000000000
         H           -0.003177300252    -0.987165699633    -0.894754602452     1.007825032230
         H           -0.002957300252    -0.986553699633     0.868323397548     1.007825032230
         H            1.272700699748     1.181081300367     0.863816397548     1.007825032230
         H            1.272398699748     1.180564300367    -0.891978602452     1.007825032230
         H           -1.294880300252     1.138687300367    -0.901121602452     1.007825032230
         H           -1.295383300252     1.138575300367     0.873816397548     1.007825032230
         H            2.563523699748    -0.829388699633    -0.826501602452     1.007825032230
         H            2.563801699748    -0.828906699633     0.799092397548     1.007825032230
         H           -3.185475300252     0.099338300367    -0.013375602452     1.007825032230

  Basis Set: AUG-CC-PVTZ
    Blend: AUG-CC-PVTZ
  Basis Set: (AUG-CC-PVTZ AUX)
    Blend: AUG-CC-PVTZ-JKFIT
	 Reference Energy          =    -248.2245518668294437 [Eh]
	 Singles Energy            =      -0.0000000000000000 [Eh]
	 Same-Spin Energy          =      -0.2480470091249676 [Eh]
	 Opposite-Spin Energy      =      -0.8456499118993425 [Eh]
	 Correlation Energy        =      -1.0936969210243102 [Eh]
	 Total Energy              =    -249.3182487878537472 [Eh]

	 ================> DF-SCS-MP2 Energies <==================
	-----------------------------------------------------------
	 SCS Same-Spin Scale       =       0.3333333333333333 [-]
	 SCS Opposite-Spin Scale   =       1.2000000000000000 [-]
	 SCS Same-Spin Energy      =      -0.0826823363749892 [Eh]
	 SCS Opposite-Spin Energy  =      -1.0147798942792110 [Eh]
	 SCS Correlation Energy    =      -1.0974622306542001 [Eh]
	 SCS Total Energy          =    -249.3220140974836454 [Eh]
	-----------------------------------------------------------

  Dipole Moment: [D]
     X:    -1.1167      Y:     0.7534      Z:     0.0689     Total:     1.3488

*** Psi4 exiting successfully. Buy a developer a beer!
