                               Psi4 1.3.2 release

  ==> Input File <==

--------------------------------------------------------------------------
#psi4
#
memory 32 gb

molecule  {
0 1
  O       -2.3851110    -0.4314350    -0.0002820
  N        2.5255165    -0.2086613     0.0213585
  C       -0.0130310    -0.3414550     0.0003300
  C        1.2524210     0.5177120    -0.0001190
  C       -1.2862700     0.4819960     0.0000880
  H       -0.0208770    -0.9936910    -0.8809850
  H       -0.0206570    -0.9930790     0.8820930
  H        1.2550010     1.1745560     0.8775860
  H        1.2546990     1.1740390    -0.8782090
  H       -1.3125800     1.1321620    -0.8873520
  H       -1.3130830     1.1320500     0.8875860
  H        2.5458240    -0.8359140    -0.8127320
  H        2.5461020    -0.8354320     0.8128620
  H       -3.2031750     0.0928130     0.0003940
units angstrom
no_reorient  #important for SAPT in psi4, default
symmetry c1  #important for SAPT in psi4, default
}

set PROPERTIES_ORIGIN ["COM"]
properties('MP2/aug-cc-pvtz', properties = ['dipole'])
--------------------------------------------------------------------------

    Molecular point group: c1
  Charge       = 0
  Multiplicity = 1
  Basis Set: AUG-CC-PVTZ
    Blend: AUG-CC-PVTZ
  Basis Set: (AUG-CC-PVTZ AUX)
    Blend: AUG-CC-PVTZ-JKFIT

    Orbital Energies [Eh]
    ---------------------

    Doubly Occupied:

       1A    -20.561704     2A    -15.544050     3A    -11.279108
       4A    -11.250056     5A    -11.219516     6A     -1.357634
       7A     -1.177852     8A     -1.032726     9A     -0.887279
      10A     -0.809303    11A     -0.693055    12A     -0.680057
      13A     -0.638052    14A     -0.596951    15A     -0.559633
      16A     -0.549020    17A     -0.535402    18A     -0.485400
      19A     -0.481858    20A     -0.447391    21A     -0.393958

  @DF-RHF Final Energy:  -248.23547252010033

   => Energetics <=

    Nuclear Repulsion Energy =            185.4439009920120895
    One-Electron Energy =                -704.9987377767602084
    Two-Electron Energy =                 271.3193642646477883
    Total Energy =                       -248.2354725201003021
  Basis Set: (AUG-CC-PVTZ AUX)
    Blend: AUG-CC-PVTZ-RI
    Molecular point group: c1

    Geometry (in Angstrom), charge = 0, multiplicity = 1:

       Center              X                  Y                   Z               Mass
    ------------   -----------------  -----------------  -----------------  -----------------
         O           -2.363764988377    -0.419873161714    -0.004270559250    15.994914619570
         N            2.546862511623    -0.197099461714     0.017369940750    14.003074004430
         C            0.008315011623    -0.329893161714    -0.003658559250    12.000000000000
         C            1.273767011623     0.529273838286    -0.004107559250    12.000000000000
         C           -1.264923988377     0.493557838286    -0.003900559250    12.000000000000
         H            0.000469011623    -0.982129161714    -0.884973559250     1.007825032230
         H            0.000689011623    -0.981517161714     0.878104440750     1.007825032230
         H            1.276347011623     1.186117838286     0.873597440750     1.007825032230
         H            1.276045011623     1.185600838286    -0.882197559250     1.007825032230
         H           -1.291233988377     1.143723838286    -0.891340559250     1.007825032230
         H           -1.291736988377     1.143611838286     0.883597440750     1.007825032230
         H            2.567170011623    -0.824352161714    -0.816720559250     1.007825032230
         H            2.567448011623    -0.823870161714     0.808873440750     1.007825032230
         H           -3.181828988377     0.104374838286    -0.003594559250     1.007825032230

  Basis Set: AUG-CC-PVTZ
    Blend: AUG-CC-PVTZ
  Basis Set: (AUG-CC-PVTZ AUX)
    Blend: AUG-CC-PVTZ-JKFIT
	 Reference Energy          =    -248.2354725201003305 [Eh]
	 Singles Energy            =      -0.0000000000000000 [Eh]
	 Same-Spin Energy          =      -0.2482745609743340 [Eh]
	 Opposite-Spin Energy      =      -0.8457871042842882 [Eh]
	 Correlation Energy        =      -1.0940616652586221 [Eh]
	 Total Energy              =    -249.3295341853589662 [Eh]

	 ================> DF-SCS-MP2 Energies <==================
	-----------------------------------------------------------
	 SCS Same-Spin Scale       =       0.3333333333333333 [-]
	 SCS Opposite-Spin Scale   =       1.2000000000000000 [-]
	 SCS Same-Spin Energy      =      -0.0827581869914447 [Eh]
	 SCS Opposite-Spin Energy  =      -1.0149445251411457 [Eh]
	 SCS Correlation Energy    =      -1.0977027121325904 [Eh]
	 SCS Total Energy          =    -249.3331752322329180 [Eh]
	-----------------------------------------------------------

  Dipole Moment: [D]
     X:    -1.1953      Y:     0.6937      Z:    -0.0220     Total:     1.3822

*** Psi4 exiting successfully. Buy a developer a beer!
