                               Psi4 1.3.2 release

  ==> Input File <==

--------------------------------------------------------------------------
#psi4
#
memory 32 gb

molecule  {
0 1
  O       -2.4745710    -0.3115710    -0.0002929
  N        2.5187010    -0.2207910    -0.0001120
  C       -0.0130310    -0.3414550     0.0003300
  C        1.2524210     0.5177120    -0.0001190
  C       -1.2862700     0.4819960     0.0000880
  H       -0.0208770    -0.9936910    -0.8809850
  H       -0.0206570    -0.9930790     0.8820930
  H        1.2550010     1.1745560     0.8775860
  H        1.2546990     1.1740390    -0.8782090
  H       -1.3125800     1.1321620    -0.8873520
  H       -1.3130830     1.1320500     0.8875860
  H        2.5458240    -0.8359140    -0.8127320
  H        2.5461020    -0.8354320     0.8128620
  H       -3.2031750     0.0928130     0.0003940
units angstrom
no_reorient  #important for SAPT in psi4, default
symmetry c1  #important for SAPT in psi4, default
}

set PROPERTIES_ORIGIN ["COM"]
properties('MP2/aug-cc-pvtz', properties = ['dipole'])
--------------------------------------------------------------------------

    Molecular point group: c1
  Charge       = 0
  Multiplicity = 1
  Basis Set: AUG-CC-PVTZ
    Blend: AUG-CC-PVTZ
  Basis Set: (AUG-CC-PVTZ AUX)
    Blend: AUG-CC-PVTZ-JKFIT

    Orbital Energies [Eh]
    ---------------------

    Doubly Occupied:

       1A    -20.540487     2A    -15.544311     3A    -11.282115
       4A    -11.253406     5A    -11.223794     6A     -1.386341
       7A     -1.181165     8A     -1.041572     9A     -0.900915
      10A     -0.813462    11A     -0.720392    12A     -0.683541
      13A     -0.640349    14A     -0.599885    15A     -0.569251
      16A     -0.554554    17A     -0.534650    18A     -0.486381
      19A     -0.480114    20A     -0.444665    21A     -0.396233

  @DF-RHF Final Energy:  -248.21899859902075

   => Energetics <=

    Nuclear Repulsion Energy =            185.5647563503291906
    One-Electron Energy =                -705.0123458514951835
    Two-Electron Energy =                 271.2285909021452426
    Total Energy =                       -248.2189985990207788
  Basis Set: (AUG-CC-PVTZ AUX)
    Blend: AUG-CC-PVTZ-RI
    Molecular point group: c1

    Geometry (in Angstrom), charge = 0, multiplicity = 1:

       Center              X                  Y                   Z               Mass
    ------------   -----------------  -----------------  -----------------  -----------------
         O           -2.432892295395    -0.323286080302    -0.000274083454    15.994914619570
         N            2.560379704605    -0.232506080302    -0.000093183454    14.003074004430
         C            0.028647704605    -0.353170080302     0.000348816546    12.000000000000
         C            1.294099704605     0.505996919698    -0.000100183454    12.000000000000
         C           -1.244591295395     0.470280919698     0.000106816546    12.000000000000
         H            0.020801704605    -1.005406080302    -0.880966183454     1.007825032230
         H            0.021021704605    -1.004794080302     0.882111816546     1.007825032230
         H            1.296679704605     1.162840919698     0.877604816546     1.007825032230
         H            1.296377704605     1.162323919698    -0.878190183454     1.007825032230
         H           -1.270901295395     1.120446919698    -0.887333183454     1.007825032230
         H           -1.271404295395     1.120334919698     0.887604816546     1.007825032230
         H            2.587502704605    -0.847629080302    -0.812713183454     1.007825032230
         H            2.587780704605    -0.847147080302     0.812880816546     1.007825032230
         H           -3.161496295395     0.081097919698     0.000412816546     1.007825032230

  Basis Set: AUG-CC-PVTZ
    Blend: AUG-CC-PVTZ
  Basis Set: (AUG-CC-PVTZ AUX)
    Blend: AUG-CC-PVTZ-JKFIT
	 Reference Energy          =    -248.2189985990207504 [Eh]
	 Singles Energy            =      -0.0000000000000000 [Eh]
	 Same-Spin Energy          =      -0.2463372487445017 [Eh]
	 Opposite-Spin Energy      =      -0.8409134235735609 [Eh]
	 Correlation Energy        =      -1.0872506723180626 [Eh]
	 Total Energy              =    -249.3062492713387996 [Eh]

	 ================> DF-SCS-MP2 Energies <==================
	-----------------------------------------------------------
	 SCS Same-Spin Scale       =       0.3333333333333333 [-]
	 SCS Opposite-Spin Scale   =       1.2000000000000000 [-]
	 SCS Same-Spin Energy      =      -0.0821124162481672 [Eh]
	 SCS Opposite-Spin Energy  =      -1.0090961082882730 [Eh]
	 SCS Correlation Energy    =      -1.0912085245364402 [Eh]
	 SCS Total Energy          =    -249.3102071235571771 [Eh]
	-----------------------------------------------------------

  Dipole Moment: [D]
     X:    -0.8811      Y:     0.5659      Z:     0.0020     Total:     1.0472

*** Psi4 exiting successfully. Buy a developer a beer!
