                               Psi4 1.3.2 release

  ==> Input File <==

--------------------------------------------------------------------------
#psi4
#
memory 32 gb

molecule  {
0 1
  O       -2.3851110    -0.4314350    -0.0002820
  N        2.5187010    -0.2207910    -0.0001120
  C       -0.0130310    -0.3414550     0.0003300
  C        1.2524210     0.5177120    -0.0001190
  C       -1.2862700     0.4819960     0.0000880
  H       -0.0208770    -0.9936910    -0.8809850
  H       -0.0206570    -0.9930790     0.8820930
  H        1.2550010     1.1745560     0.8775860
  H        1.2546990     1.1740390    -0.8782090
  H       -1.3125800     1.1321620    -0.8873520
  H       -1.3130830     1.1320500     0.8875860
  H        2.5458240    -0.8359140    -0.8127320
  H        2.5461020    -0.8354320     0.8128620
  H       -3.2873700     0.1467685     0.0004636
units angstrom
no_reorient  #important for SAPT in psi4, default
symmetry c1  #important for SAPT in psi4, default
}

set PROPERTIES_ORIGIN ["COM"]
properties('MP2/aug-cc-pvtz', properties = ['dipole'])
--------------------------------------------------------------------------

    Molecular point group: c1
  Charge       = 0
  Multiplicity = 1
  Basis Set: AUG-CC-PVTZ
    Blend: AUG-CC-PVTZ
  Basis Set: (AUG-CC-PVTZ AUX)
    Blend: AUG-CC-PVTZ-JKFIT

    Orbital Energies [Eh]
    ---------------------

    Doubly Occupied:

       1A    -20.569866     2A    -15.541624     3A    -11.277742
       4A    -11.249938     5A    -11.218712     6A     -1.338848
       7A     -1.178265     8A     -1.029265     9A     -0.883109
      10A     -0.808280    11A     -0.681149    12A     -0.672161
      13A     -0.638236    14A     -0.596058    15A     -0.556403
      16A     -0.549910    17A     -0.532125    18A     -0.482217
      19A     -0.481605    20A     -0.445098    21A     -0.391585

  @DF-RHF Final Energy:  -248.22332260667929

   => Energetics <=

    Nuclear Repulsion Energy =            185.0024157559284390
    One-Electron Energy =                -704.2070854811311165
    Two-Electron Energy =                 270.9813471185233311
    Total Energy =                       -248.2233226066792895
  Basis Set: (AUG-CC-PVTZ AUX)
    Blend: AUG-CC-PVTZ-RI
    Molecular point group: c1

    Geometry (in Angstrom), charge = 0, multiplicity = 1:

       Center              X                  Y                   Z               Mass
    ------------   -----------------  -----------------  -----------------  -----------------
         O           -2.361363288780    -0.418334893124    -0.000266440339    15.994914619570
         N            2.542448711220    -0.207690893124    -0.000096440339    14.003074004430
         C            0.010716711220    -0.328354893124     0.000345559661    12.000000000000
         C            1.276168711220     0.530812106876    -0.000103440339    12.000000000000
         C           -1.262522288780     0.495096106876     0.000103559661    12.000000000000
         H            0.002870711220    -0.980590893124    -0.880969440339     1.007825032230
         H            0.003090711220    -0.979978893124     0.882108559661     1.007825032230
         H            1.278748711220     1.187656106876     0.877601559661     1.007825032230
         H            1.278446711220     1.187139106876    -0.878193440339     1.007825032230
         H           -1.288832288780     1.145262106876    -0.887336440339     1.007825032230
         H           -1.289335288780     1.145150106876     0.887601559661     1.007825032230
         H            2.569571711220    -0.822813893124    -0.812716440339     1.007825032230
         H            2.569849711220    -0.822331893124     0.812877559661     1.007825032230
         H           -3.263622288780     0.159868606876     0.000479159661     1.007825032230

  Basis Set: AUG-CC-PVTZ
    Blend: AUG-CC-PVTZ
  Basis Set: (AUG-CC-PVTZ AUX)
    Blend: AUG-CC-PVTZ-JKFIT
	 Reference Energy          =    -248.2233226066792895 [Eh]
	 Singles Energy            =      -0.0000000000000000 [Eh]
	 Same-Spin Energy          =      -0.2492760182750909 [Eh]
	 Opposite-Spin Energy      =      -0.8486789992779146 [Eh]
	 Correlation Energy        =      -1.0979550175530055 [Eh]
	 Total Energy              =    -249.3212776242322946 [Eh]

	 ================> DF-SCS-MP2 Energies <==================
	-----------------------------------------------------------
	 SCS Same-Spin Scale       =       0.3333333333333333 [-]
	 SCS Opposite-Spin Scale   =       1.2000000000000000 [-]
	 SCS Same-Spin Energy      =      -0.0830920060916970 [Eh]
	 SCS Opposite-Spin Energy  =      -1.0184147991334975 [Eh]
	 SCS Correlation Energy    =      -1.1015068052251944 [Eh]
	 SCS Total Energy          =    -249.3248294119044886 [Eh]
	-----------------------------------------------------------

  Dipole Moment: [D]
     X:    -1.2311      Y:     0.7391      Z:     0.0019     Total:     1.4359

*** Psi4 exiting successfully. Buy a developer a beer!
