                               Psi4 1.4a3.dev225

  ==> Input File <==

--------------------------------------------------------------------------
#psi4
#
memory 32 gb

molecule  {
0 1
  O        2.3850150    -0.4314620    -0.0000020
  N       -2.5187610    -0.2207970     0.0000020
  C        0.0130360    -0.3413840    -0.0000010
  C       -1.2523980     0.5177100    -0.0000070
  C        1.2864090     0.4819960     0.0000060
  H        0.0207440    -0.9933730     0.8815180
  H        0.0207540    -0.9933720    -0.8815200
  H       -1.2549080     1.1742870    -0.8779080
  H       -1.2549050     1.1743050     0.8778810
  H        1.3129410     1.1321370     0.8874920
  H        1.3129410     1.1321530    -0.8874690
  H       -2.5459240    -0.8356760     0.8128080
  H       -2.5472551    -0.8658558    -0.8526464
  H        3.2032020     0.0925730    -0.0000070
units angstrom
no_reorient  #important for SAPT in psi4, default
symmetry c1  #important for SAPT in psi4, default
}

set PROPERTIES_ORIGIN ["COM"]
properties('MP2/aug-cc-pvtz', properties = ['dipole'])
--------------------------------------------------------------------------

    Molecular point group: c1
  Charge       = 0
  Multiplicity = 1
  Basis Set: AUG-CC-PVTZ
    Blend: AUG-CC-PVTZ
  Basis Set: (AUG-CC-PVTZ AUX)
    Blend: AUG-CC-PVTZ-JKFIT

    Orbital Energies [Eh]
    ---------------------

    Doubly Occupied:

       1A    -20.561467     2A    -15.547365     3A    -11.278729
       4A    -11.250297     5A    -11.218969     6A     -1.357442
       7A     -1.173072     8A     -1.031253     9A     -0.885698
      10A     -0.808558    11A     -0.692654    12A     -0.678156
      13A     -0.635966    14A     -0.596254    15A     -0.557654
      16A     -0.547701    17A     -0.535767    18A     -0.485006
      19A     -0.481965    20A     -0.447123    21A     -0.391541

  @DF-RHF Final Energy:  -248.23333657449359

   => Energetics <=

    Nuclear Repulsion Energy =            185.3137189884259328
    One-Electron Energy =                -704.7688374008249639
    Two-Electron Energy =                 271.2217818379054961
    Total Energy =                       -248.2333365744935918
  Basis Set: (AUG-CC-PVTZ AUX)
    Blend: AUG-CC-PVTZ-RI
    Molecular point group: c1

    Geometry (in Angstrom), charge = 0, multiplicity = 1:

       Center              X                  Y                   Z               Mass
    ------------   -----------------  -----------------  -----------------  -----------------
         O            2.362418114631    -0.417234539013     0.000533394583    15.994914619570
         N           -2.541357885369    -0.206569539013     0.000537394583    14.003074004430
         C           -0.009560885369    -0.327156539013     0.000534394583    12.000000000000
         C           -1.274994885369     0.531937460987     0.000528394583    12.000000000000
         C            1.263812114631     0.496223460987     0.000541394583    12.000000000000
         H           -0.001852885369    -0.979145539013     0.882053394583     1.007825032230
         H           -0.001842885369    -0.979144539013    -0.880984605417     1.007825032230
         H           -1.277504885369     1.188514460987    -0.877372605417     1.007825032230
         H           -1.277501885369     1.188532460987     0.878416394583     1.007825032230
         H            1.290344114631     1.146364460987     0.888027394583     1.007825032230
         H            1.290344114631     1.146380460987    -0.886933605417     1.007825032230
         H           -2.568520885369    -0.821448539013     0.813343394583     1.007825032230
         H           -2.569851985369    -0.851628339013    -0.852111005417     1.007825032230
         H            3.180605114631     0.106800460987     0.000528394583     1.007825032230

  Basis Set: AUG-CC-PVTZ
    Blend: AUG-CC-PVTZ
  Basis Set: (AUG-CC-PVTZ AUX)
    Blend: AUG-CC-PVTZ-JKFIT
	 Reference Energy          =    -248.2333365744935918 [Eh]
	 Singles Energy            =      -0.0000000000000000 [Eh]
	 Same-Spin Energy          =      -0.2484038383757800 [Eh]
	 Opposite-Spin Energy      =      -0.8462848697918754 [Eh]
	 Correlation Energy        =      -1.0946887081676555 [Eh]
	 Total Energy              =    -249.3280252826612582 [Eh]

	 ================> DF-SCS-MP2 Energies <==================
	-----------------------------------------------------------
	 SCS Same-Spin Scale       =       0.3333333333333333 [-]
	 SCS Opposite-Spin Scale   =       1.2000000000000000 [-]
	 SCS Same-Spin Energy      =      -0.0828012794585933 [Eh]
	 SCS Opposite-Spin Energy  =      -1.0155418437502506 [Eh]
	 SCS Correlation Energy    =      -1.0983431232088439 [Eh]
	 SCS Total Energy          =    -249.3316796977024410 [Eh]
	-----------------------------------------------------------

  Dipole Moment: [D]
     X:     1.1706      Y:     0.7163      Z:    -0.0061     Total:     1.3724

*** Psi4 exiting successfully. Buy a developer a beer!
