                               Psi4 1.3.2 release

  ==> Input File <==

--------------------------------------------------------------------------
#psi4
#
memory 32 gb

molecule  {
0 1
  O       -2.3525633    -0.4692276    -0.0002775
  N        2.5187010    -0.2207910    -0.0001120
  C       -0.0130310    -0.3414550     0.0003300
  C        1.2524210     0.5177120    -0.0001190
  C       -1.2862700     0.4819960     0.0000880
  H       -0.0208770    -0.9936910    -0.8809850
  H       -0.0206570    -0.9930790     0.8820930
  H        1.2550010     1.1745560     0.8775860
  H        1.2546990     1.1740390    -0.8782090
  H       -1.3125800     1.1321620    -0.8873520
  H       -1.3130830     1.1320500     0.8875860
  H        2.5458240    -0.8359140    -0.8127320
  H        2.5461020    -0.8354320     0.8128620
  H       -3.2031750     0.0928130     0.0003940
units angstrom
no_reorient  #important for SAPT in psi4, default
symmetry c1  #important for SAPT in psi4, default
}

set PROPERTIES_ORIGIN ["COM"]
properties('MP2/aug-cc-pvtz', properties = ['dipole'])
--------------------------------------------------------------------------

    Molecular point group: c1
  Charge       = 0
  Multiplicity = 1
  Basis Set: AUG-CC-PVTZ
    Blend: AUG-CC-PVTZ
  Basis Set: (AUG-CC-PVTZ AUX)
    Blend: AUG-CC-PVTZ-JKFIT

    Orbital Energies [Eh]
    ---------------------

    Doubly Occupied:

       1A    -20.567620     2A    -15.540998     3A    -11.278277
       4A    -11.249020     5A    -11.217643     6A     -1.350400
       7A     -1.177696     8A     -1.030107     9A     -0.884640
      10A     -0.808769    11A     -0.682737    12A     -0.681032
      13A     -0.639132    14A     -0.596652    15A     -0.555454
      16A     -0.549611    17A     -0.535020    18A     -0.485497
      19A     -0.481580    20A     -0.448342    21A     -0.390592

  @DF-RHF Final Energy:  -248.23075217955281

   => Energetics <=

    Nuclear Repulsion Energy =            185.5966146318864958
    One-Electron Energy =                -705.3530983696606427
    Two-Electron Energy =                 271.5257315582213664
    Total Energy =                       -248.2307521795527805
  Basis Set: (AUG-CC-PVTZ AUX)
    Blend: AUG-CC-PVTZ-RI
    Molecular point group: c1

    Geometry (in Angstrom), charge = 0, multiplicity = 1:

       Center              X                  Y                   Z               Mass
    ------------   -----------------  -----------------  -----------------  -----------------
         O           -2.336880918518    -0.447350604424    -0.000261964750    15.994914619570
         N            2.534383381482    -0.198914004424    -0.000096464750    14.003074004430
         C            0.002651381482    -0.319578004424     0.000345535250    12.000000000000
         C            1.268103381482     0.539588995576    -0.000103464750    12.000000000000
         C           -1.270587618518     0.503872995576     0.000103535250    12.000000000000
         H           -0.005194618518    -0.971814004424    -0.880969464750     1.007825032230
         H           -0.004974618518    -0.971202004424     0.882108535250     1.007825032230
         H            1.270683381482     1.196432995576     0.877601535250     1.007825032230
         H            1.270381381482     1.195915995576    -0.878193464750     1.007825032230
         H           -1.296897618518     1.154038995576    -0.887336464750     1.007825032230
         H           -1.297400618518     1.153926995576     0.887601535250     1.007825032230
         H            2.561506381482    -0.814037004424    -0.812716464750     1.007825032230
         H            2.561784381482    -0.813555004424     0.812877535250     1.007825032230
         H           -3.187492618518     0.114689995576     0.000409535250     1.007825032230

  Basis Set: AUG-CC-PVTZ
    Blend: AUG-CC-PVTZ
  Basis Set: (AUG-CC-PVTZ AUX)
    Blend: AUG-CC-PVTZ-JKFIT
	 Reference Energy          =    -248.2307521795528089 [Eh]
	 Singles Energy            =      -0.0000000000000000 [Eh]
	 Same-Spin Energy          =      -0.2489232119209626 [Eh]
	 Opposite-Spin Energy      =      -0.8473650979876569 [Eh]
	 Correlation Energy        =      -1.0962883099086196 [Eh]
	 Total Energy              =    -249.3270404894614387 [Eh]

	 ================> DF-SCS-MP2 Energies <==================
	-----------------------------------------------------------
	 SCS Same-Spin Scale       =       0.3333333333333333 [-]
	 SCS Opposite-Spin Scale   =       1.2000000000000000 [-]
	 SCS Same-Spin Energy      =      -0.0829744039736542 [Eh]
	 SCS Opposite-Spin Energy  =      -1.0168381175851882 [Eh]
	 SCS Correlation Energy    =      -1.0998125215588423 [Eh]
	 SCS Total Energy          =    -249.3305647011116548 [Eh]
	-----------------------------------------------------------

  Dipole Moment: [D]
     X:    -1.2504      Y:     0.7536      Z:     0.0018     Total:     1.4599

*** Psi4 exiting successfully. Buy a developer a beer!
