                               Psi4 1.4a3.dev225

  ==> Input File <==

--------------------------------------------------------------------------
#psi4
#
memory 32 gb

molecule  {
0 1
  O        2.3850150    -0.4314620    -0.0000020
  N       -2.5187610    -0.2207970     0.0000020
  C        0.0130360    -0.3413840    -0.0000010
  C       -1.2523980     0.5177100    -0.0000070
  C        1.2864090     0.4819960     0.0000060
  H        0.0207440    -0.9933730     0.8815180
  H        0.0207540    -0.9933720    -0.8815200
  H       -1.2549080     1.1742870    -0.8779080
  H       -1.2549050     1.1743050     0.8778810
  H        1.3129410     1.1321370     0.8874920
  H        1.3129410     1.1321530    -0.8874690
  H       -2.5459240    -0.8356760     0.8128080
  H       -2.5464558    -0.8477623    -0.8287302
  H        3.2032020     0.0925730    -0.0000070
units angstrom
no_reorient  #important for SAPT in psi4, default
symmetry c1  #important for SAPT in psi4, default
}

set PROPERTIES_ORIGIN ["COM"]
properties('MP2/aug-cc-pvtz', properties = ['dipole'])
--------------------------------------------------------------------------

    Molecular point group: c1
  Charge       = 0
  Multiplicity = 1
  Basis Set: AUG-CC-PVTZ
    Blend: AUG-CC-PVTZ
  Basis Set: (AUG-CC-PVTZ AUX)
    Blend: AUG-CC-PVTZ-JKFIT

    Orbital Energies [Eh]
    ---------------------

    Doubly Occupied:

       1A    -20.561479     2A    -15.544043     3A    -11.278758
       4A    -11.250149     5A    -11.219006     6A     -1.357457
       7A     -1.176185     8A     -1.032044     9A     -0.886810
      10A     -0.808877    11A     -0.692725    12A     -0.680089
      13A     -0.637941    14A     -0.596936    15A     -0.557966
      16A     -0.549650    17A     -0.535874    18A     -0.485030
      19A     -0.482441    20A     -0.447141    21A     -0.391854

  @DF-RHF Final Energy:  -248.23577627323709

   => Energetics <=

    Nuclear Repulsion Energy =            185.4473686491352282
    One-Electron Energy =                -705.0213843221654315
    Two-Electron Energy =                 271.3382393997931104
    Total Energy =                       -248.2357762732370929
  Basis Set: (AUG-CC-PVTZ AUX)
    Blend: AUG-CC-PVTZ-RI
    Molecular point group: c1

    Geometry (in Angstrom), charge = 0, multiplicity = 1:

       Center              X                  Y                   Z               Mass
    ------------   -----------------  -----------------  -----------------  -----------------
         O            2.362407383692    -0.417477451861     0.000212309538    15.994914619570
         N           -2.541368616308    -0.206812451861     0.000216309538    14.003074004430
         C           -0.009571616308    -0.327399451861     0.000213309538    12.000000000000
         C           -1.275005616308     0.531694548139     0.000207309538    12.000000000000
         C            1.263801383692     0.495980548139     0.000220309538    12.000000000000
         H           -0.001863616308    -0.979388451861     0.881732309538     1.007825032230
         H           -0.001853616308    -0.979387451861    -0.881305690462     1.007825032230
         H           -1.277515616308     1.188271548139    -0.877693690462     1.007825032230
         H           -1.277512616308     1.188289548139     0.878095309538     1.007825032230
         H            1.290333383692     1.146121548139     0.887706309538     1.007825032230
         H            1.290333383692     1.146137548139    -0.887254690462     1.007825032230
         H           -2.568531616308    -0.821691451861     0.813022309538     1.007825032230
         H           -2.569063416308    -0.833777751861    -0.828515890462     1.007825032230
         H            3.180594383692     0.106557548139     0.000207309538     1.007825032230

  Basis Set: AUG-CC-PVTZ
    Blend: AUG-CC-PVTZ
  Basis Set: (AUG-CC-PVTZ AUX)
    Blend: AUG-CC-PVTZ-JKFIT
	 Reference Energy          =    -248.2357762732370929 [Eh]
	 Singles Energy            =      -0.0000000000000000 [Eh]
	 Same-Spin Energy          =      -0.2482735362615968 [Eh]
	 Opposite-Spin Energy      =      -0.8457744317689130 [Eh]
	 Correlation Energy        =      -1.0940479680305097 [Eh]
	 Total Energy              =    -249.3298242412676018 [Eh]

	 ================> DF-SCS-MP2 Energies <==================
	-----------------------------------------------------------
	 SCS Same-Spin Scale       =       0.3333333333333333 [-]
	 SCS Opposite-Spin Scale   =       1.2000000000000000 [-]
	 SCS Same-Spin Energy      =      -0.0827578454205323 [Eh]
	 SCS Opposite-Spin Energy  =      -1.0149293181226955 [Eh]
	 SCS Correlation Energy    =      -1.0976871635432277 [Eh]
	 SCS Total Energy          =    -249.3334634367803346 [Eh]
	-----------------------------------------------------------

  Dipole Moment: [D]
     X:     1.1706      Y:     0.7133      Z:    -0.0028     Total:     1.3708

*** Psi4 exiting successfully. Buy a developer a beer!
