                               Psi4 1.3.2 release

  ==> Input File <==

--------------------------------------------------------------------------
#psi4
#
memory 32 gb

molecule  {
0 1
  O       -2.3851110    -0.4314350    -0.0002820
  N        2.5436286    -0.1709599     0.0857045
  C       -0.0130310    -0.3414550     0.0003300
  C        1.2524210     0.5177120    -0.0001190
  C       -1.2862700     0.4819960     0.0000880
  H       -0.0208770    -0.9936910    -0.8809850
  H       -0.0206570    -0.9930790     0.8820930
  H        1.2550010     1.1745560     0.8775860
  H        1.2546990     1.1740390    -0.8782090
  H       -1.3125800     1.1321620    -0.8873520
  H       -1.3130830     1.1320500     0.8875860
  H        2.5458240    -0.8359140    -0.8127320
  H        2.5461020    -0.8354320     0.8128620
  H       -3.2031750     0.0928130     0.0003940
units angstrom
no_reorient  #important for SAPT in psi4, default
symmetry c1  #important for SAPT in psi4, default
}

set PROPERTIES_ORIGIN ["COM"]
properties('MP2/aug-cc-pvtz', properties = ['dipole'])
--------------------------------------------------------------------------

    Molecular point group: c1
  Charge       = 0
  Multiplicity = 1
  Basis Set: AUG-CC-PVTZ
    Blend: AUG-CC-PVTZ
  Basis Set: (AUG-CC-PVTZ AUX)
    Blend: AUG-CC-PVTZ-JKFIT

    Orbital Energies [Eh]
    ---------------------

    Doubly Occupied:

       1A    -20.562415     2A    -15.551345     3A    -11.280142
       4A    -11.250491     5A    -11.221080     6A     -1.358359
       7A     -1.176945     8A     -1.033414     9A     -0.887256
      10A     -0.810370    11A     -0.694357    12A     -0.675883
      13A     -0.634290    14A     -0.596869    15A     -0.565912
      16A     -0.543102    17A     -0.531419    18A     -0.487189
      19A     -0.476184    20A     -0.448103    21A     -0.400037

  @DF-RHF Final Energy:  -248.22492425969884

   => Energetics <=

    Nuclear Repulsion Energy =            185.1765358512026580
    One-Electron Energy =                -704.4325942814915607
    Two-Electron Energy =                 271.0311341705901214
    Total Energy =                       -248.2249242596988097
  Basis Set: (AUG-CC-PVTZ AUX)
    Blend: AUG-CC-PVTZ-RI
    Molecular point group: c1

    Geometry (in Angstrom), charge = 0, multiplicity = 1:

       Center              X                  Y                   Z               Mass
    ------------   -----------------  -----------------  -----------------  -----------------
         O           -2.367143574169    -0.426905886487    -0.016273501006    15.994914619570
         N            2.561596025831    -0.166430786487     0.069712998994    14.003074004430
         C            0.004936425831    -0.336925886487    -0.015661501006    12.000000000000
         C            1.270388425831     0.522241113513    -0.016110501006    12.000000000000
         C           -1.268302574169     0.486525113513    -0.015903501006    12.000000000000
         H           -0.002909574169    -0.989161886487    -0.896976501006     1.007825032230
         H           -0.002689574169    -0.988549886487     0.866101498994     1.007825032230
         H            1.272968425831     1.179085113513     0.861594498994     1.007825032230
         H            1.272666425831     1.178568113513    -0.894200501006     1.007825032230
         H           -1.294612574169     1.136691113513    -0.903343501006     1.007825032230
         H           -1.295115574169     1.136579113513     0.871594498994     1.007825032230
         H            2.563791425831    -0.831384886487    -0.828723501006     1.007825032230
         H            2.564069425831    -0.830902886487     0.796870498994     1.007825032230
         H           -3.185207574169     0.097342113513    -0.015597501006     1.007825032230

  Basis Set: AUG-CC-PVTZ
    Blend: AUG-CC-PVTZ
  Basis Set: (AUG-CC-PVTZ AUX)
    Blend: AUG-CC-PVTZ-JKFIT
	 Reference Energy          =    -248.2249242596988381 [Eh]
	 Singles Energy            =      -0.0000000000000000 [Eh]
	 Same-Spin Energy          =      -0.2486245139265008 [Eh]
	 Opposite-Spin Energy      =      -0.8471644997937532 [Eh]
	 Correlation Energy        =      -1.0957890137202539 [Eh]
	 Total Energy              =    -249.3207132734191021 [Eh]

	 ================> DF-SCS-MP2 Energies <==================
	-----------------------------------------------------------
	 SCS Same-Spin Scale       =       0.3333333333333333 [-]
	 SCS Opposite-Spin Scale   =       1.2000000000000000 [-]
	 SCS Same-Spin Energy      =      -0.0828748379755003 [Eh]
	 SCS Opposite-Spin Energy  =      -1.0165973997525037 [Eh]
	 SCS Correlation Energy    =      -1.0994722377280040 [Eh]
	 SCS Total Energy          =    -249.3243964974268465 [Eh]
	-----------------------------------------------------------

  Dipole Moment: [D]
     X:    -1.2744      Y:     0.6479      Z:    -0.0840     Total:     1.4321

*** Psi4 exiting successfully. Buy a developer a beer!
