                               Psi4 1.3.2 release

  ==> Input File <==

--------------------------------------------------------------------------
#psi4
#
memory 32 gb

molecule  {
0 1
  O       -2.3851110    -0.4314350    -0.0002820
  N        2.5187010    -0.2207910    -0.0001120
  C       -0.0130310    -0.3414550     0.0003300
  C        1.2524210     0.5177120    -0.0001190
  C       -1.3023789     0.5010343     0.0001082
  H       -0.0208770    -0.9936910    -0.8809850
  H       -0.0206570    -0.9930790     0.8820930
  H        1.2550010     1.1745560     0.8775860
  H        1.2546990     1.1740390    -0.8782090
  H       -1.3125800     1.1321620    -0.8873520
  H       -1.3130830     1.1320500     0.8875860
  H        2.5458240    -0.8359140    -0.8127320
  H        2.5461020    -0.8354320     0.8128620
  H       -3.2031750     0.0928130     0.0003940
units angstrom
no_reorient  #important for SAPT in psi4, default
symmetry c1  #important for SAPT in psi4, default
}

set PROPERTIES_ORIGIN ["COM"]
properties('MP2/aug-cc-pvtz', properties = ['dipole'])
--------------------------------------------------------------------------

    Molecular point group: c1
  Charge       = 0
  Multiplicity = 1
  Basis Set: AUG-CC-PVTZ
    Blend: AUG-CC-PVTZ
  Basis Set: (AUG-CC-PVTZ AUX)
    Blend: AUG-CC-PVTZ-JKFIT

    Orbital Energies [Eh]
    ---------------------

    Doubly Occupied:

       1A    -20.562248     2A    -15.541283     3A    -11.277782
       4A    -11.249311     5A    -11.219540     6A     -1.358032
       7A     -1.177868     8A     -1.028312     9A     -0.888020
      10A     -0.809709    11A     -0.692118    12A     -0.681167
      13A     -0.641018    14A     -0.595801    15A     -0.556878
      16A     -0.551538    17A     -0.535856    18A     -0.482061
      19A     -0.481808    20A     -0.451287    21A     -0.390770

  @DF-RHF Final Energy:  -248.23607283514605

   => Energetics <=

    Nuclear Repulsion Energy =            185.2921481374418988
    One-Electron Energy =                -704.7116259752655196
    Two-Electron Energy =                 271.1834050026775458
    Total Energy =                       -248.2360728351460466
  Basis Set: (AUG-CC-PVTZ AUX)
    Blend: AUG-CC-PVTZ-RI
    Molecular point group: c1

    Geometry (in Angstrom), charge = 0, multiplicity = 1:

       Center              X                  Y                   Z               Mass
    ------------   -----------------  -----------------  -----------------  -----------------
         O           -2.359918567015    -0.420653869740    -0.000268734984    15.994914619570
         N            2.543893432985    -0.210009869740    -0.000098734984    14.003074004430
         C            0.012161432985    -0.330673869740     0.000343265016    12.000000000000
         C            1.277613432985     0.528493130260    -0.000105734984    12.000000000000
         C           -1.277186467015     0.511815430260     0.000121465016    12.000000000000
         H            0.004315432985    -0.982909869740    -0.880971734984     1.007825032230
         H            0.004535432985    -0.982297869740     0.882106265016     1.007825032230
         H            1.280193432985     1.185337130260     0.877599265016     1.007825032230
         H            1.279891432985     1.184820130260    -0.878195734984     1.007825032230
         H           -1.287387567015     1.142943130260    -0.887338734984     1.007825032230
         H           -1.287890567015     1.142831130260     0.887599265016     1.007825032230
         H            2.571016432985    -0.825132869740    -0.812718734984     1.007825032230
         H            2.571294432985    -0.824650869740     0.812875265016     1.007825032230
         H           -3.177982567015     0.103594130260     0.000407265016     1.007825032230

  Basis Set: AUG-CC-PVTZ
    Blend: AUG-CC-PVTZ
  Basis Set: (AUG-CC-PVTZ AUX)
    Blend: AUG-CC-PVTZ-JKFIT
	 Reference Energy          =    -248.2360728351460466 [Eh]
	 Singles Energy            =      -0.0000000000000000 [Eh]
	 Same-Spin Energy          =      -0.2481151415203430 [Eh]
	 Opposite-Spin Energy      =      -0.8455094864403533 [Eh]
	 Correlation Energy        =      -1.0936246279606963 [Eh]
	 Total Energy              =    -249.3296974631067542 [Eh]

	 ================> DF-SCS-MP2 Energies <==================
	-----------------------------------------------------------
	 SCS Same-Spin Scale       =       0.3333333333333333 [-]
	 SCS Opposite-Spin Scale   =       1.2000000000000000 [-]
	 SCS Same-Spin Energy      =      -0.0827050471734476 [Eh]
	 SCS Opposite-Spin Energy  =      -1.0146113837284239 [Eh]
	 SCS Correlation Energy    =      -1.0973164309018715 [Eh]
	 SCS Total Energy          =    -249.3333892660479307 [Eh]
	-----------------------------------------------------------

  Dipole Moment: [D]
     X:    -1.2056      Y:     0.7314      Z:     0.0019     Total:     1.4101

*** Psi4 exiting successfully. Buy a developer a beer!
