                               Psi4 1.3.2 release

  ==> Input File <==

--------------------------------------------------------------------------
#psi4
#
memory 32 gb

molecule  {
0 1
  O       -2.3851110    -0.4314350    -0.0002820
  N        2.5187010    -0.2207910    -0.0001120
  C       -0.0130310    -0.3414550     0.0003300
  C        1.4251863     0.4169541    -0.0001180
  C       -1.2862700     0.4819960     0.0000880
  H       -0.0208770    -0.9936910    -0.8809850
  H       -0.0206570    -0.9930790     0.8820930
  H        1.2550010     1.1745560     0.8775860
  H        1.2546990     1.1740390    -0.8782090
  H       -1.3125800     1.1321620    -0.8873520
  H       -1.3130830     1.1320500     0.8875860
  H        2.5458240    -0.8359140    -0.8127320
  H        2.5461020    -0.8354320     0.8128620
  H       -3.2031750     0.0928130     0.0003940
units angstrom
no_reorient  #important for SAPT in psi4, default
symmetry c1  #important for SAPT in psi4, default
}

set PROPERTIES_ORIGIN ["COM"]
properties('MP2/aug-cc-pvtz', properties = ['dipole'])
--------------------------------------------------------------------------

    Molecular point group: c1
  Charge       = 0
  Multiplicity = 1
  Basis Set: AUG-CC-PVTZ
    Blend: AUG-CC-PVTZ
  Basis Set: (AUG-CC-PVTZ AUX)
    Blend: AUG-CC-PVTZ-JKFIT

    Orbital Energies [Eh]
    ---------------------

    Doubly Occupied:

       1A    -20.559743     2A    -15.548034     3A    -11.277228
       4A    -11.259775     5A    -11.214866     6A     -1.355242
       7A     -1.256197     8A     -1.016777     9A     -0.873786
      10A     -0.804913    11A     -0.703080    12A     -0.694799
      13A     -0.642918    14A     -0.635085    15A     -0.578554
      16A     -0.544963    17A     -0.533912    18A     -0.480972
      19A     -0.447983    20A     -0.442478    21A     -0.369245

  @DF-RHF Final Energy:  -248.18795272899251

   => Energetics <=

    Nuclear Repulsion Energy =            186.1643410630972539
    One-Electron Energy =                -706.2234861641990165
    Two-Electron Energy =                 271.8711923721092489
    Total Energy =                       -248.1879527289925136
  Basis Set: (AUG-CC-PVTZ AUX)
    Blend: AUG-CC-PVTZ-RI
    Molecular point group: c1

    Geometry (in Angstrom), charge = 0, multiplicity = 1:

       Center              X                  Y                   Z               Mass
    ------------   -----------------  -----------------  -----------------  -----------------
         O           -2.390110898008    -0.401503946023    -0.000265665784    15.994914619570
         N            2.513701101992    -0.190859946023    -0.000095665784    14.003074004430
         C           -0.018030898008    -0.311523946023     0.000346334216    12.000000000000
         C            1.420186401992     0.446885153977    -0.000101665784    12.000000000000
         C           -1.291269898008     0.511927053977     0.000104334216    12.000000000000
         H           -0.025876898008    -0.963759946023    -0.880968665784     1.007825032230
         H           -0.025656898008    -0.963147946023     0.882109334216     1.007825032230
         H            1.250001101992     1.204487053977     0.877602334216     1.007825032230
         H            1.249699101992     1.203970053977    -0.878192665784     1.007825032230
         H           -1.317579898008     1.162093053977    -0.887335665784     1.007825032230
         H           -1.318082898008     1.161981053977     0.887602334216     1.007825032230
         H            2.540824101992    -0.805982946023    -0.812715665784     1.007825032230
         H            2.541102101992    -0.805500946023     0.812878334216     1.007825032230
         H           -3.208174898008     0.122744053977     0.000410334216     1.007825032230

  Basis Set: AUG-CC-PVTZ
    Blend: AUG-CC-PVTZ
  Basis Set: (AUG-CC-PVTZ AUX)
    Blend: AUG-CC-PVTZ-JKFIT
	 Reference Energy          =    -248.1879527289925136 [Eh]
	 Singles Energy            =      -0.0000000000000000 [Eh]
	 Same-Spin Energy          =      -0.2501871646880772 [Eh]
	 Opposite-Spin Energy      =      -0.8470341041008661 [Eh]
	 Correlation Energy        =      -1.0972212687889433 [Eh]
	 Total Energy              =    -249.2851739977814702 [Eh]

	 ================> DF-SCS-MP2 Energies <==================
	-----------------------------------------------------------
	 SCS Same-Spin Scale       =       0.3333333333333333 [-]
	 SCS Opposite-Spin Scale   =       1.2000000000000000 [-]
	 SCS Same-Spin Energy      =      -0.0833957215626924 [Eh]
	 SCS Opposite-Spin Energy  =      -1.0164409249210393 [Eh]
	 SCS Correlation Energy    =      -1.0998366464837317 [Eh]
	 SCS Total Energy          =    -249.2877893754762511 [Eh]
	-----------------------------------------------------------

  Dipole Moment: [D]
     X:    -0.4967      Y:     0.4513      Z:     0.0018     Total:     0.6711

*** Psi4 exiting successfully. Buy a developer a beer!
