                               Psi4 1.4a3.dev225

  ==> Input File <==

--------------------------------------------------------------------------
#psi4
#
memory 32 gb

molecule  {
0 1
  O        2.3850150    -0.4314620    -0.0000020
  N       -2.5187610    -0.2207970     0.0000020
  C        0.0130360    -0.3413840    -0.0000010
  C       -1.2523980     0.5177100    -0.0000070
  C        1.2479627     0.5139629     0.0000063
  H        0.0207440    -0.9933730     0.8815180
  H        0.0207540    -0.9933720    -0.8815200
  H       -1.2549080     1.1742870    -0.8779080
  H       -1.2549050     1.1743050     0.8778810
  H        1.3129410     1.1321370     0.8874920
  H        1.3129410     1.1321530    -0.8874690
  H       -2.5459240    -0.8356760     0.8128080
  H       -2.5459230    -0.8357000    -0.8127860
  H        3.2032020     0.0925730    -0.0000070
units angstrom
no_reorient  #important for SAPT in psi4, default
symmetry c1  #important for SAPT in psi4, default
}

set PROPERTIES_ORIGIN ["COM"]
properties('MP2/aug-cc-pvtz', properties = ['dipole'])
--------------------------------------------------------------------------

    Molecular point group: c1
  Charge       = 0
  Multiplicity = 1
  Basis Set: AUG-CC-PVTZ
    Blend: AUG-CC-PVTZ
  Basis Set: (AUG-CC-PVTZ AUX)
    Blend: AUG-CC-PVTZ-JKFIT

    Orbital Energies [Eh]
    ---------------------

    Doubly Occupied:

       1A    -20.556067     2A    -15.542148     3A    -11.278402
       4A    -11.250760     5A    -11.219987     6A     -1.338543
       7A     -1.179324     8A     -1.037809     9A     -0.888956
      10A     -0.812153    11A     -0.683435    12A     -0.679748
      13A     -0.640689    14A     -0.596607    15A     -0.550239
      16A     -0.549387    17A     -0.532595    18A     -0.493371
      19A     -0.483069    20A     -0.452331    21A     -0.392057

  @DF-RHF Final Energy:  -248.23396729365771

   => Energetics <=

    Nuclear Repulsion Energy =            185.3209726390443564
    One-Electron Energy =                -704.7945279714645039
    Two-Electron Energy =                 271.2395880387624061
    Total Energy =                       -248.2339672936577131
  Basis Set: (AUG-CC-PVTZ AUX)
    Blend: AUG-CC-PVTZ-RI
    Molecular point group: c1

    Geometry (in Angstrom), charge = 0, multiplicity = 1:

       Center              X                  Y                   Z               Mass
    ------------   -----------------  -----------------  -----------------  -----------------
         O            2.368546032517    -0.422749436005    -0.000001796009    15.994914619570
         N           -2.535229967483    -0.212084436005     0.000002203991    14.003074004430
         C           -0.003432967483    -0.332671436005    -0.000000796009    12.000000000000
         C           -1.268866967483     0.526422563995    -0.000006796009    12.000000000000
         C            1.231493732517     0.522675463995     0.000006503991    12.000000000000
         H            0.004275032517    -0.984660436005     0.881518203991     1.007825032230
         H            0.004285032517    -0.984659436005    -0.881519796009     1.007825032230
         H           -1.271376967483     1.182999563995    -0.877907796009     1.007825032230
         H           -1.271373967483     1.183017563995     0.877881203991     1.007825032230
         H            1.296472032517     1.140849563995     0.887492203991     1.007825032230
         H            1.296472032517     1.140865563995    -0.887468796009     1.007825032230
         H           -2.562392967483    -0.826963436005     0.812808203991     1.007825032230
         H           -2.562391967483    -0.826987436005    -0.812785796009     1.007825032230
         H            3.186733032517     0.101285563995    -0.000006796009     1.007825032230

  Basis Set: AUG-CC-PVTZ
    Blend: AUG-CC-PVTZ
  Basis Set: (AUG-CC-PVTZ AUX)
    Blend: AUG-CC-PVTZ-JKFIT
	 Reference Energy          =    -248.2339672936577131 [Eh]
	 Singles Energy            =      -0.0000000000000000 [Eh]
	 Same-Spin Energy          =      -0.2483921980206909 [Eh]
	 Opposite-Spin Energy      =      -0.8463984877454905 [Eh]
	 Correlation Energy        =      -1.0947906857661813 [Eh]
	 Total Energy              =    -249.3287579794238980 [Eh]

	 ================> DF-SCS-MP2 Energies <==================
	-----------------------------------------------------------
	 SCS Same-Spin Scale       =       0.3333333333333333 [-]
	 SCS Opposite-Spin Scale   =       1.2000000000000000 [-]
	 SCS Same-Spin Energy      =      -0.0827973993402303 [Eh]
	 SCS Opposite-Spin Energy  =      -1.0156781852945886 [Eh]
	 SCS Correlation Energy    =      -1.0984755846348189 [Eh]
	 SCS Total Energy          =    -249.3324428782925395 [Eh]
	-----------------------------------------------------------

  Dipole Moment: [D]
     X:     1.0078      Y:     0.8084      Z:     0.0000     Total:     1.2920

*** Psi4 exiting successfully. Buy a developer a beer!
