                               Psi4 1.3.2 release

  ==> Input File <==

--------------------------------------------------------------------------
#psi4
#
memory 32 gb

molecule  {
0 1
  O       -2.4008852    -0.4121185    -0.0002841
  N        2.5187010    -0.2207910    -0.0001120
  C       -0.0130310    -0.3414550     0.0003300
  C        1.2524210     0.5177120    -0.0001190
  C       -1.2862700     0.4819960     0.0000880
  H       -0.0208770    -0.9936910    -0.8809850
  H       -0.0206570    -0.9930790     0.8820930
  H        1.2550010     1.1745560     0.8775860
  H        1.2546990     1.1740390    -0.8782090
  H       -1.3125800     1.1321620    -0.8873520
  H       -1.3130830     1.1320500     0.8875860
  H        2.5458240    -0.8359140    -0.8127320
  H        2.5461020    -0.8354320     0.8128620
  H       -3.2031750     0.0928130     0.0003940
units angstrom
no_reorient  #important for SAPT in psi4, default
symmetry c1  #important for SAPT in psi4, default
}

set PROPERTIES_ORIGIN ["COM"]
properties('MP2/aug-cc-pvtz', properties = ['dipole'])
--------------------------------------------------------------------------

    Molecular point group: c1
  Charge       = 0
  Multiplicity = 1
  Basis Set: AUG-CC-PVTZ
    Blend: AUG-CC-PVTZ
  Basis Set: (AUG-CC-PVTZ AUX)
    Blend: AUG-CC-PVTZ-JKFIT

    Orbital Energies [Eh]
    ---------------------

    Doubly Occupied:

       1A    -20.558247     2A    -15.542171     3A    -11.279134
       4A    -11.250609     5A    -11.219770     6A     -1.361400
       7A     -1.178929     8A     -1.033969     9A     -0.889345
      10A     -0.809466    11A     -0.697760    12A     -0.681831
      13A     -0.639365    14A     -0.597790    15A     -0.559940
      16A     -0.551376    17A     -0.536021    18A     -0.484633
      19A     -0.483337    20A     -0.446653    21A     -0.392783

  @DF-RHF Final Energy:  -248.23790437525577

   => Energetics <=

    Nuclear Repulsion Energy =            185.5227435598987711
    One-Electron Energy =                -705.1322376225889457
    Two-Electron Energy =                 271.3715896874343798
    Total Energy =                       -248.2379043752557664
  Basis Set: (AUG-CC-PVTZ AUX)
    Blend: AUG-CC-PVTZ-RI
    Molecular point group: c1

    Geometry (in Angstrom), charge = 0, multiplicity = 1:

       Center              X                  Y                   Z               Mass
    ------------   -----------------  -----------------  -----------------  -----------------
         O           -2.374906814853    -0.402409807055    -0.000267158480    15.994914619570
         N            2.544679385147    -0.211082307055    -0.000095058480    14.003074004430
         C            0.012947385147    -0.331746307055     0.000346941520    12.000000000000
         C            1.278399385147     0.527420692945    -0.000102058480    12.000000000000
         C           -1.260291614853     0.491704692945     0.000104941520    12.000000000000
         H            0.005101385147    -0.983982307055    -0.880968058480     1.007825032230
         H            0.005321385147    -0.983370307055     0.882109941520     1.007825032230
         H            1.280979385147     1.184264692945     0.877602941520     1.007825032230
         H            1.280677385147     1.183747692945    -0.878192058480     1.007825032230
         H           -1.286601614853     1.141870692945    -0.887335058480     1.007825032230
         H           -1.287104614853     1.141758692945     0.887602941520     1.007825032230
         H            2.571802385147    -0.826205307055    -0.812715058480     1.007825032230
         H            2.572080385147    -0.825723307055     0.812878941520     1.007825032230
         H           -3.177196614853     0.102521692945     0.000410941520     1.007825032230

  Basis Set: AUG-CC-PVTZ
    Blend: AUG-CC-PVTZ
  Basis Set: (AUG-CC-PVTZ AUX)
    Blend: AUG-CC-PVTZ-JKFIT
	 Reference Energy          =    -248.2379043752557664 [Eh]
	 Singles Energy            =      -0.0000000000000000 [Eh]
	 Same-Spin Energy          =      -0.2478363531683377 [Eh]
	 Opposite-Spin Energy      =      -0.8445631770068065 [Eh]
	 Correlation Energy        =      -1.0923995301751441 [Eh]
	 Total Energy              =    -249.3303039054309238 [Eh]

	 ================> DF-SCS-MP2 Energies <==================
	-----------------------------------------------------------
	 SCS Same-Spin Scale       =       0.3333333333333333 [-]
	 SCS Opposite-Spin Scale   =       1.2000000000000000 [-]
	 SCS Same-Spin Energy      =      -0.0826121177227792 [Eh]
	 SCS Opposite-Spin Energy  =      -1.0134758124081678 [Eh]
	 SCS Correlation Energy    =      -1.0960879301309470 [Eh]
	 SCS Total Energy          =    -249.3339923053867153 [Eh]
	-----------------------------------------------------------

  Dipole Moment: [D]
     X:    -1.1263      Y:     0.6901      Z:     0.0019     Total:     1.3209

*** Psi4 exiting successfully. Buy a developer a beer!
