                               Psi4 1.3.2 release

  ==> Input File <==

--------------------------------------------------------------------------
#psi4
#
memory 32 gb

molecule  {
0 1
  O       -2.3851110    -0.4314350    -0.0002820
  N        2.5187010    -0.2207910    -0.0001120
  C       -0.0130310    -0.3414550     0.0003300
  C        1.2278268     0.4684526    -0.0863607
  C       -1.2862700     0.4819960     0.0000880
  H       -0.0208770    -0.9936910    -0.8809850
  H       -0.0206570    -0.9930790     0.8820930
  H        1.2550010     1.1745560     0.8775860
  H        1.2546990     1.1740390    -0.8782090
  H       -1.3125800     1.1321620    -0.8873520
  H       -1.3130830     1.1320500     0.8875860
  H        2.5458240    -0.8359140    -0.8127320
  H        2.5461020    -0.8354320     0.8128620
  H       -3.2031750     0.0928130     0.0003940
units angstrom
no_reorient  #important for SAPT in psi4, default
symmetry c1  #important for SAPT in psi4, default
}

set PROPERTIES_ORIGIN ["COM"]
properties('MP2/aug-cc-pvtz', properties = ['dipole'])
--------------------------------------------------------------------------

    Molecular point group: c1
  Charge       = 0
  Multiplicity = 1
  Basis Set: AUG-CC-PVTZ
    Blend: AUG-CC-PVTZ
  Basis Set: (AUG-CC-PVTZ AUX)
    Blend: AUG-CC-PVTZ-JKFIT

    Orbital Energies [Eh]
    ---------------------

    Doubly Occupied:

       1A    -20.562459     2A    -15.544082     3A    -11.280335
       4A    -11.253343     5A    -11.219152     6A     -1.358431
       7A     -1.182110     8A     -1.039645     9A     -0.889151
      10A     -0.808380    11A     -0.695150    12A     -0.679808
      13A     -0.640197    14A     -0.600770    15A     -0.566634
      16A     -0.553011    17A     -0.536446    18A     -0.489562
      19A     -0.458397    20A     -0.447743    21A     -0.398151

  @DF-RHF Final Energy:  -248.22516227821035

   => Energetics <=

    Nuclear Repulsion Energy =            186.0117549645018187
    One-Electron Energy =                -706.0679179946217801
    Two-Electron Energy =                 271.8310007519095848
    Total Energy =                       -248.2251622782103482
  Basis Set: (AUG-CC-PVTZ AUX)
    Blend: AUG-CC-PVTZ-RI
    Molecular point group: c1

    Geometry (in Angstrom), charge = 0, multiplicity = 1:

       Center              X                  Y                   Z               Mass
    ------------   -----------------  -----------------  -----------------  -----------------
         O           -2.358562156313    -0.409736196683     0.013520590593    15.994914619570
         N            2.545249843687    -0.199092196683     0.013690590593    14.003074004430
         C            0.013517843687    -0.319756196683     0.014132590593    12.000000000000
         C            1.254375643687     0.490151403317    -0.072558109407    12.000000000000
         C           -1.259721156313     0.503694803317     0.013890590593    12.000000000000
         H            0.005671843687    -0.971992196683    -0.867182409407     1.007825032230
         H            0.005891843687    -0.971380196683     0.895895590593     1.007825032230
         H            1.281549843687     1.196254803317     0.891388590593     1.007825032230
         H            1.281247843687     1.195737803317    -0.864406409407     1.007825032230
         H           -1.286031156313     1.153860803317    -0.873549409407     1.007825032230
         H           -1.286534156313     1.153748803317     0.901388590593     1.007825032230
         H            2.572372843687    -0.814215196683    -0.798929409407     1.007825032230
         H            2.572650843687    -0.813733196683     0.826664590593     1.007825032230
         H           -3.176626156313     0.114511803317     0.014196590593     1.007825032230

  Basis Set: AUG-CC-PVTZ
    Blend: AUG-CC-PVTZ
  Basis Set: (AUG-CC-PVTZ AUX)
    Blend: AUG-CC-PVTZ-JKFIT
	 Reference Energy          =    -248.2251622782103482 [Eh]
	 Singles Energy            =      -0.0000000000000000 [Eh]
	 Same-Spin Energy          =      -0.2487700044004528 [Eh]
	 Opposite-Spin Energy      =      -0.8465106182187152 [Eh]
	 Correlation Energy        =      -1.0952806226191680 [Eh]
	 Total Energy              =    -249.3204429008295051 [Eh]

	 ================> DF-SCS-MP2 Energies <==================
	-----------------------------------------------------------
	 SCS Same-Spin Scale       =       0.3333333333333333 [-]
	 SCS Opposite-Spin Scale   =       1.2000000000000000 [-]
	 SCS Same-Spin Energy      =      -0.0829233348001509 [Eh]
	 SCS Opposite-Spin Energy  =      -1.0158127418624583 [Eh]
	 SCS Correlation Energy    =      -1.0987360766626093 [Eh]
	 SCS Total Energy          =    -249.3238983548729664 [Eh]
	-----------------------------------------------------------

  Dipole Moment: [D]
     X:    -1.2025      Y:     0.6299      Z:    -0.0827     Total:     1.3600

*** Psi4 exiting successfully. Buy a developer a beer!
