                               Psi4 1.3.2 release

  ==> Input File <==

--------------------------------------------------------------------------
#psi4
#
memory 32 gb

molecule  {
0 1
  O       -2.2836119    -0.5412913    -0.0002671
  N        2.5187010    -0.2207910    -0.0001120
  C       -0.0130310    -0.3414550     0.0003300
  C        1.2524210     0.5177120    -0.0001190
  C       -1.2862700     0.4819960     0.0000880
  H       -0.0208770    -0.9936910    -0.8809850
  H       -0.0206570    -0.9930790     0.8820930
  H        1.2550010     1.1745560     0.8775860
  H        1.2546990     1.1740390    -0.8782090
  H       -1.3125800     1.1321620    -0.8873520
  H       -1.3130830     1.1320500     0.8875860
  H        2.5458240    -0.8359140    -0.8127320
  H        2.5461020    -0.8354320     0.8128620
  H       -3.2031750     0.0928130     0.0003940
units angstrom
no_reorient  #important for SAPT in psi4, default
symmetry c1  #important for SAPT in psi4, default
}

set PROPERTIES_ORIGIN ["COM"]
properties('MP2/aug-cc-pvtz', properties = ['dipole'])
--------------------------------------------------------------------------

    Molecular point group: c1
  Charge       = 0
  Multiplicity = 1
  Basis Set: AUG-CC-PVTZ
    Blend: AUG-CC-PVTZ
  Basis Set: (AUG-CC-PVTZ AUX)
    Blend: AUG-CC-PVTZ-JKFIT

    Orbital Energies [Eh]
    ---------------------

    Doubly Occupied:

       1A    -20.578655     2A    -15.539569     3A    -11.278037
       4A    -11.247010     5A    -11.215200     6A     -1.340099
       7A     -1.176188     8A     -1.025651     9A     -0.880377
      10A     -0.809100    11A     -0.680276    12A     -0.664238
      13A     -0.639257    14A     -0.595242    15A     -0.553601
      16A     -0.547456    17A     -0.528980    18A     -0.484159
      19A     -0.479350    20A     -0.451318    21A     -0.387425

  @DF-RHF Final Energy:  -248.20795136663031

   => Energetics <=

    Nuclear Repulsion Energy =            185.8056756480557397
    One-Electron Energy =                -705.8248765771271565
    Two-Electron Energy =                 271.8112495624411054
    Total Energy =                       -248.2079513666303114
  Basis Set: (AUG-CC-PVTZ AUX)
    Blend: AUG-CC-PVTZ-RI
    Molecular point group: c1

    Geometry (in Angstrom), charge = 0, multiplicity = 1:

       Center              X                  Y                   Z               Mass
    ------------   -----------------  -----------------  -----------------  -----------------
         O           -2.282621073839    -0.504059607707    -0.000253780690    15.994914619570
         N            2.519691826161    -0.183559307707    -0.000098680690    14.003074004430
         C           -0.012040173839    -0.304223307707     0.000343319310    12.000000000000
         C            1.253411826161     0.554943692293    -0.000105680690    12.000000000000
         C           -1.285279173839     0.519227692293     0.000101319310    12.000000000000
         H           -0.019886173839    -0.956459307707    -0.880971680690     1.007825032230
         H           -0.019666173839    -0.955847307707     0.882106319310     1.007825032230
         H            1.255991826161     1.211787692293     0.877599319310     1.007825032230
         H            1.255689826161     1.211270692293    -0.878195680690     1.007825032230
         H           -1.311589173839     1.169393692293    -0.887338680690     1.007825032230
         H           -1.312092173839     1.169281692293     0.887599319310     1.007825032230
         H            2.546814826161    -0.798682307707    -0.812718680690     1.007825032230
         H            2.547092826161    -0.798200307707     0.812875319310     1.007825032230
         H           -3.202184173839     0.130044692293     0.000407319310     1.007825032230

  Basis Set: AUG-CC-PVTZ
    Blend: AUG-CC-PVTZ
  Basis Set: (AUG-CC-PVTZ AUX)
    Blend: AUG-CC-PVTZ-JKFIT
	 Reference Energy          =    -248.2079513666303114 [Eh]
	 Singles Energy            =      -0.0000000000000000 [Eh]
	 Same-Spin Energy          =      -0.2505176855617998 [Eh]
	 Opposite-Spin Energy      =      -0.8517381702206843 [Eh]
	 Correlation Energy        =      -1.1022558557824842 [Eh]
	 Total Energy              =    -249.3102072224127994 [Eh]

	 ================> DF-SCS-MP2 Energies <==================
	-----------------------------------------------------------
	 SCS Same-Spin Scale       =       0.3333333333333333 [-]
	 SCS Opposite-Spin Scale   =       1.2000000000000000 [-]
	 SCS Same-Spin Energy      =      -0.0835058951872666 [Eh]
	 SCS Opposite-Spin Energy  =      -1.0220858042648211 [Eh]
	 SCS Correlation Energy    =      -1.1055916994520878 [Eh]
	 SCS Total Energy          =    -249.3135430660823886 [Eh]
	-----------------------------------------------------------

  Dipole Moment: [D]
     X:    -1.3882      Y:     0.8274      Z:     0.0017     Total:     1.6160

*** Psi4 exiting successfully. Buy a developer a beer!
