                               Psi4 1.4a3.dev225

  ==> Input File <==

--------------------------------------------------------------------------
#psi4
#
memory 32 gb

molecule  {
0 1
  O        2.3850150    -0.4314620    -0.0000020
  N       -2.5187610    -0.2207970     0.0000020
  C        0.0130360    -0.3413840    -0.0000010
  C       -1.2523980     0.5177100    -0.0000070
  C        1.3017875     0.4692092     0.0000059
  H        0.0207440    -0.9933730     0.8815180
  H        0.0207540    -0.9933720    -0.8815200
  H       -1.2549080     1.1742870    -0.8779080
  H       -1.2549050     1.1743050     0.8778810
  H        1.3129410     1.1321370     0.8874920
  H        1.3129410     1.1321530    -0.8874690
  H       -2.5459240    -0.8356760     0.8128080
  H       -2.5459230    -0.8357000    -0.8127860
  H        3.2032020     0.0925730    -0.0000070
units angstrom
no_reorient  #important for SAPT in psi4, default
symmetry c1  #important for SAPT in psi4, default
}

set PROPERTIES_ORIGIN ["COM"]
properties('MP2/aug-cc-pvtz', properties = ['dipole'])
--------------------------------------------------------------------------

    Molecular point group: c1
  Charge       = 0
  Multiplicity = 1
  Basis Set: AUG-CC-PVTZ
    Blend: AUG-CC-PVTZ
  Basis Set: (AUG-CC-PVTZ AUX)
    Blend: AUG-CC-PVTZ-JKFIT

    Orbital Energies [Eh]
    ---------------------

    Doubly Occupied:

       1A    -20.563647     2A    -15.541638     3A    -11.279217
       4A    -11.249817     5A    -11.218715     6A     -1.365717
       7A     -1.178179     8A     -1.030549     9A     -0.887166
      10A     -0.807943    11A     -0.698308    12A     -0.680895
      13A     -0.639080    14A     -0.598646    15A     -0.561732
      16A     -0.551579    17A     -0.536432    18A     -0.482632
      19A     -0.481211    20A     -0.444419    21A     -0.392051

  @DF-RHF Final Energy:  -248.23658835427997

   => Energetics <=

    Nuclear Repulsion Energy =            185.6352333965551509
    One-Electron Energy =                -705.3645020799506256
    Two-Electron Energy =                 271.4926803291155011
    Total Energy =                       -248.2365883542800020
  Basis Set: (AUG-CC-PVTZ AUX)
    Blend: AUG-CC-PVTZ-RI
    Molecular point group: c1

    Geometry (in Angstrom), charge = 0, multiplicity = 1:

       Center              X                  Y                   Z               Mass
    ------------   -----------------  -----------------  -----------------  -----------------
         O            2.359941913070    -0.415595369840    -0.000001732068    15.994914619570
         N           -2.543834086930    -0.204930369840     0.000002267932    14.003074004430
         C           -0.012037086930    -0.325517369840    -0.000000732068    12.000000000000
         C           -1.277471086930     0.533576630160    -0.000006732068    12.000000000000
         C            1.276714413070     0.485075830160     0.000006167932    12.000000000000
         H           -0.004329086930    -0.977506369840     0.881518267932     1.007825032230
         H           -0.004319086930    -0.977505369840    -0.881519732068     1.007825032230
         H           -1.279981086930     1.190153630160    -0.877907732068     1.007825032230
         H           -1.279978086930     1.190171630160     0.877881267932     1.007825032230
         H            1.287867913070     1.148003630160     0.887492267932     1.007825032230
         H            1.287867913070     1.148019630160    -0.887468732068     1.007825032230
         H           -2.570997086930    -0.819809369840     0.812808267932     1.007825032230
         H           -2.570996086930    -0.819833369840    -0.812785732068     1.007825032230
         H            3.178128913070     0.108439630160    -0.000006732068     1.007825032230

  Basis Set: AUG-CC-PVTZ
    Blend: AUG-CC-PVTZ
  Basis Set: (AUG-CC-PVTZ AUX)
    Blend: AUG-CC-PVTZ-JKFIT
	 Reference Energy          =    -248.2365883542799736 [Eh]
	 Singles Energy            =      -0.0000000000000000 [Eh]
	 Same-Spin Energy          =      -0.2481434389391870 [Eh]
	 Opposite-Spin Energy      =      -0.8451408343744948 [Eh]
	 Correlation Energy        =      -1.0932842733136818 [Eh]
	 Total Energy              =    -249.3298726275936588 [Eh]

	 ================> DF-SCS-MP2 Energies <==================
	-----------------------------------------------------------
	 SCS Same-Spin Scale       =       0.3333333333333333 [-]
	 SCS Opposite-Spin Scale   =       1.2000000000000000 [-]
	 SCS Same-Spin Energy      =      -0.0827144796463957 [Eh]
	 SCS Opposite-Spin Energy  =      -1.0141690012493938 [Eh]
	 SCS Correlation Energy    =      -1.0968834808957895 [Eh]
	 SCS Total Energy          =    -249.3334718351757715 [Eh]
	-----------------------------------------------------------

  Dipole Moment: [D]
     X:     1.2384      Y:     0.6690      Z:     0.0000     Total:     1.4075

*** Psi4 exiting successfully. Buy a developer a beer!
