                               Psi4 1.3.2 release

  ==> Input File <==

--------------------------------------------------------------------------
#psi4
#
memory 32 gb

molecule  {
0 1
  O       -2.4271839    -0.3686291     0.1287752
  N        2.5187010    -0.2207910    -0.0001120
  C       -0.0130310    -0.3414550     0.0003300
  C        1.2524210     0.5177120    -0.0001190
  C       -1.2862700     0.4819960     0.0000880
  H       -0.0208770    -0.9936910    -0.8809850
  H       -0.0206570    -0.9930790     0.8820930
  H        1.2550010     1.1745560     0.8775860
  H        1.2546990     1.1740390    -0.8782090
  H       -1.3125800     1.1321620    -0.8873520
  H       -1.3130830     1.1320500     0.8875860
  H        2.5458240    -0.8359140    -0.8127320
  H        2.5461020    -0.8354320     0.8128620
  H       -3.2031750     0.0928130     0.0003940
units angstrom
no_reorient  #important for SAPT in psi4, default
symmetry c1  #important for SAPT in psi4, default
}

set PROPERTIES_ORIGIN ["COM"]
properties('MP2/aug-cc-pvtz', properties = ['dipole'])
--------------------------------------------------------------------------

    Molecular point group: c1
  Charge       = 0
  Multiplicity = 1
  Basis Set: AUG-CC-PVTZ
    Blend: AUG-CC-PVTZ
  Basis Set: (AUG-CC-PVTZ AUX)
    Blend: AUG-CC-PVTZ-JKFIT

    Orbital Energies [Eh]
    ---------------------

    Doubly Occupied:

       1A    -20.552907     2A    -15.542871     3A    -11.279628
       4A    -11.251530     5A    -11.221087     6A     -1.368264
       7A     -1.179655     8A     -1.036158     9A     -0.892413
      10A     -0.810396    11A     -0.706511    12A     -0.681272
      13A     -0.638731    14A     -0.598517    15A     -0.563505
      16A     -0.552190    17A     -0.535722    18A     -0.486508
      19A     -0.482565    20A     -0.443997    21A     -0.393895

  @DF-RHF Final Energy:  -248.23535969788324

   => Energetics <=

    Nuclear Repulsion Energy =            185.4820038099130670
    One-Electron Energy =                -704.9980844738579435
    Two-Electron Energy =                 271.2807209660616081
    Total Energy =                       -248.2353596978832684
  Basis Set: (AUG-CC-PVTZ AUX)
    Blend: AUG-CC-PVTZ-RI
    Molecular point group: c1

    Geometry (in Angstrom), charge = 0, multiplicity = 1:

       Center              X                  Y                   Z               Mass
    ------------   -----------------  -----------------  -----------------  -----------------
         O           -2.395602020132    -0.368186744301     0.101293325750    15.994914619570
         N            2.550282879868    -0.220348644301    -0.027593874250    14.003074004430
         C            0.018550879868    -0.341012644301    -0.027151874250    12.000000000000
         C            1.284002879868     0.518154355699    -0.027600874250    12.000000000000
         C           -1.254688120132     0.482438355699    -0.027393874250    12.000000000000
         H            0.010704879868    -0.993248644301    -0.908466874250     1.007825032230
         H            0.010924879868    -0.992636644301     0.854611125750     1.007825032230
         H            1.286582879868     1.174998355699     0.850104125750     1.007825032230
         H            1.286280879868     1.174481355699    -0.905690874250     1.007825032230
         H           -1.280998120132     1.132604355699    -0.914833874250     1.007825032230
         H           -1.281501120132     1.132492355699     0.860104125750     1.007825032230
         H            2.577405879868    -0.835471644301    -0.840213874250     1.007825032230
         H            2.577683879868    -0.834989644301     0.785380125750     1.007825032230
         H           -3.171593120132     0.093255355699    -0.027087874250     1.007825032230

  Basis Set: AUG-CC-PVTZ
    Blend: AUG-CC-PVTZ
  Basis Set: (AUG-CC-PVTZ AUX)
    Blend: AUG-CC-PVTZ-JKFIT
	 Reference Energy          =    -248.2353596978832400 [Eh]
	 Singles Energy            =      -0.0000000000000000 [Eh]
	 Same-Spin Energy          =      -0.2473759931873143 [Eh]
	 Opposite-Spin Energy      =      -0.8433876738115509 [Eh]
	 Correlation Energy        =      -1.0907636669988652 [Eh]
	 Total Energy              =    -249.3261233648821076 [Eh]

	 ================> DF-SCS-MP2 Energies <==================
	-----------------------------------------------------------
	 SCS Same-Spin Scale       =       0.3333333333333333 [-]
	 SCS Opposite-Spin Scale   =       1.2000000000000000 [-]
	 SCS Same-Spin Energy      =      -0.0824586643957714 [Eh]
	 SCS Opposite-Spin Energy  =      -1.0120652085738611 [Eh]
	 SCS Correlation Energy    =      -1.0945238729696325 [Eh]
	 SCS Total Energy          =    -249.3298835708528713 [Eh]
	-----------------------------------------------------------

  Dipole Moment: [D]
     X:    -1.0496      Y:     0.6234      Z:    -0.3199     Total:     1.2620

*** Psi4 exiting successfully. Buy a developer a beer!
