                               Psi4 1.3.2 release

  ==> Input File <==

--------------------------------------------------------------------------
#psi4
#
memory 32 gb

molecule  {
0 1
  O       -2.3851110    -0.4314350    -0.0002820
  N        2.5187010    -0.2207910    -0.0001120
  C       -0.0130310    -0.3414550     0.0003300
  C        1.2524210     0.5177120    -0.0001190
  C       -1.2862700     0.4819960     0.0000880
  H       -0.0208770    -0.9936910    -0.8809850
  H       -0.0206570    -0.9930790     0.8820930
  H        1.2550010     1.1745560     0.8775860
  H        1.2546990     1.1740390    -0.8782090
  H       -1.3125800     1.1321620    -0.8873520
  H       -1.3130830     1.1320500     0.8875860
  H        2.5458240    -0.8359140    -0.8127320
  H        2.5461020    -0.8354320     0.8128620
  H       -3.2031750     0.0928130     0.0003940
units angstrom
no_reorient  #important for SAPT in psi4, default
symmetry c1  #important for SAPT in psi4, default
}

set PROPERTIES_ORIGIN ["COM"]
properties('MP2/aug-cc-pvtz', properties = ['dipole'])
--------------------------------------------------------------------------

    Molecular point group: c1
  Charge       = 0
  Multiplicity = 1
  Basis Set: AUG-CC-PVTZ
    Blend: AUG-CC-PVTZ
  Basis Set: (AUG-CC-PVTZ AUX)
    Blend: AUG-CC-PVTZ-JKFIT

    Orbital Energies [Eh]
    ---------------------

    Doubly Occupied:

       1A    -20.561481     2A    -15.541771     3A    -11.278777
       4A    -11.250072     5A    -11.219034     6A     -1.357406
       7A     -1.178509     8A     -1.032627     9A     -0.887611
      10A     -0.809118    11A     -0.692747    12A     -0.681544
      13A     -0.639256    14A     -0.597401    15A     -0.558237
      16A     -0.550774    17A     -0.535956    18A     -0.485081
      19A     -0.482744    20A     -0.447168    21A     -0.392065

  @DF-RHF Final Energy:  -248.23672311069905

   => Energetics <=

    Nuclear Repulsion Energy =            185.5392777582499093
    One-Electron Energy =                -705.1932413185876385
    Two-Electron Energy =                 271.4172404496386548
    Total Energy =                       -248.2367231106990744
  Basis Set: (AUG-CC-PVTZ AUX)
    Blend: AUG-CC-PVTZ-RI
    Molecular point group: c1

    Geometry (in Angstrom), charge = 0, multiplicity = 1:

       Center              X                  Y                   Z               Mass
    ------------   -----------------  -----------------  -----------------  -----------------
         O           -2.362493642069    -0.417610517841    -0.000265505930    15.994914619570
         N            2.541318357931    -0.206966517841    -0.000095505930    14.003074004430
         C            0.009586357931    -0.327630517841     0.000346494070    12.000000000000
         C            1.275038357931     0.531536482159    -0.000102505930    12.000000000000
         C           -1.263652642069     0.495820482159     0.000104494070    12.000000000000
         H            0.001740357931    -0.979866517841    -0.880968505930     1.007825032230
         H            0.001960357931    -0.979254517841     0.882109494070     1.007825032230
         H            1.277618357931     1.188380482159     0.877602494070     1.007825032230
         H            1.277316357931     1.187863482159    -0.878192505930     1.007825032230
         H           -1.289962642069     1.145986482159    -0.887335505930     1.007825032230
         H           -1.290465642069     1.145874482159     0.887602494070     1.007825032230
         H            2.568441357931    -0.822089517841    -0.812715505930     1.007825032230
         H            2.568719357931    -0.821607517841     0.812878494070     1.007825032230
         H           -3.180557642069     0.106637482159     0.000410494070     1.007825032230

  Basis Set: AUG-CC-PVTZ
    Blend: AUG-CC-PVTZ
  Basis Set: (AUG-CC-PVTZ AUX)
    Blend: AUG-CC-PVTZ-JKFIT
	 Reference Energy          =    -248.2367231106990459 [Eh]
	 Singles Energy            =      -0.0000000000000000 [Eh]
	 Same-Spin Energy          =      -0.2481862560961706 [Eh]
	 Opposite-Spin Energy      =      -0.8454491166878695 [Eh]
	 Correlation Energy        =      -1.0936353727840400 [Eh]
	 Total Energy              =    -249.3303584834830815 [Eh]

	 ================> DF-SCS-MP2 Energies <==================
	-----------------------------------------------------------
	 SCS Same-Spin Scale       =       0.3333333333333333 [-]
	 SCS Opposite-Spin Scale   =       1.2000000000000000 [-]
	 SCS Same-Spin Energy      =      -0.0827287520320568 [Eh]
	 SCS Opposite-Spin Energy  =      -1.0145389400254434 [Eh]
	 SCS Correlation Energy    =      -1.0972676920575002 [Eh]
	 SCS Total Energy          =    -249.3339908027565457 [Eh]
	-----------------------------------------------------------

  Dipole Moment: [D]
     X:    -1.1697      Y:     0.7121      Z:     0.0019     Total:     1.3694

*** Psi4 exiting successfully. Buy a developer a beer!
