                               Psi4 1.3.2 release

  ==> Input File <==

--------------------------------------------------------------------------
#psi4
#
memory 32 gb

molecule  {
0 1
  O       -2.3851110    -0.4314350    -0.0002820
  N        2.5187010    -0.2207910    -0.0001120
  C       -0.0130310    -0.3414550     0.0003300
  C        1.2524210     0.5177120    -0.0001190
  C       -1.2862700     0.4819960     0.0000880
  H       -0.0208770    -0.9936910    -0.8809850
  H       -0.0206570    -0.9930790     0.8820930
  H        1.2550010     1.1745560     0.8775860
  H        1.2546990     1.1740390    -0.8782090
  H       -1.3125800     1.1321620    -0.8873520
  H       -1.3130830     1.1320500     0.8875860
  H        2.5458240    -0.8359140    -0.8127320
  H        2.5407268    -0.7148597     0.6533834
  H       -3.2031750     0.0928130     0.0003940
units angstrom
no_reorient  #important for SAPT in psi4, default
symmetry c1  #important for SAPT in psi4, default
}

set PROPERTIES_ORIGIN ["COM"]
properties('MP2/aug-cc-pvtz', properties = ['dipole'])
--------------------------------------------------------------------------

    Molecular point group: c1
  Charge       = 0
  Multiplicity = 1
  Basis Set: AUG-CC-PVTZ
    Blend: AUG-CC-PVTZ
  Basis Set: (AUG-CC-PVTZ AUX)
    Blend: AUG-CC-PVTZ-JKFIT

    Orbital Energies [Eh]
    ---------------------

    Doubly Occupied:

       1A    -20.561743     2A    -15.517033     3A    -11.279206
       4A    -11.249842     5A    -11.219597     6A     -1.357683
       7A     -1.214365     8A     -1.039888     9A     -0.898602
      10A     -0.812226    11A     -0.704585    12A     -0.692228
      13A     -0.649858    14A     -0.601806    15A     -0.564062
      16A     -0.555665    17A     -0.536964    18A     -0.485776
      19A     -0.484798    20A     -0.447469    21A     -0.395263

  @DF-RHF Final Energy:  -248.19340133758649

   => Energetics <=

    Nuclear Repulsion Energy =            186.6547030036952322
    One-Electron Energy =                -707.1588889213319362
    Two-Electron Energy =                 272.3107845800502105
    Total Energy =                       -248.1934013375865220
  Basis Set: (AUG-CC-PVTZ AUX)
    Blend: AUG-CC-PVTZ-RI
    Molecular point group: c1

    Geometry (in Angstrom), charge = 0, multiplicity = 1:

       Center              X                  Y                   Z               Mass
    ------------   -----------------  -----------------  -----------------  -----------------
         O           -2.362421477748    -0.419229251684     0.001875561356    15.994914619570
         N            2.541390522252    -0.208585251684     0.002045561356    14.003074004430
         C            0.009658522252    -0.329249251684     0.002487561356    12.000000000000
         C            1.275110522252     0.529917748316     0.002038561356    12.000000000000
         C           -1.263580477748     0.494201748316     0.002245561356    12.000000000000
         H            0.001812522252    -0.981485251684    -0.878827438644     1.007825032230
         H            0.002032522252    -0.980873251684     0.884250561356     1.007825032230
         H            1.277690522252     1.186761748316     0.879743561356     1.007825032230
         H            1.277388522252     1.186244748316    -0.876051438644     1.007825032230
         H           -1.289890477748     1.144367748316    -0.885194438644     1.007825032230
         H           -1.290393477748     1.144255748316     0.889743561356     1.007825032230
         H            2.568513522252    -0.823708251684    -0.810574438644     1.007825032230
         H            2.563416322252    -0.702653951684     0.655540961356     1.007825032230
         H           -3.180485477748     0.105018748316     0.002551561356     1.007825032230

  Basis Set: AUG-CC-PVTZ
    Blend: AUG-CC-PVTZ
  Basis Set: (AUG-CC-PVTZ AUX)
    Blend: AUG-CC-PVTZ-JKFIT
	 Reference Energy          =    -248.1934013375864936 [Eh]
	 Singles Energy            =      -0.0000000000000000 [Eh]
	 Same-Spin Energy          =      -0.2473843386004782 [Eh]
	 Opposite-Spin Energy      =      -0.8429208242292788 [Eh]
	 Correlation Energy        =      -1.0903051628297571 [Eh]
	 Total Energy              =    -249.2837065004162582 [Eh]

	 ================> DF-SCS-MP2 Energies <==================
	-----------------------------------------------------------
	 SCS Same-Spin Scale       =       0.3333333333333333 [-]
	 SCS Opposite-Spin Scale   =       1.2000000000000000 [-]
	 SCS Same-Spin Energy      =      -0.0824614462001594 [Eh]
	 SCS Opposite-Spin Energy  =      -1.0115049890751346 [Eh]
	 SCS Correlation Energy    =      -1.0939664352752940 [Eh]
	 SCS Total Energy          =    -249.2873677728617849 [Eh]
	-----------------------------------------------------------

  Dipole Moment: [D]
     X:    -1.1922      Y:     0.7125      Z:    -0.0482     Total:     1.3897

*** Psi4 exiting successfully. Buy a developer a beer!
