                               Psi4 1.3.2 release

  ==> Input File <==

--------------------------------------------------------------------------
#psi4
#
memory 32 gb

molecule  {
0 1
  O       -2.4461520    -0.3525587    -0.0002897
  N        2.5187010    -0.2207910    -0.0001120
  C       -0.0130310    -0.3414550     0.0003300
  C        1.2524210     0.5177120    -0.0001190
  C       -1.2862700     0.4819960     0.0000880
  H       -0.0208770    -0.9936910    -0.8809850
  H       -0.0206570    -0.9930790     0.8820930
  H        1.2550010     1.1745560     0.8775860
  H        1.2546990     1.1740390    -0.8782090
  H       -1.3125800     1.1321620    -0.8873520
  H       -1.3130830     1.1320500     0.8875860
  H        2.5458240    -0.8359140    -0.8127320
  H        2.5461020    -0.8354320     0.8128620
  H       -3.2031750     0.0928130     0.0003940
units angstrom
no_reorient  #important for SAPT in psi4, default
symmetry c1  #important for SAPT in psi4, default
}

set PROPERTIES_ORIGIN ["COM"]
properties('MP2/aug-cc-pvtz', properties = ['dipole'])
--------------------------------------------------------------------------

    Molecular point group: c1
  Charge       = 0
  Multiplicity = 1
  Basis Set: AUG-CC-PVTZ
    Blend: AUG-CC-PVTZ
  Basis Set: (AUG-CC-PVTZ AUX)
    Blend: AUG-CC-PVTZ-JKFIT

    Orbital Energies [Eh]
    ---------------------

    Doubly Occupied:

       1A    -20.547894     2A    -15.543429     3A    -11.280670
       4A    -11.252266     5A    -11.222120     6A     -1.375386
       7A     -1.180245     8A     -1.038346     9A     -0.895674
      10A     -0.811369    11A     -0.712076    12A     -0.682805
      13A     -0.639870    14A     -0.599017    15A     -0.565525
      16A     -0.553253    17A     -0.535369    18A     -0.485151
      19A     -0.482373    20A     -0.445357    21A     -0.394877

  @DF-RHF Final Energy:  -248.23228166915351

   => Energetics <=

    Nuclear Repulsion Energy =            185.5227602957635327
    One-Electron Energy =                -705.0239367672753588
    Two-Electron Energy =                 271.2688948023583180
    Total Energy =                       -248.2322816691535081
  Basis Set: (AUG-CC-PVTZ AUX)
    Blend: AUG-CC-PVTZ-RI
    Molecular point group: c1

    Geometry (in Angstrom), charge = 0, multiplicity = 1:

       Center              X                  Y                   Z               Mass
    ------------   -----------------  -----------------  -----------------  -----------------
         O           -2.410528564914    -0.355540483196    -0.000271565282    15.994914619570
         N            2.554324435086    -0.223772783196    -0.000093865282    14.003074004430
         C            0.022592435086    -0.344436783196     0.000348134718    12.000000000000
         C            1.288044435086     0.514730216804    -0.000100865282    12.000000000000
         C           -1.250646564914     0.479014216804     0.000106134718    12.000000000000
         H            0.014746435086    -0.996672783196    -0.880966865282     1.007825032230
         H            0.014966435086    -0.996060783196     0.882111134718     1.007825032230
         H            1.290624435086     1.171574216804     0.877604134718     1.007825032230
         H            1.290322435086     1.171057216804    -0.878190865282     1.007825032230
         H           -1.276956564914     1.129180216804    -0.887333865282     1.007825032230
         H           -1.277459564914     1.129068216804     0.887604134718     1.007825032230
         H            2.581447435086    -0.838895783196    -0.812713865282     1.007825032230
         H            2.581725435086    -0.838413783196     0.812880134718     1.007825032230
         H           -3.167551564914     0.089831216804     0.000412134718     1.007825032230

  Basis Set: AUG-CC-PVTZ
    Blend: AUG-CC-PVTZ
  Basis Set: (AUG-CC-PVTZ AUX)
    Blend: AUG-CC-PVTZ-JKFIT
	 Reference Energy          =    -248.2322816691535081 [Eh]
	 Singles Energy            =      -0.0000000000000000 [Eh]
	 Same-Spin Energy          =      -0.2468797852791091 [Eh]
	 Opposite-Spin Energy      =      -0.8422110669595365 [Eh]
	 Correlation Energy        =      -1.0890908522386455 [Eh]
	 Total Energy              =    -249.3213725213921634 [Eh]

	 ================> DF-SCS-MP2 Energies <==================
	-----------------------------------------------------------
	 SCS Same-Spin Scale       =       0.3333333333333333 [-]
	 SCS Opposite-Spin Scale   =       1.2000000000000000 [-]
	 SCS Same-Spin Energy      =      -0.0822932617597030 [Eh]
	 SCS Opposite-Spin Energy  =      -1.0106532803514439 [Eh]
	 SCS Correlation Energy    =      -1.0929465421111468 [Eh]
	 SCS Total Energy          =    -249.3252282112646583 [Eh]
	-----------------------------------------------------------

  Dipole Moment: [D]
     X:    -0.9847      Y:     0.6186      Z:     0.0020     Total:     1.1629

*** Psi4 exiting successfully. Buy a developer a beer!
