                               Psi4 1.4a3.dev225

  ==> Input File <==

--------------------------------------------------------------------------
#psi4
#
memory 32 gb

molecule  {
0 1
  O        2.3850150    -0.4314620    -0.0000020
  N       -2.5187610    -0.2207970     0.0000020
  C        0.0130360    -0.3413840    -0.0000010
  C       -1.2092060     0.5428983    -0.0000073
  C        1.2864090     0.4819960     0.0000060
  H        0.0207440    -0.9933730     0.8815180
  H        0.0207540    -0.9933720    -0.8815200
  H       -1.2549080     1.1742870    -0.8779080
  H       -1.2549050     1.1743050     0.8778810
  H        1.3129410     1.1321370     0.8874920
  H        1.3129410     1.1321530    -0.8874690
  H       -2.5459240    -0.8356760     0.8128080
  H       -2.5459230    -0.8357000    -0.8127860
  H        3.2032020     0.0925730    -0.0000070
units angstrom
no_reorient  #important for SAPT in psi4, default
symmetry c1  #important for SAPT in psi4, default
}

set PROPERTIES_ORIGIN ["COM"]
properties('MP2/aug-cc-pvtz', properties = ['dipole'])
--------------------------------------------------------------------------

    Molecular point group: c1
  Charge       = 0
  Multiplicity = 1
  Basis Set: AUG-CC-PVTZ
    Blend: AUG-CC-PVTZ
  Basis Set: (AUG-CC-PVTZ AUX)
    Blend: AUG-CC-PVTZ-JKFIT

    Orbital Energies [Eh]
    ---------------------

    Doubly Occupied:

       1A    -20.561769     2A    -15.540159     3A    -11.279078
       4A    -11.249584     5A    -11.219828     6A     -1.357872
       7A     -1.165408     8A     -1.036476     9A     -0.890262
      10A     -0.811096    11A     -0.693331    12A     -0.680650
      13A     -0.637087    14A     -0.593322    15A     -0.555173
      16A     -0.552901    17A     -0.532821    18A     -0.488772
      19A     -0.485680    20A     -0.447883    21A     -0.392347

  @DF-RHF Final Energy:  -248.23436435844101

   => Energetics <=

    Nuclear Repulsion Energy =            185.4674843971257019
    One-Electron Energy =                -705.0607001935196649
    Two-Electron Energy =                 271.3588514379529215
    Total Energy =                       -248.2343643584409847
  Basis Set: (AUG-CC-PVTZ AUX)
    Blend: AUG-CC-PVTZ-RI
    Molecular point group: c1

    Geometry (in Angstrom), charge = 0, multiplicity = 1:

       Center              X                  Y                   Z               Mass
    ------------   -----------------  -----------------  -----------------  -----------------
         O            2.355495808742    -0.421665848438    -0.000001700097    15.994914619570
         N           -2.548280191258    -0.211000848438     0.000002299903    14.003074004430
         C           -0.016483191258    -0.331587848438    -0.000000700097    12.000000000000
         C           -1.238725191258     0.552694451562    -0.000007000097    12.000000000000
         C            1.256889808742     0.491792151562     0.000006299903    12.000000000000
         H           -0.008775191258    -0.983576848438     0.881518299903     1.007825032230
         H           -0.008765191258    -0.983575848438    -0.881519700097     1.007825032230
         H           -1.284427191258     1.184083151562    -0.877907700097     1.007825032230
         H           -1.284424191258     1.184101151562     0.877881299903     1.007825032230
         H            1.283421808742     1.141933151562     0.887492299903     1.007825032230
         H            1.283421808742     1.141949151562    -0.887468700097     1.007825032230
         H           -2.575443191258    -0.825879848438     0.812808299903     1.007825032230
         H           -2.575442191258    -0.825903848438    -0.812785700097     1.007825032230
         H            3.173682808742     0.102369151562    -0.000006700097     1.007825032230

  Basis Set: AUG-CC-PVTZ
    Blend: AUG-CC-PVTZ
  Basis Set: (AUG-CC-PVTZ AUX)
    Blend: AUG-CC-PVTZ-JKFIT
	 Reference Energy          =    -248.2343643584410131 [Eh]
	 Singles Energy            =      -0.0000000000000000 [Eh]
	 Same-Spin Energy          =      -0.2482040938117878 [Eh]
	 Opposite-Spin Energy      =      -0.8458787045245683 [Eh]
	 Correlation Energy        =      -1.0940827983363561 [Eh]
	 Total Energy              =    -249.3284471567773721 [Eh]

	 ================> DF-SCS-MP2 Energies <==================
	-----------------------------------------------------------
	 SCS Same-Spin Scale       =       0.3333333333333333 [-]
	 SCS Opposite-Spin Scale   =       1.2000000000000000 [-]
	 SCS Same-Spin Energy      =      -0.0827346979372626 [Eh]
	 SCS Opposite-Spin Energy  =      -1.0150544454294819 [Eh]
	 SCS Correlation Energy    =      -1.0977891433667444 [Eh]
	 SCS Total Energy          =    -249.3321535018077668 [Eh]
	-----------------------------------------------------------

  Dipole Moment: [D]
     X:     1.2985      Y:     0.7547      Z:     0.0000     Total:     1.5019

*** Psi4 exiting successfully. Buy a developer a beer!
