                               Psi4 1.3.2 release

  ==> Input File <==

--------------------------------------------------------------------------
#psi4
#
memory 32 gb

molecule  {
0 1
  O       -2.3851110    -0.4314350    -0.0002820
  N        2.5187010    -0.2207910    -0.0001120
  C       -0.0130310    -0.3414550     0.0003300
  C        1.2524210     0.5177120    -0.0001190
  C       -1.3526644     0.5564222     0.0001681
  H       -0.0208770    -0.9936910    -0.8809850
  H       -0.0206570    -0.9930790     0.8820930
  H        1.2550010     1.1745560     0.8775860
  H        1.2546990     1.1740390    -0.8782090
  H       -1.3125800     1.1321620    -0.8873520
  H       -1.3130830     1.1320500     0.8875860
  H        2.5458240    -0.8359140    -0.8127320
  H        2.5461020    -0.8354320     0.8128620
  H       -3.2031750     0.0928130     0.0003940
units angstrom
no_reorient  #important for SAPT in psi4, default
symmetry c1  #important for SAPT in psi4, default
}

set PROPERTIES_ORIGIN ["COM"]
properties('MP2/aug-cc-pvtz', properties = ['dipole'])
--------------------------------------------------------------------------

    Molecular point group: c1
  Charge       = 0
  Multiplicity = 1
  Basis Set: AUG-CC-PVTZ
    Blend: AUG-CC-PVTZ
  Basis Set: (AUG-CC-PVTZ AUX)
    Blend: AUG-CC-PVTZ-JKFIT

    Orbital Energies [Eh]
    ---------------------

    Doubly Occupied:

       1A    -20.564868     2A    -15.539939     3A    -11.275901
       4A    -11.247273     5A    -11.220945     6A     -1.360287
       7A     -1.176145     8A     -1.017005     9A     -0.890150
      10A     -0.810563    11A     -0.690096    12A     -0.680806
      13A     -0.647146    14A     -0.592359    15A     -0.557425
      16A     -0.553420    17A     -0.533848    18A     -0.480224
      19A     -0.467872    20A     -0.461997    21A     -0.386395

  @DF-RHF Final Energy:  -248.22698871917871

   => Energetics <=

    Nuclear Repulsion Energy =            184.5624674420799920
    One-Electron Energy =                -703.2695841095980995
    Two-Electron Energy =                 270.4801279483393728
    Total Energy =                       -248.2269887191787348
  Basis Set: (AUG-CC-PVTZ AUX)
    Blend: AUG-CC-PVTZ-RI
    Molecular point group: c1

    Geometry (in Angstrom), charge = 0, multiplicity = 1:

       Center              X                  Y                   Z               Mass
    ------------   -----------------  -----------------  -----------------  -----------------
         O           -2.351880219479    -0.429507857260    -0.000278310250    15.994914619570
         N            2.551931780521    -0.218863857260    -0.000108310250    14.003074004430
         C            0.020199780521    -0.339527857260     0.000333689750    12.000000000000
         C            1.285651780521     0.519639142740    -0.000115310250    12.000000000000
         C           -1.319433619479     0.558349342740     0.000171789750    12.000000000000
         H            0.012353780521    -0.991763857260    -0.880981310250     1.007825032230
         H            0.012573780521    -0.991151857260     0.882096689750     1.007825032230
         H            1.288231780521     1.176483142740     0.877589689750     1.007825032230
         H            1.287929780521     1.175966142740    -0.878205310250     1.007825032230
         H           -1.279349219479     1.134089142740    -0.887348310250     1.007825032230
         H           -1.279852219479     1.133977142740     0.887589689750     1.007825032230
         H            2.579054780521    -0.833986857260    -0.812728310250     1.007825032230
         H            2.579332780521    -0.833504857260     0.812865689750     1.007825032230
         H           -3.169944219479     0.094740142740     0.000397689750     1.007825032230

  Basis Set: AUG-CC-PVTZ
    Blend: AUG-CC-PVTZ
  Basis Set: (AUG-CC-PVTZ AUX)
    Blend: AUG-CC-PVTZ-JKFIT
	 Reference Energy          =    -248.2269887191787063 [Eh]
	 Singles Energy            =      -0.0000000000000000 [Eh]
	 Same-Spin Energy          =      -0.2481864945660525 [Eh]
	 Opposite-Spin Energy      =      -0.8462247178431154 [Eh]
	 Correlation Energy        =      -1.0944112124091678 [Eh]
	 Total Energy              =    -249.3213999315878766 [Eh]

	 ================> DF-SCS-MP2 Energies <==================
	-----------------------------------------------------------
	 SCS Same-Spin Scale       =       0.3333333333333333 [-]
	 SCS Opposite-Spin Scale   =       1.2000000000000000 [-]
	 SCS Same-Spin Energy      =      -0.0827288315220175 [Eh]
	 SCS Opposite-Spin Energy  =      -1.0154696614117384 [Eh]
	 SCS Correlation Energy    =      -1.0981984929337560 [Eh]
	 SCS Total Energy          =    -249.3251872121124677 [Eh]
	-----------------------------------------------------------

  Dipole Moment: [D]
     X:    -1.3048      Y:     0.7717      Z:     0.0020     Total:     1.5159

*** Psi4 exiting successfully. Buy a developer a beer!
