                               Psi4 1.3.2 release

  ==> Input File <==

--------------------------------------------------------------------------
#psi4
#
memory 32 gb

molecule  {
0 1
  O       -2.3851110    -0.4314350    -0.0002820
  N        2.4921562    -0.2645337    -0.0000952
  C       -0.0130310    -0.3414550     0.0003300
  C        1.2524210     0.5177120    -0.0001190
  C       -1.2862700     0.4819960     0.0000880
  H       -0.0208770    -0.9936910    -0.8809850
  H       -0.0206570    -0.9930790     0.8820930
  H        1.2550010     1.1745560     0.8775860
  H        1.2546990     1.1740390    -0.8782090
  H       -1.3125800     1.1321620    -0.8873520
  H       -1.3130830     1.1320500     0.8875860
  H        2.5458240    -0.8359140    -0.8127320
  H        2.5461020    -0.8354320     0.8128620
  H       -3.2031750     0.0928130     0.0003940
units angstrom
no_reorient  #important for SAPT in psi4, default
symmetry c1  #important for SAPT in psi4, default
}

set PROPERTIES_ORIGIN ["COM"]
properties('MP2/aug-cc-pvtz', properties = ['dipole'])
--------------------------------------------------------------------------

    Molecular point group: c1
  Charge       = 0
  Multiplicity = 1
  Basis Set: AUG-CC-PVTZ
    Blend: AUG-CC-PVTZ
  Basis Set: (AUG-CC-PVTZ AUX)
    Blend: AUG-CC-PVTZ-JKFIT

    Orbital Energies [Eh]
    ---------------------

    Doubly Occupied:

       1A    -20.560651     2A    -15.533851     3A    -11.277537
       4A    -11.250333     5A    -11.217296     6A     -1.356556
       7A     -1.181231     8A     -1.032363     9A     -0.889096
      10A     -0.808511    11A     -0.691793    12A     -0.687922
      13A     -0.643095    14A     -0.599553    15A     -0.555432
      16A     -0.554506    17A     -0.537266    18A     -0.484866
      19A     -0.484055    20A     -0.446339    21A     -0.385347

  @DF-RHF Final Energy:  -248.23732936585736

   => Energetics <=

    Nuclear Repulsion Energy =            185.8978165509348628
    One-Electron Energy =                -705.9150951022789968
    Two-Electron Energy =                 271.7799491854867711
    Total Energy =                       -248.2373293658573630
  Basis Set: (AUG-CC-PVTZ AUX)
    Blend: AUG-CC-PVTZ-RI
    Molecular point group: c1

    Geometry (in Angstrom), charge = 0, multiplicity = 1:

       Center              X                  Y                   Z               Mass
    ------------   -----------------  -----------------  -----------------  -----------------
         O           -2.357542041529    -0.409450864089    -0.000268639760    15.994914619570
         N            2.519725158471    -0.242549564089    -0.000081839760    14.003074004430
         C            0.014537958471    -0.319470864089     0.000343360240    12.000000000000
         C            1.279989958471     0.539696135911    -0.000105639760    12.000000000000
         C           -1.258701041529     0.503980135911     0.000101360240    12.000000000000
         H            0.006691958471    -0.971706864089    -0.880971639760     1.007825032230
         H            0.006911958471    -0.971094864089     0.882106360240     1.007825032230
         H            1.282569958471     1.196540135911     0.877599360240     1.007825032230
         H            1.282267958471     1.196023135911    -0.878195639760     1.007825032230
         H           -1.285011041529     1.154146135911    -0.887338639760     1.007825032230
         H           -1.285514041529     1.154034135911     0.887599360240     1.007825032230
         H            2.573392958471    -0.813929864089    -0.812718639760     1.007825032230
         H            2.573670958471    -0.813447864089     0.812875360240     1.007825032230
         H           -3.175606041529     0.114797135911     0.000407360240     1.007825032230

  Basis Set: AUG-CC-PVTZ
    Blend: AUG-CC-PVTZ
  Basis Set: (AUG-CC-PVTZ AUX)
    Blend: AUG-CC-PVTZ-JKFIT
	 Reference Energy          =    -248.2373293658573630 [Eh]
	 Singles Energy            =      -0.0000000000000000 [Eh]
	 Same-Spin Energy          =      -0.2479470305650627 [Eh]
	 Opposite-Spin Energy      =      -0.8444653991019040 [Eh]
	 Correlation Energy        =      -1.0924124296669666 [Eh]
	 Total Energy              =    -249.3297417955243418 [Eh]

	 ================> DF-SCS-MP2 Energies <==================
	-----------------------------------------------------------
	 SCS Same-Spin Scale       =       0.3333333333333333 [-]
	 SCS Opposite-Spin Scale   =       1.2000000000000000 [-]
	 SCS Same-Spin Energy      =      -0.0826490101883542 [Eh]
	 SCS Opposite-Spin Energy  =      -1.0133584789222847 [Eh]
	 SCS Correlation Energy    =      -1.0960074891106388 [Eh]
	 SCS Total Energy          =    -249.3333368549679960 [Eh]
	-----------------------------------------------------------

  Dipole Moment: [D]
     X:    -1.0694      Y:     0.7883      Z:     0.0018     Total:     1.3285

*** Psi4 exiting successfully. Buy a developer a beer!
