                               Psi4 1.3.2 release

  ==> Input File <==

--------------------------------------------------------------------------
#psi4
#
memory 32 gb

molecule  {
0 1
  O       -2.3851110    -0.4314350    -0.0002820
  N        2.5187010    -0.2207910    -0.0001120
  C       -0.0130310    -0.3414550     0.0003300
  C        1.2524210     0.5177120    -0.0001190
  C       -1.2862700     0.4819960     0.0000880
  H       -0.0208770    -0.9936910    -0.8809850
  H       -0.0206570    -0.9930790     0.8820930
  H        1.2550010     1.1745560     0.8775860
  H        1.2546990     1.1740390    -0.8782090
  H       -1.3125800     1.1321620    -0.8873520
  H       -1.3130830     1.1320500     0.8875860
  H        2.5458240    -0.8359140    -0.8127320
  H        2.5461020    -0.8354320     0.8128620
  H       -3.3715650     0.2007240     0.0005331
units angstrom
no_reorient  #important for SAPT in psi4, default
symmetry c1  #important for SAPT in psi4, default
}

set PROPERTIES_ORIGIN ["COM"]
properties('MP2/aug-cc-pvtz', properties = ['dipole'])
--------------------------------------------------------------------------

    Molecular point group: c1
  Charge       = 0
  Multiplicity = 1
  Basis Set: AUG-CC-PVTZ
    Blend: AUG-CC-PVTZ
  Basis Set: (AUG-CC-PVTZ AUX)
    Blend: AUG-CC-PVTZ-JKFIT

    Orbital Energies [Eh]
    ---------------------

    Doubly Occupied:

       1A    -20.576905     2A    -15.541626     3A    -11.276975
       4A    -11.249987     5A    -11.218678     6A     -1.325929
       7A     -1.178189     8A     -1.026900     9A     -0.879898
      10A     -0.807709    11A     -0.680961    12A     -0.653891
      13A     -0.637542    14A     -0.594943    15A     -0.554870
      16A     -0.549389    17A     -0.528016    18A     -0.481964
      19A     -0.477257    20A     -0.443727    21A     -0.391181

  @DF-RHF Final Energy:  -248.20100701622934

   => Energetics <=

    Nuclear Repulsion Energy =            184.5395206744560994
    One-Electron Energy =                -703.3279814863192314
    Two-Electron Energy =                 270.5874537956338486
    Total Energy =                       -248.2010070162293118
  Basis Set: (AUG-CC-PVTZ AUX)
    Blend: AUG-CC-PVTZ-RI
    Molecular point group: c1

    Geometry (in Angstrom), charge = 0, multiplicity = 1:

       Center              X                  Y                   Z               Mass
    ------------   -----------------  -----------------  -----------------  -----------------
         O           -2.360232935490    -0.419059268406    -0.000267373406    15.994914619570
         N            2.543579064510    -0.208415268406    -0.000097373406    14.003074004430
         C            0.011847064510    -0.329079268406     0.000344626594    12.000000000000
         C            1.277299064510     0.530087731594    -0.000104373406    12.000000000000
         C           -1.261391935490     0.494371731594     0.000102626594    12.000000000000
         H            0.004001064510    -0.981315268406    -0.880970373406     1.007825032230
         H            0.004221064510    -0.980703268406     0.882107626594     1.007825032230
         H            1.279879064510     1.186931731594     0.877600626594     1.007825032230
         H            1.279577064510     1.186414731594    -0.878194373406     1.007825032230
         H           -1.287701935490     1.144537731594    -0.887337373406     1.007825032230
         H           -1.288204935490     1.144425731594     0.887600626594     1.007825032230
         H            2.570702064510    -0.823538268406    -0.812717373406     1.007825032230
         H            2.570980064510    -0.823056268406     0.812876626594     1.007825032230
         H           -3.346686935490     0.213099731594     0.000547726594     1.007825032230

  Basis Set: AUG-CC-PVTZ
    Blend: AUG-CC-PVTZ
  Basis Set: (AUG-CC-PVTZ AUX)
    Blend: AUG-CC-PVTZ-JKFIT
	 Reference Energy          =    -248.2010070162293403 [Eh]
	 Singles Energy            =      -0.0000000000000000 [Eh]
	 Same-Spin Energy          =      -0.2502685242543045 [Eh]
	 Opposite-Spin Energy      =      -0.8521536515407200 [Eh]
	 Correlation Energy        =      -1.1024221757950246 [Eh]
	 Total Energy              =    -249.3034291920243675 [Eh]

	 ================> DF-SCS-MP2 Energies <==================
	-----------------------------------------------------------
	 SCS Same-Spin Scale       =       0.3333333333333333 [-]
	 SCS Opposite-Spin Scale   =       1.2000000000000000 [-]
	 SCS Same-Spin Energy      =      -0.0834228414181015 [Eh]
	 SCS Opposite-Spin Energy  =      -1.0225843818488640 [Eh]
	 SCS Correlation Energy    =      -1.1060072232669655 [Eh]
	 SCS Total Energy          =    -249.3070142394963113 [Eh]
	-----------------------------------------------------------

  Dipole Moment: [D]
     X:    -1.2708      Y:     0.7648      Z:     0.0020     Total:     1.4832

*** Psi4 exiting successfully. Buy a developer a beer!
