                               Psi4 1.3.2 release

  ==> Input File <==

--------------------------------------------------------------------------
#psi4
#
memory 32 gb

molecule  {
0 1
  O       -2.3851110    -0.4314350    -0.0002820
  N        2.5187010    -0.2207910    -0.0001120
  C       -0.0130310    -0.3414550     0.0003300
  C        1.0796557     0.6184699    -0.0001200
  C       -1.2862700     0.4819960     0.0000880
  H       -0.0208770    -0.9936910    -0.8809850
  H       -0.0206570    -0.9930790     0.8820930
  H        1.2550010     1.1745560     0.8775860
  H        1.2546990     1.1740390    -0.8782090
  H       -1.3125800     1.1321620    -0.8873520
  H       -1.3130830     1.1320500     0.8875860
  H        2.5458240    -0.8359140    -0.8127320
  H        2.5461020    -0.8354320     0.8128620
  H       -3.2031750     0.0928130     0.0003940
units angstrom
no_reorient  #important for SAPT in psi4, default
symmetry c1  #important for SAPT in psi4, default
}

set PROPERTIES_ORIGIN ["COM"]
properties('MP2/aug-cc-pvtz', properties = ['dipole'])
--------------------------------------------------------------------------

    Molecular point group: c1
  Charge       = 0
  Multiplicity = 1
  Basis Set: AUG-CC-PVTZ
    Blend: AUG-CC-PVTZ
  Basis Set: (AUG-CC-PVTZ AUX)
    Blend: AUG-CC-PVTZ-JKFIT

    Orbital Energies [Eh]
    ---------------------

    Doubly Occupied:

       1A    -20.562748     2A    -15.533613     3A    -11.280513
       4A    -11.253369     5A    -11.222727     6A     -1.359216
       7A     -1.138083     8A     -1.046830     9A     -0.896262
      10A     -0.817623    11A     -0.696304    12A     -0.683759
      13A     -0.630264    14A     -0.591195    15A     -0.565867
      16A     -0.559619    17A     -0.514152    18A     -0.501416
      19A     -0.474348    20A     -0.450331    21A     -0.382654

  @DF-RHF Final Energy:  -248.20573563391318

   => Energetics <=

    Nuclear Repulsion Energy =            185.3554984545344269
    One-Electron Energy =                -704.8006800528776239
    Two-Electron Energy =                 271.2394459644300468
    Total Energy =                       -248.2057356339131502
  Basis Set: (AUG-CC-PVTZ AUX)
    Blend: AUG-CC-PVTZ-RI
    Molecular point group: c1

    Geometry (in Angstrom), charge = 0, multiplicity = 1:

       Center              X                  Y                   Z               Mass
    ------------   -----------------  -----------------  -----------------  -----------------
         O           -2.334876386130    -0.433717089660    -0.000265346076    15.994914619570
         N            2.568935613870    -0.223073089660    -0.000095346076    14.003074004430
         C            0.037203613870    -0.343737089660     0.000346653924    12.000000000000
         C            1.129890313870     0.616187810340    -0.000103346076    12.000000000000
         C           -1.236035386130     0.479713910340     0.000104653924    12.000000000000
         H            0.029357613870    -0.995973089660    -0.880968346076     1.007825032230
         H            0.029577613870    -0.995361089660     0.882109653924     1.007825032230
         H            1.305235613870     1.172273910340     0.877602653924     1.007825032230
         H            1.304933613870     1.171756910340    -0.878192346076     1.007825032230
         H           -1.262345386130     1.129879910340    -0.887335346076     1.007825032230
         H           -1.262848386130     1.129767910340     0.887602653924     1.007825032230
         H            2.596058613870    -0.838196089660    -0.812715346076     1.007825032230
         H            2.596336613870    -0.837714089660     0.812878653924     1.007825032230
         H           -3.152940386130     0.090530910340     0.000410653924     1.007825032230

  Basis Set: AUG-CC-PVTZ
    Blend: AUG-CC-PVTZ
  Basis Set: (AUG-CC-PVTZ AUX)
    Blend: AUG-CC-PVTZ-JKFIT
	 Reference Energy          =    -248.2057356339131786 [Eh]
	 Singles Energy            =      -0.0000000000000000 [Eh]
	 Same-Spin Energy          =      -0.2493269512899854 [Eh]
	 Opposite-Spin Energy      =      -0.8490292146787173 [Eh]
	 Correlation Energy        =      -1.0983561659687027 [Eh]
	 Total Energy              =    -249.3040917998818884 [Eh]

	 ================> DF-SCS-MP2 Energies <==================
	-----------------------------------------------------------
	 SCS Same-Spin Scale       =       0.3333333333333333 [-]
	 SCS Opposite-Spin Scale   =       1.2000000000000000 [-]
	 SCS Same-Spin Energy      =      -0.0831089837633285 [Eh]
	 SCS Opposite-Spin Energy  =      -1.0188350576144607 [Eh]
	 SCS Correlation Energy    =      -1.1019440413777892 [Eh]
	 SCS Total Energy          =    -249.3076796752909559 [Eh]
	-----------------------------------------------------------

  Dipole Moment: [D]
     X:    -1.6317      Y:     0.8520      Z:     0.0019     Total:     1.8408

*** Psi4 exiting successfully. Buy a developer a beer!
