                               Psi4 1.4a3.dev225

  ==> Input File <==

--------------------------------------------------------------------------
#psi4
#
memory 32 gb

molecule  {
0 1
  O        2.3850150    -0.4314620    -0.0000020
  N       -2.5187610    -0.2207970     0.0000020
  C        0.0130360    -0.3413840    -0.0000010
  C       -1.2523980     0.5177100    -0.0000070
  C        1.2864090     0.4819960     0.0000060
  H        0.0207440    -0.9933730     0.8815180
  H        0.0207540    -0.9933720    -0.8815200
  H       -1.2549080     1.1742870    -0.8779080
  H       -1.2549050     1.1743050     0.8778810
  H        1.3129410     1.1321370     0.8874920
  H        1.3129410     1.1321530    -0.8874690
  H       -2.5459240    -0.8356760     0.8128080
  H       -2.5459230    -0.8357000    -0.8127860
  H        3.2453063     0.1195401    -0.0000073
units angstrom
no_reorient  #important for SAPT in psi4, default
symmetry c1  #important for SAPT in psi4, default
}

set PROPERTIES_ORIGIN ["COM"]
properties('MP2/aug-cc-pvtz', properties = ['dipole'])
--------------------------------------------------------------------------

    Molecular point group: c1
  Charge       = 0
  Multiplicity = 1
  Basis Set: AUG-CC-PVTZ
    Blend: AUG-CC-PVTZ
  Basis Set: (AUG-CC-PVTZ AUX)
    Blend: AUG-CC-PVTZ-JKFIT

    Orbital Energies [Eh]
    ---------------------

    Doubly Occupied:

       1A    -20.565878     2A    -15.541682     3A    -11.278233
       4A    -11.249977     5A    -11.218843     6A     -1.347380
       7A     -1.178348     8A     -1.030796     9A     -0.885188
      10A     -0.808658    11A     -0.682304    12A     -0.681311
      13A     -0.638708    14A     -0.596689    15A     -0.557314
      16A     -0.550308    17A     -0.534066    18A     -0.483404
      19A     -0.482434    20A     -0.446037    21A     -0.391830

  @DF-RHF Final Energy:  -248.23160395072611

   => Energetics <=

    Nuclear Repulsion Energy =            185.2608646598348514
    One-Electron Energy =                -704.6861583174022599
    Two-Electron Energy =                 271.1936897068412691
    Total Energy =                       -248.2316039507261394
  Basis Set: (AUG-CC-PVTZ AUX)
    Blend: AUG-CC-PVTZ-RI
    Molecular point group: c1

    Geometry (in Angstrom), charge = 0, multiplicity = 1:

       Center              X                  Y                   Z               Mass
    ------------   -----------------  -----------------  -----------------  -----------------
         O            2.361834962691    -0.418001437972    -0.000001744025    15.994914619570
         N           -2.541941037309    -0.207336437972     0.000002255975    14.003074004430
         C           -0.010144037309    -0.327923437972    -0.000000744025    12.000000000000
         C           -1.275578037309     0.531170562028    -0.000006744025    12.000000000000
         C            1.263228962691     0.495456562028     0.000006255975    12.000000000000
         H           -0.002436037309    -0.979912437972     0.881518255975     1.007825032230
         H           -0.002426037309    -0.979911437972    -0.881519744025     1.007825032230
         H           -1.278088037309     1.187747562028    -0.877907744025     1.007825032230
         H           -1.278085037309     1.187765562028     0.877881255975     1.007825032230
         H            1.289760962691     1.145597562028     0.887492255975     1.007825032230
         H            1.289760962691     1.145613562028    -0.887468744025     1.007825032230
         H           -2.569104037309    -0.822215437972     0.812808255975     1.007825032230
         H           -2.569103037309    -0.822239437972    -0.812785744025     1.007825032230
         H            3.222126262691     0.133000662028    -0.000007044025     1.007825032230

  Basis Set: AUG-CC-PVTZ
    Blend: AUG-CC-PVTZ
  Basis Set: (AUG-CC-PVTZ AUX)
    Blend: AUG-CC-PVTZ-JKFIT
	 Reference Energy          =    -248.2316039507261110 [Eh]
	 Singles Energy            =      -0.0000000000000000 [Eh]
	 Same-Spin Energy          =      -0.2487412880362116 [Eh]
	 Opposite-Spin Energy      =      -0.8470290443716226 [Eh]
	 Correlation Energy        =      -1.0957703324078343 [Eh]
	 Total Energy              =    -249.3273742831339348 [Eh]

	 ================> DF-SCS-MP2 Energies <==================
	-----------------------------------------------------------
	 SCS Same-Spin Scale       =       0.3333333333333333 [-]
	 SCS Opposite-Spin Scale   =       1.2000000000000000 [-]
	 SCS Same-Spin Energy      =      -0.0829137626787372 [Eh]
	 SCS Opposite-Spin Energy  =      -1.0164348532459471 [Eh]
	 SCS Correlation Energy    =      -1.0993486159246844 [Eh]
	 SCS Total Energy          =    -249.3309525666508080 [Eh]
	-----------------------------------------------------------

  Dipole Moment: [D]
     X:     1.2043      Y:     0.7252      Z:     0.0000     Total:     1.4058

*** Psi4 exiting successfully. Buy a developer a beer!
