                               Psi4 1.3.2 release

  ==> Input File <==

--------------------------------------------------------------------------
#psi4
#
memory 32 gb

molecule  {
0 1
  O       -2.4163199    -0.3925296    -0.0002861
  N        2.5187010    -0.2207910    -0.0001120
  C       -0.0130310    -0.3414550     0.0003300
  C        1.2524210     0.5177120    -0.0001190
  C       -1.2862700     0.4819960     0.0000880
  H       -0.0208770    -0.9936910    -0.8809850
  H       -0.0206570    -0.9930790     0.8820930
  H        1.2550010     1.1745560     0.8775860
  H        1.2546990     1.1740390    -0.8782090
  H       -1.3125800     1.1321620    -0.8873520
  H       -1.3130830     1.1320500     0.8875860
  H        2.5458240    -0.8359140    -0.8127320
  H        2.5461020    -0.8354320     0.8128620
  H       -3.2031750     0.0928130     0.0003940
units angstrom
no_reorient  #important for SAPT in psi4, default
symmetry c1  #important for SAPT in psi4, default
}

set PROPERTIES_ORIGIN ["COM"]
properties('MP2/aug-cc-pvtz', properties = ['dipole'])
--------------------------------------------------------------------------

    Molecular point group: c1
  Charge       = 0
  Multiplicity = 1
  Basis Set: AUG-CC-PVTZ
    Blend: AUG-CC-PVTZ
  Basis Set: (AUG-CC-PVTZ AUX)
    Blend: AUG-CC-PVTZ-JKFIT

    Orbital Energies [Eh]
    ---------------------

    Doubly Occupied:

       1A    -20.554903     2A    -15.542581     3A    -11.279566
       4A    -11.251154     5A    -11.220530     6A     -1.365728
       7A     -1.179359     8A     -1.035368     9A     -0.891261
      10A     -0.809948    11A     -0.702696    12A     -0.682138
      13A     -0.639503    14A     -0.598189    15A     -0.561757
      16A     -0.551990    17A     -0.535909    18A     -0.484034
      19A     -0.483934    20A     -0.446182    21A     -0.393490

  @DF-RHF Final Energy:  -248.23767570257294

   => Energetics <=

    Nuclear Repulsion Energy =            185.5144249327487671
    One-Electron Energy =                -705.0837635628129192
    Two-Electron Energy =                 271.3316629274912657
    Total Energy =                       -248.2376757025729148
  Basis Set: (AUG-CC-PVTZ AUX)
    Blend: AUG-CC-PVTZ-RI
    Molecular point group: c1

    Geometry (in Angstrom), charge = 0, multiplicity = 1:

       Center              X                  Y                   Z               Mass
    ------------   -----------------  -----------------  -----------------  -----------------
         O           -2.387052825299    -0.386994736854    -0.000268732338    15.994914619570
         N            2.547968074701    -0.215256136854    -0.000094632338    14.003074004430
         C            0.016236074701    -0.335920136854     0.000347367662    12.000000000000
         C            1.281688074701     0.523246863146    -0.000101632338    12.000000000000
         C           -1.257002925299     0.487530863146     0.000105367662    12.000000000000
         H            0.008390074701    -0.988156136854    -0.880967632338     1.007825032230
         H            0.008610074701    -0.987544136854     0.882110367662     1.007825032230
         H            1.284268074701     1.180090863146     0.877603367662     1.007825032230
         H            1.283966074701     1.179573863146    -0.878191632338     1.007825032230
         H           -1.283312925299     1.137696863146    -0.887334632338     1.007825032230
         H           -1.283815925299     1.137584863146     0.887603367662     1.007825032230
         H            2.575091074701    -0.830379136854    -0.812714632338     1.007825032230
         H            2.575369074701    -0.829897136854     0.812879367662     1.007825032230
         H           -3.173907925299     0.098347863146     0.000411367662     1.007825032230

  Basis Set: AUG-CC-PVTZ
    Blend: AUG-CC-PVTZ
  Basis Set: (AUG-CC-PVTZ AUX)
    Blend: AUG-CC-PVTZ-JKFIT
	 Reference Energy          =    -248.2376757025729432 [Eh]
	 Singles Energy            =      -0.0000000000000000 [Eh]
	 Same-Spin Energy          =      -0.2475008153825586 [Eh]
	 Opposite-Spin Energy      =      -0.8437271676418515 [Eh]
	 Correlation Energy        =      -1.0912279830244103 [Eh]
	 Total Energy              =    -249.3289036855973677 [Eh]

	 ================> DF-SCS-MP2 Energies <==================
	-----------------------------------------------------------
	 SCS Same-Spin Scale       =       0.3333333333333333 [-]
	 SCS Opposite-Spin Scale   =       1.2000000000000000 [-]
	 SCS Same-Spin Energy      =      -0.0825002717941862 [Eh]
	 SCS Opposite-Spin Energy  =      -1.0124726011702219 [Eh]
	 SCS Correlation Energy    =      -1.0949728729644082 [Eh]
	 SCS Total Energy          =    -249.3326485755373483 [Eh]
	-----------------------------------------------------------

  Dipole Moment: [D]
     X:    -1.0811      Y:     0.6672      Z:     0.0019     Total:     1.2704

*** Psi4 exiting successfully. Buy a developer a beer!
