                               Psi4 1.3.2 release

  ==> Input File <==

--------------------------------------------------------------------------
#psi4
#
memory 32 gb

molecule  {
0 1
  O       -2.3851110    -0.4314350    -0.0002820
  N        2.5187010    -0.2207910    -0.0001120
  C       -0.0130310    -0.3414550     0.0003300
  C        1.2524210     0.5177120    -0.0001190
  C       -1.2704958     0.4626795     0.0000677
  H       -0.0208770    -0.9936910    -0.8809850
  H       -0.0206570    -0.9930790     0.8820930
  H        1.2550010     1.1745560     0.8775860
  H        1.2546990     1.1740390    -0.8782090
  H       -1.3125800     1.1321620    -0.8873520
  H       -1.3130830     1.1320500     0.8875860
  H        2.5458240    -0.8359140    -0.8127320
  H        2.5461020    -0.8354320     0.8128620
  H       -3.2031750     0.0928130     0.0003940
units angstrom
no_reorient  #important for SAPT in psi4, default
symmetry c1  #important for SAPT in psi4, default
}

set PROPERTIES_ORIGIN ["COM"]
properties('MP2/aug-cc-pvtz', properties = ['dipole'])
--------------------------------------------------------------------------

    Molecular point group: c1
  Charge       = 0
  Multiplicity = 1
  Basis Set: AUG-CC-PVTZ
    Blend: AUG-CC-PVTZ
  Basis Set: (AUG-CC-PVTZ AUX)
    Blend: AUG-CC-PVTZ-JKFIT

    Orbital Energies [Eh]
    ---------------------

    Doubly Occupied:

       1A    -20.560770     2A    -15.542277     3A    -11.279949
       4A    -11.250875     5A    -11.218511     6A     -1.356842
       7A     -1.179185     8A     -1.037237     9A     -0.887389
      10A     -0.808358    11A     -0.693361    12A     -0.682033
      13A     -0.637718    14A     -0.599265    15A     -0.560362
      16A     -0.549952    17A     -0.535790    18A     -0.487511
      19A     -0.483464    20A     -0.442764    21A     -0.393306

  @DF-RHF Final Energy:  -248.23603831949944

   => Energetics <=

    Nuclear Repulsion Energy =            185.7886964280643554
    One-Electron Energy =                -705.6756293046994415
    Two-Electron Energy =                 271.6508945571356435
    Total Energy =                       -248.2360383194994711
  Basis Set: (AUG-CC-PVTZ AUX)
    Blend: AUG-CC-PVTZ-RI
    Molecular point group: c1

    Geometry (in Angstrom), charge = 0, multiplicity = 1:

       Center              X                  Y                   Z               Mass
    ------------   -----------------  -----------------  -----------------  -----------------
         O           -2.365015213928    -0.414522694509    -0.000262260890    15.994914619570
         N            2.538796786072    -0.203878694509    -0.000092260890    14.003074004430
         C            0.007064786072    -0.324542694509     0.000349739110    12.000000000000
         C            1.272516786072     0.534624305491    -0.000099260890    12.000000000000
         C           -1.250400013928     0.479591805491     0.000087439110    12.000000000000
         H           -0.000781213928    -0.976778694509    -0.880965260890     1.007825032230
         H           -0.000561213928    -0.976166694509     0.882112739110     1.007825032230
         H            1.275096786072     1.191468305491     0.877605739110     1.007825032230
         H            1.274794786072     1.190951305491    -0.878189260890     1.007825032230
         H           -1.292484213928     1.149074305491    -0.887332260890     1.007825032230
         H           -1.292987213928     1.148962305491     0.887605739110     1.007825032230
         H            2.565919786072    -0.819001694509    -0.812712260890     1.007825032230
         H            2.566197786072    -0.818519694509     0.812881739110     1.007825032230
         H           -3.183079213928     0.109725305491     0.000413739110     1.007825032230

  Basis Set: AUG-CC-PVTZ
    Blend: AUG-CC-PVTZ
  Basis Set: (AUG-CC-PVTZ AUX)
    Blend: AUG-CC-PVTZ-JKFIT
	 Reference Energy          =    -248.2360383194994427 [Eh]
	 Singles Energy            =      -0.0000000000000000 [Eh]
	 Same-Spin Energy          =      -0.2483062189963005 [Eh]
	 Opposite-Spin Energy      =      -0.8454799495289812 [Eh]
	 Correlation Energy        =      -1.0937861685252817 [Eh]
	 Total Energy              =    -249.3298244880247125 [Eh]

	 ================> DF-SCS-MP2 Energies <==================
	-----------------------------------------------------------
	 SCS Same-Spin Scale       =       0.3333333333333333 [-]
	 SCS Opposite-Spin Scale   =       1.2000000000000000 [-]
	 SCS Same-Spin Energy      =      -0.0827687396654335 [Eh]
	 SCS Opposite-Spin Energy  =      -1.0145759394347773 [Eh]
	 SCS Correlation Energy    =      -1.0973446791002108 [Eh]
	 SCS Total Energy          =    -249.3333829985996601 [Eh]
	-----------------------------------------------------------

  Dipole Moment: [D]
     X:    -1.1324      Y:     0.6899      Z:     0.0018     Total:     1.3260

*** Psi4 exiting successfully. Buy a developer a beer!
