                               Psi4 1.3.2 release

  ==> Input File <==

--------------------------------------------------------------------------
#psi4
#
memory 32 gb

molecule  {
0 1
  O       -2.3851110    -0.4314350    -0.0002820
  N        2.5187010    -0.2207910    -0.0001120
  C       -0.0130310    -0.3414550     0.0003300
  C        1.1660383     0.5680909    -0.0001195
  C       -1.2862700     0.4819960     0.0000880
  H       -0.0208770    -0.9936910    -0.8809850
  H       -0.0206570    -0.9930790     0.8820930
  H        1.2550010     1.1745560     0.8775860
  H        1.2546990     1.1740390    -0.8782090
  H       -1.3125800     1.1321620    -0.8873520
  H       -1.3130830     1.1320500     0.8875860
  H        2.5458240    -0.8359140    -0.8127320
  H        2.5461020    -0.8354320     0.8128620
  H       -3.2031750     0.0928130     0.0003940
units angstrom
no_reorient  #important for SAPT in psi4, default
symmetry c1  #important for SAPT in psi4, default
}

set PROPERTIES_ORIGIN ["COM"]
properties('MP2/aug-cc-pvtz', properties = ['dipole'])
--------------------------------------------------------------------------

    Molecular point group: c1
  Charge       = 0
  Multiplicity = 1
  Basis Set: AUG-CC-PVTZ
    Blend: AUG-CC-PVTZ
  Basis Set: (AUG-CC-PVTZ AUX)
    Blend: AUG-CC-PVTZ-JKFIT

    Orbital Energies [Eh]
    ---------------------

    Doubly Occupied:

       1A    -20.562044     2A    -15.538289     3A    -11.279435
       4A    -11.249974     5A    -11.220674     6A     -1.358226
       7A     -1.154428     8A     -1.040222     9A     -0.892565
      10A     -0.813224    11A     -0.694074    12A     -0.680935
      13A     -0.634757    14A     -0.591227    15A     -0.559285
      16A     -0.552556    17A     -0.526069    18A     -0.493816
      19A     -0.484735    20A     -0.448644    21A     -0.390706

  @DF-RHF Final Energy:  -248.22796238966569

   => Energetics <=

    Nuclear Repulsion Energy =            185.4156067839638808
    One-Electron Energy =                -704.9553651389246625
    Two-Electron Energy =                 271.3117959652950617
    Total Energy =                       -248.2279623896657199
  Basis Set: (AUG-CC-PVTZ AUX)
    Blend: AUG-CC-PVTZ-RI
    Molecular point group: c1

    Geometry (in Angstrom), charge = 0, multiplicity = 1:

       Center              X                  Y                   Z               Mass
    ------------   -----------------  -----------------  -----------------  -----------------
         O           -2.348685006107    -0.425663795758    -0.000265426003    15.994914619570
         N            2.555126993893    -0.215019795758    -0.000095426003    14.003074004430
         C            0.023394993893    -0.335683795758     0.000346573997    12.000000000000
         C            1.202464293893     0.573862104242    -0.000102926003    12.000000000000
         C           -1.249844006107     0.487767204242     0.000104573997    12.000000000000
         H            0.015548993893    -0.987919795758    -0.880968426003     1.007825032230
         H            0.015768993893    -0.987307795758     0.882109573997     1.007825032230
         H            1.291426993893     1.180327204242     0.877602573997     1.007825032230
         H            1.291124993893     1.179810204242    -0.878192426003     1.007825032230
         H           -1.276154006107     1.137933204242    -0.887335426003     1.007825032230
         H           -1.276657006107     1.137821204242     0.887602573997     1.007825032230
         H            2.582249993893    -0.830142795758    -0.812715426003     1.007825032230
         H            2.582527993893    -0.829660795758     0.812878573997     1.007825032230
         H           -3.166749006107     0.098584204242     0.000410573997     1.007825032230

  Basis Set: AUG-CC-PVTZ
    Blend: AUG-CC-PVTZ
  Basis Set: (AUG-CC-PVTZ AUX)
    Blend: AUG-CC-PVTZ-JKFIT
	 Reference Energy          =    -248.2279623896656915 [Eh]
	 Singles Energy            =      -0.0000000000000000 [Eh]
	 Same-Spin Energy          =      -0.2484092231499723 [Eh]
	 Opposite-Spin Energy      =      -0.8466295027007926 [Eh]
	 Correlation Energy        =      -1.0950387258507650 [Eh]
	 Total Energy              =    -249.3230011155164618 [Eh]

	 ================> DF-SCS-MP2 Energies <==================
	-----------------------------------------------------------
	 SCS Same-Spin Scale       =       0.3333333333333333 [-]
	 SCS Opposite-Spin Scale   =       1.2000000000000000 [-]
	 SCS Same-Spin Energy      =      -0.0828030743833241 [Eh]
	 SCS Opposite-Spin Energy  =      -1.0159554032409510 [Eh]
	 SCS Correlation Energy    =      -1.0987584776242751 [Eh]
	 SCS Total Energy          =    -249.3267208672899642 [Eh]
	-----------------------------------------------------------

  Dipole Moment: [D]
     X:    -1.4158      Y:     0.7924      Z:     0.0019     Total:     1.6225

*** Psi4 exiting successfully. Buy a developer a beer!
