                               Psi4 1.3.2 release

  ==> Input File <==

--------------------------------------------------------------------------
#psi4
#
memory 32 gb

molecule  {
0 1
  O       -2.3851110    -0.4314350    -0.0002820
  N        2.5187010    -0.2207910    -0.0001120
  C       -0.0130310    -0.3414550     0.0003300
  C        1.2524210     0.5177120    -0.0001190
  C       -1.2862700     0.4819960     0.0000880
  H       -0.0208770    -0.9936910    -0.8809850
  H       -0.0206570    -0.9930790     0.8820930
  H        1.2550010     1.1745560     0.8775860
  H        1.2546990     1.1740390    -0.8782090
  H       -1.3125800     1.1321620    -0.8873520
  H       -1.3130830     1.1320500     0.8875860
  H        2.5458240    -0.8359140    -0.8127320
  H        2.5461020    -0.8354320     0.8128620
  H       -3.1189800     0.0388575     0.0003244
units angstrom
no_reorient  #important for SAPT in psi4, default
symmetry c1  #important for SAPT in psi4, default
}

set PROPERTIES_ORIGIN ["COM"]
properties('MP2/aug-cc-pvtz', properties = ['dipole'])
--------------------------------------------------------------------------

    Molecular point group: c1
  Charge       = 0
  Multiplicity = 1
  Basis Set: AUG-CC-PVTZ
    Blend: AUG-CC-PVTZ
  Basis Set: (AUG-CC-PVTZ AUX)
    Blend: AUG-CC-PVTZ-JKFIT

    Orbital Energies [Eh]
    ---------------------

    Doubly Occupied:

       1A    -20.551387     2A    -15.542046     3A    -11.280036
       4A    -11.250368     5A    -11.219609     6A     -1.383475
       7A     -1.178899     8A     -1.037114     9A     -0.893598
      10A     -0.810207    11A     -0.714029    12A     -0.682126
      13A     -0.640562    14A     -0.599009    15A     -0.560237
      16A     -0.551958    17A     -0.539523    18A     -0.488003
      19A     -0.483535    20A     -0.449869    21A     -0.392625

  @DF-RHF Final Energy:  -248.23159518782754

   => Energetics <=

    Nuclear Repulsion Energy =            186.1738741664089503
    One-Electron Energy =                -706.3145118773211379
    Two-Electron Energy =                 271.9090425230846222
    Total Energy =                       -248.2315951878275655
  Basis Set: (AUG-CC-PVTZ AUX)
    Blend: AUG-CC-PVTZ-RI
    Molecular point group: c1

    Geometry (in Angstrom), charge = 0, multiplicity = 1:

       Center              X                  Y                   Z               Mass
    ------------   -----------------  -----------------  -----------------  -----------------
         O           -2.363623995358    -0.416886142559    -0.000264571520    15.994914619570
         N            2.540188004642    -0.206242142559    -0.000094571520    14.003074004430
         C            0.008456004642    -0.326906142559     0.000347428480    12.000000000000
         C            1.273908004642     0.532260857441    -0.000101571520    12.000000000000
         C           -1.264782995358     0.496544857441     0.000105428480    12.000000000000
         H            0.000610004642    -0.979142142559    -0.880967571520     1.007825032230
         H            0.000830004642    -0.978530142559     0.882110428480     1.007825032230
         H            1.276488004642     1.189104857441     0.877603428480     1.007825032230
         H            1.276186004642     1.188587857441    -0.878191571520     1.007825032230
         H           -1.291092995358     1.146710857441    -0.887334571520     1.007825032230
         H           -1.291595995358     1.146598857441     0.887603428480     1.007825032230
         H            2.567311004642    -0.821365142559    -0.812714571520     1.007825032230
         H            2.567589004642    -0.820883142559     0.812879428480     1.007825032230
         H           -3.097492995358     0.053406357441     0.000341828480     1.007825032230

  Basis Set: AUG-CC-PVTZ
    Blend: AUG-CC-PVTZ
  Basis Set: (AUG-CC-PVTZ AUX)
    Blend: AUG-CC-PVTZ-JKFIT
	 Reference Energy          =    -248.2315951878275371 [Eh]
	 Singles Energy            =      -0.0000000000000000 [Eh]
	 Same-Spin Energy          =      -0.2470412120437865 [Eh]
	 Opposite-Spin Energy      =      -0.8425032903964823 [Eh]
	 Correlation Energy        =      -1.0895445024402688 [Eh]
	 Total Energy              =    -249.3211396902678132 [Eh]

	 ================> DF-SCS-MP2 Energies <==================
	-----------------------------------------------------------
	 SCS Same-Spin Scale       =       0.3333333333333333 [-]
	 SCS Opposite-Spin Scale   =       1.2000000000000000 [-]
	 SCS Same-Spin Energy      =      -0.0823470706812622 [Eh]
	 SCS Opposite-Spin Energy  =      -1.0110039484757787 [Eh]
	 SCS Correlation Energy    =      -1.0933510191570408 [Eh]
	 SCS Total Energy          =    -249.3249462069845777 [Eh]
	-----------------------------------------------------------

  Dipole Moment: [D]
     X:    -1.0892      Y:     0.6857      Z:     0.0018     Total:     1.2871

*** Psi4 exiting successfully. Buy a developer a beer!
