                               Psi4 1.3.2 release

  ==> Input File <==

--------------------------------------------------------------------------
#psi4
#
memory 32 gb

molecule  {
0 1
  O       -2.3851110    -0.4314350    -0.0002820
  N        2.5187010    -0.2207910    -0.0001120
  C       -0.0130310    -0.3414550     0.0003300
  C        1.2524210     0.5177120    -0.0001190
  C       -1.2862700     0.4819960     0.0000880
  H       -0.0208770    -0.9936910    -0.8809850
  H       -0.0206570    -0.9930790     0.8820930
  H        1.2550010     1.1745560     0.8775860
  H        1.2546990     1.1740390    -0.8782090
  H       -1.3125800     1.1321620    -0.8873520
  H       -1.3130830     1.1320500     0.8875860
  H        2.5458240    -0.8359140    -0.8127320
  H        2.5461020    -0.8354320     0.8128620
  H       -3.0347850    -0.0150980     0.0002549
units angstrom
no_reorient  #important for SAPT in psi4, default
symmetry c1  #important for SAPT in psi4, default
}

set PROPERTIES_ORIGIN ["COM"]
properties('MP2/aug-cc-pvtz', properties = ['dipole'])
--------------------------------------------------------------------------

    Molecular point group: c1
  Charge       = 0
  Multiplicity = 1
  Basis Set: AUG-CC-PVTZ
    Blend: AUG-CC-PVTZ
  Basis Set: (AUG-CC-PVTZ AUX)
    Blend: AUG-CC-PVTZ-JKFIT

    Orbital Energies [Eh]
    ---------------------

    Doubly Occupied:

       1A    -20.539528     2A    -15.542427     3A    -11.281474
       4A    -11.250803     5A    -11.220394     6A     -1.419191
       7A     -1.179410     8A     -1.042767     9A     -0.901080
      10A     -0.811531    11A     -0.734194    12A     -0.682866
      13A     -0.642105    14A     -0.600888    15A     -0.562300
      16A     -0.553430    17A     -0.542905    18A     -0.490579
      19A     -0.484581    20A     -0.453092    21A     -0.393256

  @DF-RHF Final Energy:  -248.18992464120629

   => Energetics <=

    Nuclear Repulsion Energy =            186.9422489765009914
    One-Electron Energy =                -707.6067451179598038
    Two-Electron Energy =                 272.4745715002525230
    Total Energy =                       -248.1899246412062894
  Basis Set: (AUG-CC-PVTZ AUX)
    Blend: AUG-CC-PVTZ-RI
    Molecular point group: c1

    Geometry (in Angstrom), charge = 0, multiplicity = 1:

       Center              X                  Y                   Z               Mass
    ------------   -----------------  -----------------  -----------------  -----------------
         O           -2.364754348647    -0.416161767276    -0.000263638454    15.994914619570
         N            2.539057651353    -0.205517767276    -0.000093638454    14.003074004430
         C            0.007325651353    -0.326181767276     0.000348361546    12.000000000000
         C            1.272777651353     0.532985232724    -0.000100638454    12.000000000000
         C           -1.265913348647     0.497269232724     0.000106361546    12.000000000000
         H           -0.000520348647    -0.978417767276    -0.880966638454     1.007825032230
         H           -0.000300348647    -0.977805767276     0.882111361546     1.007825032230
         H            1.275357651353     1.189829232724     0.877604361546     1.007825032230
         H            1.275055651353     1.189312232724    -0.878190638454     1.007825032230
         H           -1.292223348647     1.147435232724    -0.887333638454     1.007825032230
         H           -1.292726348647     1.147323232724     0.887604361546     1.007825032230
         H            2.566180651353    -0.820640767276    -0.812713638454     1.007825032230
         H            2.566458651353    -0.820158767276     0.812880361546     1.007825032230
         H           -3.014428348647     0.000175232724     0.000273261546     1.007825032230

  Basis Set: AUG-CC-PVTZ
    Blend: AUG-CC-PVTZ
  Basis Set: (AUG-CC-PVTZ AUX)
    Blend: AUG-CC-PVTZ-JKFIT
	 Reference Energy          =    -248.1899246412062894 [Eh]
	 Singles Energy            =      -0.0000000000000000 [Eh]
	 Same-Spin Energy          =      -0.2459427379716354 [Eh]
	 Opposite-Spin Energy      =      -0.8399312717042345 [Eh]
	 Correlation Energy        =      -1.0858740096758699 [Eh]
	 Total Energy              =    -249.2757986508821659 [Eh]

	 ================> DF-SCS-MP2 Energies <==================
	-----------------------------------------------------------
	 SCS Same-Spin Scale       =       0.3333333333333333 [-]
	 SCS Opposite-Spin Scale   =       1.2000000000000000 [-]
	 SCS Same-Spin Energy      =      -0.0819809126572118 [Eh]
	 SCS Opposite-Spin Energy  =      -1.0079175260450814 [Eh]
	 SCS Correlation Energy    =      -1.0898984387022932 [Eh]
	 SCS Total Energy          =    -249.2798230799085957 [Eh]
	-----------------------------------------------------------

  Dipole Moment: [D]
     X:    -0.9935      Y:     0.6624      Z:     0.0018     Total:     1.1941

*** Psi4 exiting successfully. Buy a developer a beer!
