                               Psi4 1.3.2 release

  ==> Input File <==

--------------------------------------------------------------------------
#psi4
#
memory 32 gb

molecule  {
0 1
  O       -2.3851110    -0.4314350    -0.0002820
  N        2.5187010    -0.2207910    -0.0001120
  C       -0.0130310    -0.3414550     0.0003300
  C        1.2524210     0.5177120    -0.0001190
  C       -1.1324696     0.6098453     0.0001398
  H       -0.0208770    -0.9936910    -0.8809850
  H       -0.0206570    -0.9930790     0.8820930
  H        1.2550010     1.1745560     0.8775860
  H        1.2546990     1.1740390    -0.8782090
  H       -1.3125800     1.1321620    -0.8873520
  H       -1.3130830     1.1320500     0.8875860
  H        2.5458240    -0.8359140    -0.8127320
  H        2.5461020    -0.8354320     0.8128620
  H       -3.2031750     0.0928130     0.0003940
units angstrom
no_reorient  #important for SAPT in psi4, default
symmetry c1  #important for SAPT in psi4, default
}

set PROPERTIES_ORIGIN ["COM"]
properties('MP2/aug-cc-pvtz', properties = ['dipole'])
--------------------------------------------------------------------------

    Molecular point group: c1
  Charge       = 0
  Multiplicity = 1
  Basis Set: AUG-CC-PVTZ
    Blend: AUG-CC-PVTZ
  Basis Set: (AUG-CC-PVTZ AUX)
    Blend: AUG-CC-PVTZ-JKFIT

    Orbital Energies [Eh]
    ---------------------

    Doubly Occupied:

       1A    -20.538450     2A    -15.543801     3A    -11.283174
       4A    -11.253791     5A    -11.224257     6A     -1.292832
       7A     -1.182564     8A     -1.053461     9A     -0.894042
      10A     -0.821303    11A     -0.691772    12A     -0.649221
      13A     -0.647358    14A     -0.605473    15A     -0.550414
      16A     -0.542522    17A     -0.525420    18A     -0.486904
      19A     -0.484981    20A     -0.452887    21A     -0.391246

  @DF-RHF Final Energy:  -248.20577170221998

   => Energetics <=

    Nuclear Repulsion Energy =            184.7774390779720761
    One-Electron Energy =                -703.7346749383156066
    Two-Electron Energy =                 270.7514641581235537
    Total Energy =                       -248.2057717022199768
  Basis Set: (AUG-CC-PVTZ AUX)
    Blend: AUG-CC-PVTZ-RI
    Molecular point group: c1

    Geometry (in Angstrom), charge = 0, multiplicity = 1:

       Center              X                  Y                   Z               Mass
    ------------   -----------------  -----------------  -----------------  -----------------
         O           -2.387079279406    -0.438047763282    -0.000273786376    15.994914619570
         N            2.516732720594    -0.227403763282    -0.000103786376    14.003074004430
         C           -0.014999279406    -0.348067763282     0.000338213624    12.000000000000
         C            1.250452720594     0.511099236718    -0.000110786376    12.000000000000
         C           -1.134437879406     0.603232536718     0.000148013624    12.000000000000
         H           -0.022845279406    -1.000303763282    -0.880976786376     1.007825032230
         H           -0.022625279406    -0.999691763282     0.882101213624     1.007825032230
         H            1.253032720594     1.167943236718     0.877594213624     1.007825032230
         H            1.252730720594     1.167426236718    -0.878200786376     1.007825032230
         H           -1.314548279406     1.125549236718    -0.887343786376     1.007825032230
         H           -1.315051279406     1.125437236718     0.887594213624     1.007825032230
         H            2.543855720594    -0.842526763282    -0.812723786376     1.007825032230
         H            2.544133720594    -0.842044763282     0.812870213624     1.007825032230
         H           -3.205143279406     0.086200236718     0.000402213624     1.007825032230

  Basis Set: AUG-CC-PVTZ
    Blend: AUG-CC-PVTZ
  Basis Set: (AUG-CC-PVTZ AUX)
    Blend: AUG-CC-PVTZ-JKFIT
	 Reference Energy          =    -248.2057717022199768 [Eh]
	 Singles Energy            =      -0.0000000000000000 [Eh]
	 Same-Spin Energy          =      -0.2497853404009370 [Eh]
	 Opposite-Spin Energy      =      -0.8506122506382108 [Eh]
	 Correlation Energy        =      -1.1003975910391479 [Eh]
	 Total Energy              =    -249.3061692932591313 [Eh]

	 ================> DF-SCS-MP2 Energies <==================
	-----------------------------------------------------------
	 SCS Same-Spin Scale       =       0.3333333333333333 [-]
	 SCS Opposite-Spin Scale   =       1.2000000000000000 [-]
	 SCS Same-Spin Energy      =      -0.0832617801336457 [Eh]
	 SCS Opposite-Spin Energy  =      -1.0207347007658529 [Eh]
	 SCS Correlation Energy    =      -1.1039964808994986 [Eh]
	 SCS Total Energy          =    -249.3097681831194734 [Eh]
	-----------------------------------------------------------

  Dipole Moment: [D]
     X:    -0.5495      Y:     1.0296      Z:     0.0020     Total:     1.1670

*** Psi4 exiting successfully. Buy a developer a beer!
