                               Psi4 1.3.2 release

  ==> Input File <==

--------------------------------------------------------------------------
#psi4
#
memory 32 gb

molecule  {
0 1
  O       -2.3851110    -0.4314350    -0.0002820
  N        2.5187010    -0.2207910    -0.0001120
  C       -0.0130310    -0.3414550     0.0003300
  C        1.2524210     0.5177120    -0.0001190
  C       -1.2862700     0.4819960     0.0000880
  H       -0.0208770    -0.9936910    -0.8809850
  H       -0.0206570    -0.9930790     0.8820930
  H        1.2550010     1.1745560     0.8775860
  H        1.2546990     1.1740390    -0.8782090
  H       -1.3125800     1.1321620    -0.8873520
  H       -1.3130830     1.1320500     0.8875860
  H        2.5458240    -0.8359140    -0.8127320
  H        2.5487896    -0.8957181     0.8926013
  H       -3.2031750     0.0928130     0.0003940
units angstrom
no_reorient  #important for SAPT in psi4, default
symmetry c1  #important for SAPT in psi4, default
}

set PROPERTIES_ORIGIN ["COM"]
properties('MP2/aug-cc-pvtz', properties = ['dipole'])
--------------------------------------------------------------------------

    Molecular point group: c1
  Charge       = 0
  Multiplicity = 1
  Basis Set: AUG-CC-PVTZ
    Blend: AUG-CC-PVTZ
  Basis Set: (AUG-CC-PVTZ AUX)
    Blend: AUG-CC-PVTZ-JKFIT

    Orbital Energies [Eh]
    ---------------------

    Doubly Occupied:

       1A    -20.561451     2A    -15.552680     3A    -11.278699
       4A    -11.250612     5A    -11.218930     6A     -1.357368
       7A     -1.168732     8A     -1.030115     9A     -0.884095
      10A     -0.808117    11A     -0.692550    12A     -0.675537
      13A     -0.632787    14A     -0.595155    15A     -0.557378
      16A     -0.543937    17A     -0.535554    18A     -0.485023
      19A     -0.481059    20A     -0.447120    21A     -0.391070

  @DF-RHF Final Energy:  -248.22708565103176

   => Energetics <=

    Nuclear Repulsion Energy =            185.1026788828245913
    One-Electron Energy =                -704.3635908734170243
    Two-Electron Energy =                 271.0338263395606191
    Total Energy =                       -248.2270856510317572
  Basis Set: (AUG-CC-PVTZ AUX)
    Blend: AUG-CC-PVTZ-RI
    Molecular point group: c1

    Geometry (in Angstrom), charge = 0, multiplicity = 1:

       Center              X                  Y                   Z               Mass
    ------------   -----------------  -----------------  -----------------  -----------------
         O           -2.362529724229    -0.416801151591    -0.001336039572    15.994914619570
         N            2.541282275771    -0.206157151591    -0.001166039572    14.003074004430
         C            0.009550275771    -0.326821151591    -0.000724039572    12.000000000000
         C            1.275002275771     0.532345848409    -0.001173039572    12.000000000000
         C           -1.263688724229     0.496629848409    -0.000966039572    12.000000000000
         H            0.001704275771    -0.979057151591    -0.882039039572     1.007825032230
         H            0.001924275771    -0.978445151591     0.881038960428     1.007825032230
         H            1.277582275771     1.189189848409     0.876531960428     1.007825032230
         H            1.277280275771     1.188672848409    -0.879263039572     1.007825032230
         H           -1.289998724229     1.146795848409    -0.888406039572     1.007825032230
         H           -1.290501724229     1.146683848409     0.886531960428     1.007825032230
         H            2.568405275771    -0.821280151591    -0.813786039572     1.007825032230
         H            2.571370875771    -0.881084251591     0.891547260428     1.007825032230
         H           -3.180593724229     0.107446848409    -0.000660039572     1.007825032230

  Basis Set: AUG-CC-PVTZ
    Blend: AUG-CC-PVTZ
  Basis Set: (AUG-CC-PVTZ AUX)
    Blend: AUG-CC-PVTZ-JKFIT
	 Reference Energy          =    -248.2270856510317572 [Eh]
	 Singles Energy            =      -0.0000000000000000 [Eh]
	 Same-Spin Energy          =      -0.2486134128760586 [Eh]
	 Opposite-Spin Energy      =      -0.8471834875039348 [Eh]
	 Correlation Energy        =      -1.0957969003799934 [Eh]
	 Total Energy              =    -249.3228825514117375 [Eh]

	 ================> DF-SCS-MP2 Energies <==================
	-----------------------------------------------------------
	 SCS Same-Spin Scale       =       0.3333333333333333 [-]
	 SCS Opposite-Spin Scale   =       1.2000000000000000 [-]
	 SCS Same-Spin Energy      =      -0.0828711376253529 [Eh]
	 SCS Opposite-Spin Energy  =      -1.0166201850047216 [Eh]
	 SCS Correlation Energy    =      -1.0994913226300744 [Eh]
	 SCS Total Energy          =    -249.3265769736618438 [Eh]
	-----------------------------------------------------------

  Dipole Moment: [D]
     X:    -1.1710      Y:     0.7235      Z:     0.0113     Total:     1.3766

*** Psi4 exiting successfully. Buy a developer a beer!
