                               Psi4 1.3.2 release

  ==> Input File <==

--------------------------------------------------------------------------
#psi4
#
memory 32 gb

molecule  {
0 1
  O       -2.3187166    -0.5058612    -0.0002725
  N        2.5187010    -0.2207910    -0.0001120
  C       -0.0130310    -0.3414550     0.0003300
  C        1.2524210     0.5177120    -0.0001190
  C       -1.2862700     0.4819960     0.0000880
  H       -0.0208770    -0.9936910    -0.8809850
  H       -0.0206570    -0.9930790     0.8820930
  H        1.2550010     1.1745560     0.8775860
  H        1.2546990     1.1740390    -0.8782090
  H       -1.3125800     1.1321620    -0.8873520
  H       -1.3130830     1.1320500     0.8875860
  H        2.5458240    -0.8359140    -0.8127320
  H        2.5461020    -0.8354320     0.8128620
  H       -3.2031750     0.0928130     0.0003940
units angstrom
no_reorient  #important for SAPT in psi4, default
symmetry c1  #important for SAPT in psi4, default
}

set PROPERTIES_ORIGIN ["COM"]
properties('MP2/aug-cc-pvtz', properties = ['dipole'])
--------------------------------------------------------------------------

    Molecular point group: c1
  Charge       = 0
  Multiplicity = 1
  Basis Set: AUG-CC-PVTZ
    Blend: AUG-CC-PVTZ
  Basis Set: (AUG-CC-PVTZ AUX)
    Blend: AUG-CC-PVTZ-JKFIT

    Orbital Energies [Eh]
    ---------------------

    Doubly Occupied:

       1A    -20.573333     2A    -15.540264     3A    -11.278038
       4A    -11.247999     5A    -11.216362     6A     -1.344656
       7A     -1.176922     8A     -1.027789     9A     -0.882256
      10A     -0.808793    11A     -0.680607    12A     -0.673115
      13A     -0.639132    14A     -0.595937    15A     -0.553897
      16A     -0.548505    17A     -0.532663    18A     -0.485223
      19A     -0.480447    20A     -0.449721    21A     -0.389053

  @DF-RHF Final Energy:  -248.22086484660591

   => Energetics <=

    Nuclear Repulsion Energy =            185.6856611551022525
    One-Electron Energy =                -705.5636273610059561
    Two-Electron Energy =                 271.6571013592978261
    Total Energy =                       -248.2208648466058776
  Basis Set: (AUG-CC-PVTZ AUX)
    Blend: AUG-CC-PVTZ-RI
    Molecular point group: c1

    Geometry (in Angstrom), charge = 0, multiplicity = 1:

       Center              X                  Y                   Z               Mass
    ------------   -----------------  -----------------  -----------------  -----------------
         O           -2.310245974414    -0.476178640490    -0.000258030106    15.994914619570
         N            2.527171625586    -0.191108440490    -0.000097530106    14.003074004430
         C           -0.004560374414    -0.311772440490     0.000344469894    12.000000000000
         C            1.260891625586     0.547394559510    -0.000104530106    12.000000000000
         C           -1.277799374414     0.511678559510     0.000102469894    12.000000000000
         H           -0.012406374414    -0.964008440490    -0.880970530106     1.007825032230
         H           -0.012186374414    -0.963396440490     0.882107469894     1.007825032230
         H            1.263471625586     1.204238559510     0.877600469894     1.007825032230
         H            1.263169625586     1.203721559510    -0.878194530106     1.007825032230
         H           -1.304109374414     1.161844559510    -0.887337530106     1.007825032230
         H           -1.304612374414     1.161732559510     0.887600469894     1.007825032230
         H            2.554294625586    -0.806231440490    -0.812717530106     1.007825032230
         H            2.554572625586    -0.805749440490     0.812876469894     1.007825032230
         H           -3.194704374414     0.122495559510     0.000408469894     1.007825032230

  Basis Set: AUG-CC-PVTZ
    Blend: AUG-CC-PVTZ
  Basis Set: (AUG-CC-PVTZ AUX)
    Blend: AUG-CC-PVTZ-JKFIT
	 Reference Energy          =    -248.2208648466059060 [Eh]
	 Singles Energy            =      -0.0000000000000000 [Eh]
	 Same-Spin Energy          =      -0.2497022198902565 [Eh]
	 Opposite-Spin Energy      =      -0.8494645289706647 [Eh]
	 Correlation Energy        =      -1.0991667488609211 [Eh]
	 Total Energy              =    -249.3200315954668156 [Eh]

	 ================> DF-SCS-MP2 Energies <==================
	-----------------------------------------------------------
	 SCS Same-Spin Scale       =       0.3333333333333333 [-]
	 SCS Opposite-Spin Scale   =       1.2000000000000000 [-]
	 SCS Same-Spin Energy      =      -0.0832340732967522 [Eh]
	 SCS Opposite-Spin Energy  =      -1.0193574347647976 [Eh]
	 SCS Correlation Energy    =      -1.1025915080615498 [Eh]
	 SCS Total Energy          =    -249.3234563546674565 [Eh]
	-----------------------------------------------------------

  Dipole Moment: [D]
     X:    -1.3232      Y:     0.7920      Z:     0.0018     Total:     1.5421

*** Psi4 exiting successfully. Buy a developer a beer!
