                               Psi4 1.3.2 release

  ==> Input File <==

--------------------------------------------------------------------------
#psi4
#
memory 32 gb

molecule  {
0 1
  O       -2.3851110    -0.4314350    -0.0002820
  N        2.5187010    -0.2207910    -0.0001120
  C       -0.0130310    -0.3414550     0.0003300
  C        1.2670402     0.5410068     0.0430281
  C       -1.2862700     0.4819960     0.0000880
  H       -0.0208770    -0.9936910    -0.8809850
  H       -0.0206570    -0.9930790     0.8820930
  H        1.2550010     1.1745560     0.8775860
  H        1.2546990     1.1740390    -0.8782090
  H       -1.3125800     1.1321620    -0.8873520
  H       -1.3130830     1.1320500     0.8875860
  H        2.5458240    -0.8359140    -0.8127320
  H        2.5461020    -0.8354320     0.8128620
  H       -3.2031750     0.0928130     0.0003940
units angstrom
no_reorient  #important for SAPT in psi4, default
symmetry c1  #important for SAPT in psi4, default
}

set PROPERTIES_ORIGIN ["COM"]
properties('MP2/aug-cc-pvtz', properties = ['dipole'])
--------------------------------------------------------------------------

    Molecular point group: c1
  Charge       = 0
  Multiplicity = 1
  Basis Set: AUG-CC-PVTZ
    Blend: AUG-CC-PVTZ
  Basis Set: (AUG-CC-PVTZ AUX)
    Blend: AUG-CC-PVTZ-JKFIT

    Orbital Energies [Eh]
    ---------------------

    Doubly Occupied:

       1A    -20.560990     2A    -15.541247     3A    -11.278052
       4A    -11.249720     5A    -11.219477     6A     -1.356904
       7A     -1.177281     8A     -1.029353     9A     -0.888188
      10A     -0.810405    11A     -0.692275    12A     -0.681530
      13A     -0.639116    14A     -0.597517    15A     -0.557976
      16A     -0.549858    17A     -0.535197    18A     -0.491455
      19A     -0.480842    20A     -0.446666    21A     -0.387827

  @DF-RHF Final Energy:  -248.23403576060124

   => Energetics <=

    Nuclear Repulsion Energy =            185.2754992903245181
    One-Electron Energy =                -704.6753154718978749
    Two-Electron Energy =                 271.1657804209720553
    Total Energy =                       -248.2340357606012731
  Basis Set: (AUG-CC-PVTZ AUX)
    Blend: AUG-CC-PVTZ-RI
    Molecular point group: c1

    Geometry (in Angstrom), charge = 0, multiplicity = 1:

       Center              X                  Y                   Z               Mass
    ------------   -----------------  -----------------  -----------------  -----------------
         O           -2.364830582346    -0.421334289071    -0.007162750363    15.994914619570
         N            2.538981417654    -0.210690289071    -0.006992750363    14.003074004430
         C            0.007249417654    -0.331354289071    -0.006550750363    12.000000000000
         C            1.287320617654     0.551107510929     0.036147349637    12.000000000000
         C           -1.265989582346     0.492096710929    -0.006792750363    12.000000000000
         H           -0.000596582346    -0.983590289071    -0.887865750363     1.007825032230
         H           -0.000376582346    -0.982978289071     0.875212249637     1.007825032230
         H            1.275281417654     1.184656710929     0.870705249637     1.007825032230
         H            1.274979417654     1.184139710929    -0.885089750363     1.007825032230
         H           -1.292299582346     1.142262710929    -0.894232750363     1.007825032230
         H           -1.292802582346     1.142150710929     0.880705249637     1.007825032230
         H            2.566104417654    -0.825813289071    -0.819612750363     1.007825032230
         H            2.566382417654    -0.825331289071     0.805981249637     1.007825032230
         H           -3.182894582346     0.102913710929    -0.006486750363     1.007825032230

  Basis Set: AUG-CC-PVTZ
    Blend: AUG-CC-PVTZ
  Basis Set: (AUG-CC-PVTZ AUX)
    Blend: AUG-CC-PVTZ-JKFIT
	 Reference Energy          =    -248.2340357606012446 [Eh]
	 Singles Energy            =      -0.0000000000000000 [Eh]
	 Same-Spin Energy          =      -0.2480573438146745 [Eh]
	 Opposite-Spin Energy      =      -0.8453782734050860 [Eh]
	 Correlation Energy        =      -1.0934356172197606 [Eh]
	 Total Energy              =    -249.3274713778210128 [Eh]

	 ================> DF-SCS-MP2 Energies <==================
	-----------------------------------------------------------
	 SCS Same-Spin Scale       =       0.3333333333333333 [-]
	 SCS Opposite-Spin Scale   =       1.2000000000000000 [-]
	 SCS Same-Spin Energy      =      -0.0826857812715582 [Eh]
	 SCS Opposite-Spin Energy  =      -1.0144539280861031 [Eh]
	 SCS Correlation Energy    =      -1.0971397093576614 [Eh]
	 SCS Total Energy          =    -249.3311754699589073 [Eh]
	-----------------------------------------------------------

  Dipole Moment: [D]
     X:    -1.1458      Y:     0.7379      Z:     0.0376     Total:     1.3634

*** Psi4 exiting successfully. Buy a developer a beer!
