                               Psi4 1.4a3.dev225

  ==> Input File <==

--------------------------------------------------------------------------
#psi4
#
memory 32 gb

molecule  {
0 1
  O        2.3850150    -0.4314620    -0.0000020
  N       -2.5187610    -0.2207970     0.0000020
  C        0.0130360    -0.3413840    -0.0000010
  C       -1.2523980     0.5177100    -0.0000070
  C        1.2864090     0.4819960     0.0000060
  H        0.0207440    -0.9933730     0.8815180
  H        0.0207540    -0.9933720    -0.8815200
  H       -1.2549080     1.1742870    -0.8779080
  H       -1.2549050     1.1743050     0.8778810
  H        1.3129410     1.1321370     0.8874920
  H        1.3129410     1.1321530    -0.8874690
  H       -2.5459240    -0.8356760     0.8128080
  H       -2.5459230    -0.8357000    -0.8127860
  H        3.1863603     0.0817862    -0.0000069
units angstrom
no_reorient  #important for SAPT in psi4, default
symmetry c1  #important for SAPT in psi4, default
}

set PROPERTIES_ORIGIN ["COM"]
properties('MP2/aug-cc-pvtz', properties = ['dipole'])
--------------------------------------------------------------------------

    Molecular point group: c1
  Charge       = 0
  Multiplicity = 1
  Basis Set: AUG-CC-PVTZ
    Blend: AUG-CC-PVTZ
  Basis Set: (AUG-CC-PVTZ AUX)
    Blend: AUG-CC-PVTZ-JKFIT

    Orbital Energies [Eh]
    ---------------------

    Doubly Occupied:

       1A    -20.559617     2A    -15.541818     3A    -11.279017
       4A    -11.250112     5A    -11.219134     6A     -1.362016
       7A     -1.178557     8A     -1.033416     9A     -0.888692
      10A     -0.809309    11A     -0.697053    12A     -0.681636
      13A     -0.639497    14A     -0.597694    15A     -0.558649
      16A     -0.550993    17A     -0.536677    18A     -0.485675
      19A     -0.482869    20A     -0.447649    21A     -0.392187

  @DF-RHF Final Energy:  -248.23760220439027

   => Energetics <=

    Nuclear Repulsion Energy =            185.6579945076348110
    One-Electron Energy =                -705.4066562135883487
    Two-Electron Energy =                 271.5110595015632384
    Total Energy =                       -248.2376022043902708
  Basis Set: (AUG-CC-PVTZ AUX)
    Blend: AUG-CC-PVTZ-RI
    Molecular point group: c1

    Geometry (in Angstrom), charge = 0, multiplicity = 1:

       Center              X                  Y                   Z               Mass
    ------------   -----------------  -----------------  -----------------  -----------------
         O            2.362626337535    -0.417494575985    -0.000001749396    15.994914619570
         N           -2.541149662465    -0.206829575985     0.000002250604    14.003074004430
         C           -0.009352662465    -0.327416575985    -0.000000749396    12.000000000000
         C           -1.274786662465     0.531677424015    -0.000006749396    12.000000000000
         C            1.264020337535     0.495963424015     0.000006250604    12.000000000000
         H           -0.001644662465    -0.979405575985     0.881518250604     1.007825032230
         H           -0.001634662465    -0.979404575985    -0.881519749396     1.007825032230
         H           -1.277296662465     1.188254424015    -0.877907749396     1.007825032230
         H           -1.277293662465     1.188272424015     0.877881250604     1.007825032230
         H            1.290552337535     1.146104424015     0.887492250604     1.007825032230
         H            1.290552337535     1.146120424015    -0.887468749396     1.007825032230
         H           -2.568312662465    -0.821708575985     0.812808250604     1.007825032230
         H           -2.568311662465    -0.821732575985    -0.812785749396     1.007825032230
         H            3.163971637535     0.095753624015    -0.000006649396     1.007825032230

  Basis Set: AUG-CC-PVTZ
    Blend: AUG-CC-PVTZ
  Basis Set: (AUG-CC-PVTZ AUX)
    Blend: AUG-CC-PVTZ-JKFIT
	 Reference Energy          =    -248.2376022043902708 [Eh]
	 Singles Energy            =      -0.0000000000000000 [Eh]
	 Same-Spin Energy          =      -0.2479583161987687 [Eh]
	 Opposite-Spin Energy      =      -0.8448329486632327 [Eh]
	 Correlation Energy        =      -1.0927912648620013 [Eh]
	 Total Energy              =    -249.3303934692522716 [Eh]

	 ================> DF-SCS-MP2 Energies <==================
	-----------------------------------------------------------
	 SCS Same-Spin Scale       =       0.3333333333333333 [-]
	 SCS Opposite-Spin Scale   =       1.2000000000000000 [-]
	 SCS Same-Spin Energy      =      -0.0826527720662562 [Eh]
	 SCS Opposite-Spin Energy  =      -1.0137995383958791 [Eh]
	 SCS Correlation Energy    =      -1.0964523104621353 [Eh]
	 SCS Total Energy          =    -249.3340545148523972 [Eh]
	-----------------------------------------------------------

  Dipole Moment: [D]
     X:     1.1563      Y:     0.7063      Z:     0.0000     Total:     1.3549

*** Psi4 exiting successfully. Buy a developer a beer!
