                               Psi4 1.3.2 release

  ==> Input File <==

--------------------------------------------------------------------------
#psi4
#
memory 32 gb

molecule  {
0 1
  O       -2.3683847    -0.4501773    -0.0433701
  N        2.5187010    -0.2207910    -0.0001120
  C       -0.0130310    -0.3414550     0.0003300
  C        1.2524210     0.5177120    -0.0001190
  C       -1.2862700     0.4819960     0.0000880
  H       -0.0208770    -0.9936910    -0.8809850
  H       -0.0206570    -0.9930790     0.8820930
  H        1.2550010     1.1745560     0.8775860
  H        1.2546990     1.1740390    -0.8782090
  H       -1.3125800     1.1321620    -0.8873520
  H       -1.3130830     1.1320500     0.8875860
  H        2.5458240    -0.8359140    -0.8127320
  H        2.5461020    -0.8354320     0.8128620
  H       -3.2031750     0.0928130     0.0003940
units angstrom
no_reorient  #important for SAPT in psi4, default
symmetry c1  #important for SAPT in psi4, default
}

set PROPERTIES_ORIGIN ["COM"]
properties('MP2/aug-cc-pvtz', properties = ['dipole'])
--------------------------------------------------------------------------

    Molecular point group: c1
  Charge       = 0
  Multiplicity = 1
  Basis Set: AUG-CC-PVTZ
    Blend: AUG-CC-PVTZ
  Basis Set: (AUG-CC-PVTZ AUX)
    Blend: AUG-CC-PVTZ-JKFIT

    Orbital Energies [Eh]
    ---------------------

    Doubly Occupied:

       1A    -20.564754     2A    -15.541366     3A    -11.278461
       4A    -11.249523     5A    -11.218303     6A     -1.353551
       7A     -1.178083     8A     -1.031276     9A     -0.885965
      10A     -0.808883    11A     -0.687856    12A     -0.680893
      13A     -0.639082    14A     -0.597014    15A     -0.556718
      16A     -0.550150    17A     -0.535606    18A     -0.485535
      19A     -0.482089    20A     -0.447557    21A     -0.391302

  @DF-RHF Final Energy:  -248.23397439585932

   => Energetics <=

    Nuclear Repulsion Energy =            185.5619863717385272
    One-Electron Energy =                -705.2639893451889748
    Two-Electron Energy =                 271.4680285775911557
    Total Energy =                       -248.2339743958593203
  Basis Set: (AUG-CC-PVTZ AUX)
    Blend: AUG-CC-PVTZ-RI
    Molecular point group: c1

    Geometry (in Angstrom), charge = 0, multiplicity = 1:

       Center              X                  Y                   Z               Mass
    ------------   -----------------  -----------------  -----------------  -----------------
         O           -2.349331234343    -0.432359374092    -0.034172774143    15.994914619570
         N            2.537754465657    -0.202973074092     0.009085325857    14.003074004430
         C            0.006022465657    -0.323637074092     0.009527325857    12.000000000000
         C            1.271474465657     0.535529925908     0.009078325857    12.000000000000
         C           -1.267216534343     0.499813925908     0.009285325857    12.000000000000
         H           -0.001823534343    -0.975873074092    -0.871787674143     1.007825032230
         H           -0.001603534343    -0.975261074092     0.891290325857     1.007825032230
         H            1.274054465657     1.192373925908     0.886783325857     1.007825032230
         H            1.273752465657     1.191856925908    -0.869011674143     1.007825032230
         H           -1.293526534343     1.149979925908    -0.878154674143     1.007825032230
         H           -1.294029534343     1.149867925908     0.896783325857     1.007825032230
         H            2.564877465657    -0.818096074092    -0.803534674143     1.007825032230
         H            2.565155465657    -0.817614074092     0.822059325857     1.007825032230
         H           -3.184121534343     0.110630925908     0.009591325857     1.007825032230

  Basis Set: AUG-CC-PVTZ
    Blend: AUG-CC-PVTZ
  Basis Set: (AUG-CC-PVTZ AUX)
    Blend: AUG-CC-PVTZ-JKFIT
	 Reference Energy          =    -248.2339743958593203 [Eh]
	 Singles Energy            =      -0.0000000000000000 [Eh]
	 Same-Spin Energy          =      -0.2485736045506493 [Eh]
	 Opposite-Spin Energy      =      -0.8464437930806703 [Eh]
	 Correlation Energy        =      -1.0950173976313196 [Eh]
	 Total Energy              =    -249.3289917934906441 [Eh]

	 ================> DF-SCS-MP2 Energies <==================
	-----------------------------------------------------------
	 SCS Same-Spin Scale       =       0.3333333333333333 [-]
	 SCS Opposite-Spin Scale   =       1.2000000000000000 [-]
	 SCS Same-Spin Energy      =      -0.0828578681835497 [Eh]
	 SCS Opposite-Spin Energy  =      -1.0157325516968043 [Eh]
	 SCS Correlation Energy    =      -1.0985904198803540 [Eh]
	 SCS Total Energy          =    -249.3325648157396870 [Eh]
	-----------------------------------------------------------

  Dipole Moment: [D]
     X:    -1.2125      Y:     0.7315      Z:     0.1030     Total:     1.4198

*** Psi4 exiting successfully. Buy a developer a beer!
