                               Psi4 1.4a3.dev225

  ==> Input File <==

--------------------------------------------------------------------------
#psi4
#
memory 32 gb

molecule  {
0 1
  O        2.3850150    -0.4314620    -0.0000020
  N       -2.5187610    -0.2207970     0.0000020
  C        0.0130360    -0.3413840    -0.0000010
  C       -1.2523980     0.5177100    -0.0000070
  C        1.2864090     0.4819960     0.0000060
  H        0.0207440    -0.9933730     0.8815180
  H        0.0207540    -0.9933720    -0.8815200
  H       -1.2549080     1.1742870    -0.8779080
  H       -1.2549050     1.1743050     0.8778810
  H        1.3129410     1.1321370     0.8874920
  H        1.3129410     1.1321530    -0.8874690
  H       -2.5459240    -0.8356760     0.8128080
  H       -2.5459230    -0.8357000    -0.8127860
  H        3.2200437     0.1033598    -0.0000071
units angstrom
no_reorient  #important for SAPT in psi4, default
symmetry c1  #important for SAPT in psi4, default
}

set PROPERTIES_ORIGIN ["COM"]
properties('MP2/aug-cc-pvtz', properties = ['dipole'])
--------------------------------------------------------------------------

    Molecular point group: c1
  Charge       = 0
  Multiplicity = 1
  Basis Set: AUG-CC-PVTZ
    Blend: AUG-CC-PVTZ
  Basis Set: (AUG-CC-PVTZ AUX)
    Blend: AUG-CC-PVTZ-JKFIT

    Orbital Energies [Eh]
    ---------------------

    Doubly Occupied:

       1A    -20.563296     2A    -15.541733     3A    -11.278555
       4A    -11.250025     5A    -11.218952     6A     -1.353224
       7A     -1.178428     8A     -1.031852     9A     -0.886601
      10A     -0.808922    11A     -0.688565    12A     -0.681439
      13A     -0.639029    14A     -0.597104    15A     -0.557875
      16A     -0.550582    17A     -0.535202    18A     -0.484413
      19A     -0.482605    20A     -0.446689    21A     -0.391978

  @DF-RHF Final Energy:  -248.23513260693946

   => Energetics <=

    Nuclear Repulsion Energy =            185.4255250908378514
    One-Electron Energy =                -704.9871790729257555
    Two-Electron Energy =                 271.3265213751485021
    Total Energy =                       -248.2351326069394304
  Basis Set: (AUG-CC-PVTZ AUX)
    Blend: AUG-CC-PVTZ-RI
    Molecular point group: c1

    Geometry (in Angstrom), charge = 0, multiplicity = 1:

       Center              X                  Y                   Z               Mass
    ------------   -----------------  -----------------  -----------------  -----------------
         O            2.362174123722    -0.417784210639    -0.000001746711    15.994914619570
         N           -2.541601876278    -0.207119210639     0.000002253289    14.003074004430
         C           -0.009804876278    -0.327706210639    -0.000000746711    12.000000000000
         C           -1.275238876278     0.531387789361    -0.000006746711    12.000000000000
         C            1.263568123722     0.495673789361     0.000006253289    12.000000000000
         H           -0.002096876278    -0.979695210639     0.881518253289     1.007825032230
         H           -0.002086876278    -0.979694210639    -0.881519746711     1.007825032230
         H           -1.277748876278     1.187964789361    -0.877907746711     1.007825032230
         H           -1.277745876278     1.187982789361     0.877881253289     1.007825032230
         H            1.290100123722     1.145814789361     0.887492253289     1.007825032230
         H            1.290100123722     1.145830789361    -0.887468746711     1.007825032230
         H           -2.568764876278    -0.821998210639     0.812808253289     1.007825032230
         H           -2.568763876278    -0.822022210639    -0.812785746711     1.007825032230
         H            3.197202823722     0.117037589361    -0.000006846711     1.007825032230

  Basis Set: AUG-CC-PVTZ
    Blend: AUG-CC-PVTZ
  Basis Set: (AUG-CC-PVTZ AUX)
    Blend: AUG-CC-PVTZ-JKFIT
	 Reference Energy          =    -248.2351326069394588 [Eh]
	 Singles Energy            =      -0.0000000000000000 [Eh]
	 Same-Spin Energy          =      -0.2484100727136682 [Eh]
	 Opposite-Spin Energy      =      -0.8460715357227200 [Eh]
	 Correlation Energy        =      -1.0944816084363882 [Eh]
	 Total Energy              =    -249.3296142153758410 [Eh]

	 ================> DF-SCS-MP2 Energies <==================
	-----------------------------------------------------------
	 SCS Same-Spin Scale       =       0.3333333333333333 [-]
	 SCS Opposite-Spin Scale   =       1.2000000000000000 [-]
	 SCS Same-Spin Energy      =      -0.0828033575712227 [Eh]
	 SCS Opposite-Spin Energy  =      -1.0152858428672640 [Eh]
	 SCS Correlation Energy    =      -1.0980892004384868 [Eh]
	 SCS Total Energy          =    -249.3332218073779529 [Eh]
	-----------------------------------------------------------

  Dipole Moment: [D]
     X:     1.1849      Y:     0.7171      Z:     0.0000     Total:     1.3850

*** Psi4 exiting successfully. Buy a developer a beer!
