                               Psi4 1.3.2 release

  ==> Input File <==

--------------------------------------------------------------------------
#psi4
#
memory 32 gb

molecule  {
0 1
  O       -2.3929733    -0.4216451     0.0212655
  N        2.5187010    -0.2207910    -0.0001120
  C       -0.0130310    -0.3414550     0.0003300
  C        1.2524210     0.5177120    -0.0001190
  C       -1.2862700     0.4819960     0.0000880
  H       -0.0208770    -0.9936910    -0.8809850
  H       -0.0206570    -0.9930790     0.8820930
  H        1.2550010     1.1745560     0.8775860
  H        1.2546990     1.1740390    -0.8782090
  H       -1.3125800     1.1321620    -0.8873520
  H       -1.3130830     1.1320500     0.8875860
  H        2.5458240    -0.8359140    -0.8127320
  H        2.5461020    -0.8354320     0.8128620
  H       -3.2031750     0.0928130     0.0003940
units angstrom
no_reorient  #important for SAPT in psi4, default
symmetry c1  #important for SAPT in psi4, default
}

set PROPERTIES_ORIGIN ["COM"]
properties('MP2/aug-cc-pvtz', properties = ['dipole'])
--------------------------------------------------------------------------

    Molecular point group: c1
  Charge       = 0
  Multiplicity = 1
  Basis Set: AUG-CC-PVTZ
    Blend: AUG-CC-PVTZ
  Basis Set: (AUG-CC-PVTZ AUX)
    Blend: AUG-CC-PVTZ-JKFIT

    Orbital Energies [Eh]
    ---------------------

    Doubly Occupied:

       1A    -20.559900     2A    -15.541968     3A    -11.278939
       4A    -11.250337     5A    -11.219396     6A     -1.359330
       7A     -1.178716     8A     -1.033281     9A     -0.888442
      10A     -0.809275    11A     -0.695270    12A     -0.681638
      13A     -0.639284    14A     -0.597594    15A     -0.559076
      16A     -0.551064    17A     -0.536013    18A     -0.484939
      19A     -0.483006    20A     -0.446857    21A     -0.392421

  @DF-RHF Final Energy:  -248.23743054907862

   => Energetics <=

    Nuclear Repulsion Energy =            185.5293450421779937
    One-Electron Energy =                -705.1600599791120203
    Two-Electron Energy =                 271.3932843878554309
    Total Energy =                       -248.2374305490786242
  Basis Set: (AUG-CC-PVTZ AUX)
    Blend: AUG-CC-PVTZ-RI
    Molecular point group: c1

    Geometry (in Angstrom), charge = 0, multiplicity = 1:

       Center              X                  Y                   Z               Mass
    ------------   -----------------  -----------------  -----------------  -----------------
         O           -2.368680712626    -0.409906563267     0.016690843082    15.994914619570
         N            2.542993587374    -0.209052463267    -0.004686656918    14.003074004430
         C            0.011261587374    -0.329716463267    -0.004244656918    12.000000000000
         C            1.276713587374     0.529450536733    -0.004693656918    12.000000000000
         C           -1.261977412626     0.493734536733    -0.004486656918    12.000000000000
         H            0.003415587374    -0.981952463267    -0.885559656918     1.007825032230
         H            0.003635587374    -0.981340463267     0.877518343082     1.007825032230
         H            1.279293587374     1.186294536733     0.873011343082     1.007825032230
         H            1.278991587374     1.185777536733    -0.882783656918     1.007825032230
         H           -1.288287412626     1.143900536733    -0.891926656918     1.007825032230
         H           -1.288790412626     1.143788536733     0.883011343082     1.007825032230
         H            2.570116587374    -0.824175463267    -0.817306656918     1.007825032230
         H            2.570394587374    -0.823693463267     0.808287343082     1.007825032230
         H           -3.178882412626     0.104551536733    -0.004180656918     1.007825032230

  Basis Set: AUG-CC-PVTZ
    Blend: AUG-CC-PVTZ
  Basis Set: (AUG-CC-PVTZ AUX)
    Blend: AUG-CC-PVTZ-JKFIT
	 Reference Energy          =    -248.2374305490786242 [Eh]
	 Singles Energy            =      -0.0000000000000000 [Eh]
	 Same-Spin Energy          =      -0.2480137014699151 [Eh]
	 Opposite-Spin Energy      =      -0.8450094178178552 [Eh]
	 Correlation Energy        =      -1.0930231192877704 [Eh]
	 Total Energy              =    -249.3304536683664026 [Eh]

	 ================> DF-SCS-MP2 Energies <==================
	-----------------------------------------------------------
	 SCS Same-Spin Scale       =       0.3333333333333333 [-]
	 SCS Opposite-Spin Scale   =       1.2000000000000000 [-]
	 SCS Same-Spin Energy      =      -0.0826712338233050 [Eh]
	 SCS Opposite-Spin Energy  =      -1.0140113013814263 [Eh]
	 SCS Correlation Energy    =      -1.0966825352047314 [Eh]
	 SCS Total Energy          =    -249.3341130842833593 [Eh]
	-----------------------------------------------------------

  Dipole Moment: [D]
     X:    -1.1485      Y:     0.7006      Z:    -0.0500     Total:     1.3462

*** Psi4 exiting successfully. Buy a developer a beer!
