                               Psi4 1.3.2 release

  ==> Input File <==

--------------------------------------------------------------------------
#psi4
#
memory 32 gb

molecule  {
0 1
  O       -2.3851110    -0.4314350    -0.0002820
  N        2.5437030    -0.1761486    -0.0001288
  C       -0.0130310    -0.3414550     0.0003300
  C        1.2524210     0.5177120    -0.0001190
  C       -1.2862700     0.4819960     0.0000880
  H       -0.0208770    -0.9936910    -0.8809850
  H       -0.0206570    -0.9930790     0.8820930
  H        1.2550010     1.1745560     0.8775860
  H        1.2546990     1.1740390    -0.8782090
  H       -1.3125800     1.1321620    -0.8873520
  H       -1.3130830     1.1320500     0.8875860
  H        2.5458240    -0.8359140    -0.8127320
  H        2.5461020    -0.8354320     0.8128620
  H       -3.2031750     0.0928130     0.0003940
units angstrom
no_reorient  #important for SAPT in psi4, default
symmetry c1  #important for SAPT in psi4, default
}

set PROPERTIES_ORIGIN ["COM"]
properties('MP2/aug-cc-pvtz', properties = ['dipole'])
--------------------------------------------------------------------------

    Molecular point group: c1
  Charge       = 0
  Multiplicity = 1
  Basis Set: AUG-CC-PVTZ
    Blend: AUG-CC-PVTZ
  Basis Set: (AUG-CC-PVTZ AUX)
    Blend: AUG-CC-PVTZ-JKFIT

    Orbital Energies [Eh]
    ---------------------

    Doubly Occupied:

       1A    -20.562271     2A    -15.550317     3A    -11.279942
       4A    -11.249908     5A    -11.220767     6A     -1.358213
       7A     -1.175703     8A     -1.032818     9A     -0.885948
      10A     -0.809507    11A     -0.693615    12A     -0.677142
      13A     -0.634411    14A     -0.595458    15A     -0.561114
      16A     -0.546267    17A     -0.534173    18A     -0.485069
      19A     -0.480706    20A     -0.447950    21A     -0.398948

  @DF-RHF Final Energy:  -248.23290440721902

   => Energetics <=

    Nuclear Repulsion Energy =            185.1838910931507201
    One-Electron Energy =                -704.4731006186196964
    Two-Electron Energy =                 271.0563051182500089
    Total Energy =                       -248.2329044072189959
  Basis Set: (AUG-CC-PVTZ AUX)
    Blend: AUG-CC-PVTZ-RI
    Molecular point group: c1

    Geometry (in Angstrom), charge = 0, multiplicity = 1:

       Center              X                  Y                   Z               Mass
    ------------   -----------------  -----------------  -----------------  -----------------
         O           -2.367157452559    -0.425937999379    -0.000262372100    15.994914619570
         N            2.561656547441    -0.170651599379    -0.000109172100    14.003074004430
         C            0.004922547441    -0.335957999379     0.000349627900    12.000000000000
         C            1.270374547441     0.523209000621    -0.000099372100    12.000000000000
         C           -1.268316452559     0.487493000621     0.000107627900    12.000000000000
         H           -0.002923452559    -0.988193999379    -0.880965372100     1.007825032230
         H           -0.002703452559    -0.987581999379     0.882112627900     1.007825032230
         H            1.272954547441     1.180053000621     0.877605627900     1.007825032230
         H            1.272652547441     1.179536000621    -0.878189372100     1.007825032230
         H           -1.294626452559     1.137659000621    -0.887332372100     1.007825032230
         H           -1.295129452559     1.137547000621     0.887605627900     1.007825032230
         H            2.563777547441    -0.830416999379    -0.812712372100     1.007825032230
         H            2.564055547441    -0.829934999379     0.812881627900     1.007825032230
         H           -3.185221452559     0.098310000621     0.000413627900     1.007825032230

  Basis Set: AUG-CC-PVTZ
    Blend: AUG-CC-PVTZ
  Basis Set: (AUG-CC-PVTZ AUX)
    Blend: AUG-CC-PVTZ-JKFIT
	 Reference Energy          =    -248.2329044072190243 [Eh]
	 Singles Energy            =      -0.0000000000000000 [Eh]
	 Same-Spin Energy          =      -0.2485424423910853 [Eh]
	 Opposite-Spin Energy      =      -0.8467251786862218 [Eh]
	 Correlation Energy        =      -1.0952676210773071 [Eh]
	 Total Energy              =    -249.3281720282963363 [Eh]

	 ================> DF-SCS-MP2 Energies <==================
	-----------------------------------------------------------
	 SCS Same-Spin Scale       =       0.3333333333333333 [-]
	 SCS Opposite-Spin Scale   =       1.2000000000000000 [-]
	 SCS Same-Spin Energy      =      -0.0828474807970284 [Eh]
	 SCS Opposite-Spin Energy  =      -1.0160702144234661 [Eh]
	 SCS Correlation Energy    =      -1.0989176952204947 [Eh]
	 SCS Total Energy          =    -249.3318221024395314 [Eh]
	-----------------------------------------------------------

  Dipole Moment: [D]
     X:    -1.2573      Y:     0.6466      Z:     0.0019     Total:     1.4138

*** Psi4 exiting successfully. Buy a developer a beer!
