                               Psi4 1.3.2 release

  ==> Input File <==

--------------------------------------------------------------------------
#psi4
#
memory 32 gb

molecule  {
0 1
  O       -2.3851110    -0.4314350    -0.0002820
  N        2.5114998    -0.2326957    -0.0215825
  C       -0.0130310    -0.3414550     0.0003300
  C        1.2524210     0.5177120    -0.0001190
  C       -1.2862700     0.4819960     0.0000880
  H       -0.0208770    -0.9936910    -0.8809850
  H       -0.0206570    -0.9930790     0.8820930
  H        1.2550010     1.1745560     0.8775860
  H        1.2546990     1.1740390    -0.8782090
  H       -1.3125800     1.1321620    -0.8873520
  H       -1.3130830     1.1320500     0.8875860
  H        2.5458240    -0.8359140    -0.8127320
  H        2.5461020    -0.8354320     0.8128620
  H       -3.2031750     0.0928130     0.0003940
units angstrom
no_reorient  #important for SAPT in psi4, default
symmetry c1  #important for SAPT in psi4, default
}

set PROPERTIES_ORIGIN ["COM"]
properties('MP2/aug-cc-pvtz', properties = ['dipole'])
--------------------------------------------------------------------------

    Molecular point group: c1
  Charge       = 0
  Multiplicity = 1
  Basis Set: AUG-CC-PVTZ
    Blend: AUG-CC-PVTZ
  Basis Set: (AUG-CC-PVTZ AUX)
    Blend: AUG-CC-PVTZ-JKFIT

    Orbital Energies [Eh]
    ---------------------

    Doubly Occupied:

       1A    -20.561265     2A    -15.539563     3A    -11.278455
       4A    -11.250176     5A    -11.218574     6A     -1.357185
       7A     -1.179369     8A     -1.032609     9A     -0.888148
      10A     -0.809032    11A     -0.692580    12A     -0.682954
      13A     -0.640463    14A     -0.598068    15A     -0.558414
      16A     -0.550876    17A     -0.536295    18A     -0.485389
      19A     -0.482714    20A     -0.446954    21A     -0.390248

  @DF-RHF Final Energy:  -248.23660261167751

   => Energetics <=

    Nuclear Repulsion Energy =            185.6383182891143804
    One-Electron Energy =                -705.3911827965376915
    Two-Electron Energy =                 271.5162618957457425
    Total Energy =                       -248.2366026116775402
  Basis Set: (AUG-CC-PVTZ AUX)
    Blend: AUG-CC-PVTZ-RI
    Molecular point group: c1

    Geometry (in Angstrom), charge = 0, multiplicity = 1:

       Center              X                  Y                   Z               Mass
    ------------   -----------------  -----------------  -----------------  -----------------
         O           -2.361150348248    -0.415389844906     0.003739547391    15.994914619570
         N            2.535460451752    -0.216650544906    -0.017560952609    14.003074004430
         C            0.010929651752    -0.325409844906     0.004351547391    12.000000000000
         C            1.276381651752     0.533757155094     0.003902547391    12.000000000000
         C           -1.262309348248     0.498041155094     0.004109547391    12.000000000000
         H            0.003083651752    -0.977645844906    -0.876963452609     1.007825032230
         H            0.003303651752    -0.977033844906     0.886114547391     1.007825032230
         H            1.278961651752     1.190601155094     0.881607547391     1.007825032230
         H            1.278659651752     1.190084155094    -0.874187452609     1.007825032230
         H           -1.288619348248     1.148207155094    -0.883330452609     1.007825032230
         H           -1.289122348248     1.148095155094     0.891607547391     1.007825032230
         H            2.569784651752    -0.819868844906    -0.808710452609     1.007825032230
         H            2.570062651752    -0.819386844906     0.816883547391     1.007825032230
         H           -3.179214348248     0.108858155094     0.004415547391     1.007825032230

  Basis Set: AUG-CC-PVTZ
    Blend: AUG-CC-PVTZ
  Basis Set: (AUG-CC-PVTZ AUX)
    Blend: AUG-CC-PVTZ-JKFIT
	 Reference Energy          =    -248.2366026116775117 [Eh]
	 Singles Energy            =      -0.0000000000000000 [Eh]
	 Same-Spin Energy          =      -0.2481135314047343 [Eh]
	 Opposite-Spin Energy      =      -0.8451748830328967 [Eh]
	 Correlation Energy        =      -1.0932884144376309 [Eh]
	 Total Energy              =    -249.3298910261151491 [Eh]

	 ================> DF-SCS-MP2 Energies <==================
	-----------------------------------------------------------
	 SCS Same-Spin Scale       =       0.3333333333333333 [-]
	 SCS Opposite-Spin Scale   =       1.2000000000000000 [-]
	 SCS Same-Spin Energy      =      -0.0827045104682448 [Eh]
	 SCS Opposite-Spin Energy  =      -1.0142098596394760 [Eh]
	 SCS Correlation Energy    =      -1.0969143701077206 [Eh]
	 SCS Total Energy          =    -249.3335169817852375 [Eh]
	-----------------------------------------------------------

  Dipole Moment: [D]
     X:    -1.1445      Y:     0.7322      Z:     0.0273     Total:     1.3589

*** Psi4 exiting successfully. Buy a developer a beer!
