                               Psi4 1.3.2 release

  ==> Input File <==

--------------------------------------------------------------------------
#psi4
#
memory 32 gb

molecule  {
0 1
  O       -2.4004985    -0.4115799     0.0428066
  N        2.5187010    -0.2207910    -0.0001120
  C       -0.0130310    -0.3414550     0.0003300
  C        1.2524210     0.5177120    -0.0001190
  C       -1.2862700     0.4819960     0.0000880
  H       -0.0208770    -0.9936910    -0.8809850
  H       -0.0206570    -0.9930790     0.8820930
  H        1.2550010     1.1745560     0.8775860
  H        1.2546990     1.1740390    -0.8782090
  H       -1.3125800     1.1321620    -0.8873520
  H       -1.3130830     1.1320500     0.8875860
  H        2.5458240    -0.8359140    -0.8127320
  H        2.5461020    -0.8354320     0.8128620
  H       -3.2031750     0.0928130     0.0003940
units angstrom
no_reorient  #important for SAPT in psi4, default
symmetry c1  #important for SAPT in psi4, default
}

set PROPERTIES_ORIGIN ["COM"]
properties('MP2/aug-cc-pvtz', properties = ['dipole'])
--------------------------------------------------------------------------

    Molecular point group: c1
  Charge       = 0
  Multiplicity = 1
  Basis Set: AUG-CC-PVTZ
    Blend: AUG-CC-PVTZ
  Basis Set: (AUG-CC-PVTZ AUX)
    Blend: AUG-CC-PVTZ-JKFIT

    Orbital Energies [Eh]
    ---------------------

    Doubly Occupied:

       1A    -20.558368     2A    -15.542161     3A    -11.279097
       4A    -11.250595     5A    -11.219753     6A     -1.361230
       7A     -1.178918     8A     -1.033914     9A     -0.889271
      10A     -0.809456    11A     -0.697741    12A     -0.681657
      13A     -0.639269    14A     -0.597785    15A     -0.559947
      16A     -0.551334    17A     -0.536015    18A     -0.484946
      19A     -0.483144    20A     -0.446463    21A     -0.392757

  @DF-RHF Final Energy:  -248.23772138803713

   => Energetics <=

    Nuclear Repulsion Energy =            185.5199756790215133
    One-Electron Energy =                -705.1277516019689529
    Two-Electron Energy =                 271.3700545349103095
    Total Energy =                       -248.2377213880371301
  Basis Set: (AUG-CC-PVTZ AUX)
    Blend: AUG-CC-PVTZ-RI
    Molecular point group: c1

    Geometry (in Angstrom), charge = 0, multiplicity = 1:

       Center              X                  Y                   Z               Mass
    ------------   -----------------  -----------------  -----------------  -----------------
         O           -2.374602509474    -0.401985967186     0.033642155748    15.994914619570
         N            2.544596990526    -0.211197067186    -0.009276444252    14.003074004430
         C            0.012864990526    -0.331861067186    -0.008834444252    12.000000000000
         C            1.278316990526     0.527305932814    -0.009283444252    12.000000000000
         C           -1.260374009474     0.491589932814    -0.009076444252    12.000000000000
         H            0.005018990526    -0.984097067186    -0.890149444252     1.007825032230
         H            0.005238990526    -0.983485067186     0.872928555748     1.007825032230
         H            1.280896990526     1.184149932814     0.868421555748     1.007825032230
         H            1.280594990526     1.183632932814    -0.887373444252     1.007825032230
         H           -1.286684009474     1.141755932814    -0.896516444252     1.007825032230
         H           -1.287187009474     1.141643932814     0.878421555748     1.007825032230
         H            2.571719990526    -0.826320067186    -0.821896444252     1.007825032230
         H            2.571997990526    -0.825838067186     0.803697555748     1.007825032230
         H           -3.177279009474     0.102406932814    -0.008770444252     1.007825032230

  Basis Set: AUG-CC-PVTZ
    Blend: AUG-CC-PVTZ
  Basis Set: (AUG-CC-PVTZ AUX)
    Blend: AUG-CC-PVTZ-JKFIT
	 Reference Energy          =    -248.2377213880371301 [Eh]
	 Singles Energy            =      -0.0000000000000000 [Eh]
	 Same-Spin Energy          =      -0.2478557541929697 [Eh]
	 Opposite-Spin Energy      =      -0.8446082524032241 [Eh]
	 Correlation Energy        =      -1.0924640065961939 [Eh]
	 Total Energy              =    -249.3301853946333324 [Eh]

	 ================> DF-SCS-MP2 Energies <==================
	-----------------------------------------------------------
	 SCS Same-Spin Scale       =       0.3333333333333333 [-]
	 SCS Opposite-Spin Scale   =       1.2000000000000000 [-]
	 SCS Same-Spin Energy      =      -0.0826185847309899 [Eh]
	 SCS Opposite-Spin Energy  =      -1.0135299028838689 [Eh]
	 SCS Correlation Energy    =      -1.0961484876148588 [Eh]
	 SCS Total Energy          =    -249.3338698756519989 [Eh]
	-----------------------------------------------------------

  Dipole Moment: [D]
     X:    -1.1276      Y:     0.6879      Z:    -0.1027     Total:     1.3248

*** Psi4 exiting successfully. Buy a developer a beer!
