                               Psi4 1.3.2 release

  ==> Input File <==

--------------------------------------------------------------------------
#psi4
#
memory 32 gb

molecule  {
0 1
  O       -2.4145285    -0.3906361     0.0858431
  N        2.5187010    -0.2207910    -0.0001120
  C       -0.0130310    -0.3414550     0.0003300
  C        1.2524210     0.5177120    -0.0001190
  C       -1.2862700     0.4819960     0.0000880
  H       -0.0208770    -0.9936910    -0.8809850
  H       -0.0206570    -0.9930790     0.8820930
  H        1.2550010     1.1745560     0.8775860
  H        1.2546990     1.1740390    -0.8782090
  H       -1.3125800     1.1321620    -0.8873520
  H       -1.3130830     1.1320500     0.8875860
  H        2.5458240    -0.8359140    -0.8127320
  H        2.5461020    -0.8354320     0.8128620
  H       -3.2031750     0.0928130     0.0003940
units angstrom
no_reorient  #important for SAPT in psi4, default
symmetry c1  #important for SAPT in psi4, default
}

set PROPERTIES_ORIGIN ["COM"]
properties('MP2/aug-cc-pvtz', properties = ['dipole'])
--------------------------------------------------------------------------

    Molecular point group: c1
  Charge       = 0
  Multiplicity = 1
  Basis Set: AUG-CC-PVTZ
    Blend: AUG-CC-PVTZ
  Basis Set: (AUG-CC-PVTZ AUX)
    Blend: AUG-CC-PVTZ-JKFIT

    Orbital Energies [Eh]
    ---------------------

    Doubly Occupied:

       1A    -20.555485     2A    -15.542530     3A    -11.279391
       4A    -11.251084     5A    -11.220443     6A     -1.364894
       7A     -1.179303     8A     -1.035102     9A     -0.890891
      10A     -0.809887    11A     -0.702386    12A     -0.681542
      13A     -0.639102    14A     -0.598159    15A     -0.561732
      16A     -0.551807    17A     -0.535911    18A     -0.485513
      19A     -0.482977    20A     -0.445408    21A     -0.393370

  @DF-RHF Final Energy:  -248.23717137314870

   => Energetics <=

    Nuclear Repulsion Energy =            185.5017105024800514
    One-Electron Energy =                -705.0639242233661435
    Two-Electron Energy =                 271.3250423477373943
    Total Energy =                       -248.2371713731487262
  Basis Set: (AUG-CC-PVTZ AUX)
    Blend: AUG-CC-PVTZ-RI
    Molecular point group: c1

    Geometry (in Angstrom), charge = 0, multiplicity = 1:

       Center              X                  Y                   Z               Mass
    ------------   -----------------  -----------------  -----------------  -----------------
         O           -2.385643120989    -0.385504687110     0.067508818434    15.994914619570
         N            2.547586379011    -0.215659587110    -0.018446281566    14.003074004430
         C            0.015854379011    -0.336323587110    -0.018004281566    12.000000000000
         C            1.281306379011     0.522843412890    -0.018453281566    12.000000000000
         C           -1.257384620989     0.487127412890    -0.018246281566    12.000000000000
         H            0.008008379011    -0.988559587110    -0.899319281566     1.007825032230
         H            0.008228379011    -0.987947587110     0.863758718434     1.007825032230
         H            1.283886379011     1.179687412890     0.859251718434     1.007825032230
         H            1.283584379011     1.179170412890    -0.896543281566     1.007825032230
         H           -1.283694620989     1.137293412890    -0.905686281566     1.007825032230
         H           -1.284197620989     1.137181412890     0.869251718434     1.007825032230
         H            2.574709379011    -0.830782587110    -0.831066281566     1.007825032230
         H            2.574987379011    -0.830300587110     0.794527718434     1.007825032230
         H           -3.174289620989     0.097944412890    -0.017940281566     1.007825032230

  Basis Set: AUG-CC-PVTZ
    Blend: AUG-CC-PVTZ
  Basis Set: (AUG-CC-PVTZ AUX)
    Blend: AUG-CC-PVTZ-JKFIT
	 Reference Energy          =    -248.2371713731486977 [Eh]
	 Singles Energy            =      -0.0000000000000000 [Eh]
	 Same-Spin Energy          =      -0.2475849763031445 [Eh]
	 Opposite-Spin Energy      =      -0.8439214312095769 [Eh]
	 Correlation Energy        =      -1.0915064075127214 [Eh]
	 Total Energy              =    -249.3286777806614225 [Eh]

	 ================> DF-SCS-MP2 Energies <==================
	-----------------------------------------------------------
	 SCS Same-Spin Scale       =       0.3333333333333333 [-]
	 SCS Opposite-Spin Scale   =       1.2000000000000000 [-]
	 SCS Same-Spin Energy      =      -0.0825283254343815 [Eh]
	 SCS Opposite-Spin Energy  =      -1.0127057174514922 [Eh]
	 SCS Correlation Energy    =      -1.0952340428858738 [Eh]
	 SCS Total Energy          =    -249.3324054160345611 [Eh]
	-----------------------------------------------------------

  Dipole Moment: [D]
     X:    -1.0872      Y:     0.6585      Z:    -0.2101     Total:     1.2883

*** Psi4 exiting successfully. Buy a developer a beer!
