                               Psi4 1.3.2 release

  ==> Input File <==

--------------------------------------------------------------------------
#psi4
#
memory 32 gb

molecule  {
0 1
  O       -2.3851110    -0.4314350    -0.0002820
  N        2.5187010    -0.2207910    -0.0001120
  C       -0.0130310    -0.3414550     0.0003300
  C        1.2595388     0.5294737     0.0214579
  C       -1.2862700     0.4819960     0.0000880
  H       -0.0208770    -0.9936910    -0.8809850
  H       -0.0206570    -0.9930790     0.8820930
  H        1.2550010     1.1745560     0.8775860
  H        1.2546990     1.1740390    -0.8782090
  H       -1.3125800     1.1321620    -0.8873520
  H       -1.3130830     1.1320500     0.8875860
  H        2.5458240    -0.8359140    -0.8127320
  H        2.5461020    -0.8354320     0.8128620
  H       -3.2031750     0.0928130     0.0003940
units angstrom
no_reorient  #important for SAPT in psi4, default
symmetry c1  #important for SAPT in psi4, default
}

set PROPERTIES_ORIGIN ["COM"]
properties('MP2/aug-cc-pvtz', properties = ['dipole'])
--------------------------------------------------------------------------

    Molecular point group: c1
  Charge       = 0
  Multiplicity = 1
  Basis Set: AUG-CC-PVTZ
    Blend: AUG-CC-PVTZ
  Basis Set: (AUG-CC-PVTZ AUX)
    Blend: AUG-CC-PVTZ-JKFIT

    Orbital Energies [Eh]
    ---------------------

    Doubly Occupied:

       1A    -20.561235     2A    -15.541455     3A    -11.278410
       4A    -11.249792     5A    -11.219218     6A     -1.357154
       7A     -1.177848     8A     -1.030967     9A     -0.887753
      10A     -0.809692    11A     -0.692434    12A     -0.681636
      13A     -0.639167    14A     -0.597234    15A     -0.557327
      16A     -0.550742    17A     -0.535599    18A     -0.488089
      19A     -0.482583    20A     -0.446921    21A     -0.390018

  @DF-RHF Final Energy:  -248.23617451671072

   => Energetics <=

    Nuclear Repulsion Energy =            185.4091865756564346
    One-Electron Energy =                -704.9401743479174911
    Two-Electron Energy =                 271.2948132555503093
    Total Energy =                       -248.2361745167107188
  Basis Set: (AUG-CC-PVTZ AUX)
    Blend: AUG-CC-PVTZ-RI
    Molecular point group: c1

    Geometry (in Angstrom), charge = 0, multiplicity = 1:

       Center              X                  Y                   Z               Mass
    ------------   -----------------  -----------------  -----------------  -----------------
         O           -2.363631452175    -0.419490674789    -0.003714663658    15.994914619570
         N            2.540180547825    -0.208846674789    -0.003544663658    14.003074004430
         C            0.008448547825    -0.329510674789    -0.003102663658    12.000000000000
         C            1.281018347825     0.541418025211     0.018025236342    12.000000000000
         C           -1.264790452175     0.493940325211    -0.003344663658    12.000000000000
         H            0.000602547825    -0.981746674789    -0.884417663658     1.007825032230
         H            0.000822547825    -0.981134674789     0.878660336342     1.007825032230
         H            1.276480547825     1.186500325211     0.874153336342     1.007825032230
         H            1.276178547825     1.185983325211    -0.881641663658     1.007825032230
         H           -1.291100452175     1.144106325211    -0.890784663658     1.007825032230
         H           -1.291603452175     1.143994325211     0.884153336342     1.007825032230
         H            2.567303547825    -0.823969674789    -0.816164663658     1.007825032230
         H            2.567581547825    -0.823487674789     0.809429336342     1.007825032230
         H           -3.181695452175     0.104757325211    -0.003038663658     1.007825032230

  Basis Set: AUG-CC-PVTZ
    Blend: AUG-CC-PVTZ
  Basis Set: (AUG-CC-PVTZ AUX)
    Blend: AUG-CC-PVTZ-JKFIT
	 Reference Energy          =    -248.2361745167107188 [Eh]
	 Singles Energy            =      -0.0000000000000000 [Eh]
	 Same-Spin Energy          =      -0.2481074246762268 [Eh]
	 Opposite-Spin Energy      =      -0.8453724662566998 [Eh]
	 Correlation Energy        =      -1.0934798909329266 [Eh]
	 Total Energy              =    -249.3296544076436589 [Eh]

	 ================> DF-SCS-MP2 Energies <==================
	-----------------------------------------------------------
	 SCS Same-Spin Scale       =       0.3333333333333333 [-]
	 SCS Opposite-Spin Scale   =       1.2000000000000000 [-]
	 SCS Same-Spin Energy      =      -0.0827024748920756 [Eh]
	 SCS Opposite-Spin Energy  =      -1.0144469595080396 [Eh]
	 SCS Correlation Energy    =      -1.0971494344001151 [Eh]
	 SCS Total Energy          =    -249.3333239511108275 [Eh]
	-----------------------------------------------------------

  Dipole Moment: [D]
     X:    -1.1584      Y:     0.7263      Z:     0.0203     Total:     1.3674

*** Psi4 exiting successfully. Buy a developer a beer!
