                               Psi4 1.4a3.dev225

  ==> Input File <==

--------------------------------------------------------------------------
#psi4
#
memory 32 gb

molecule  {
0 1
  O        2.3850150    -0.4314620    -0.0000020
  N       -2.5187610    -0.2207970     0.0000020
  C        0.0130360    -0.3413840    -0.0000010
  C       -1.2696748     0.5076347    -0.0000069
  C        1.2864090     0.4819960     0.0000060
  H        0.0207440    -0.9933730     0.8815180
  H        0.0207540    -0.9933720    -0.8815200
  H       -1.2549080     1.1742870    -0.8779080
  H       -1.2549050     1.1743050     0.8778810
  H        1.3129410     1.1321370     0.8874920
  H        1.3129410     1.1321530    -0.8874690
  H       -2.5459240    -0.8356760     0.8128080
  H       -2.5459230    -0.8357000    -0.8127860
  H        3.2032020     0.0925730    -0.0000070
units angstrom
no_reorient  #important for SAPT in psi4, default
symmetry c1  #important for SAPT in psi4, default
}

set PROPERTIES_ORIGIN ["COM"]
properties('MP2/aug-cc-pvtz', properties = ['dipole'])
--------------------------------------------------------------------------

    Molecular point group: c1
  Charge       = 0
  Multiplicity = 1
  Basis Set: AUG-CC-PVTZ
    Blend: AUG-CC-PVTZ
  Basis Set: (AUG-CC-PVTZ AUX)
    Blend: AUG-CC-PVTZ-JKFIT

    Orbital Energies [Eh]
    ---------------------

    Doubly Occupied:

       1A    -20.561375     2A    -15.542366     3A    -11.278671
       4A    -11.250493     5A    -11.218724     6A     -1.357307
       7A     -1.184354     8A     -1.031044     9A     -0.886462
      10A     -0.808372    11A     -0.692662    12A     -0.682289
      13A     -0.640035    14A     -0.599758    15A     -0.561124
      16A     -0.548997    17A     -0.536464    18A     -0.484581
      19A     -0.480003    20A     -0.446863    21A     -0.391391

  @DF-RHF Final Energy:  -248.23636423347222

   => Energetics <=

    Nuclear Repulsion Energy =            185.5759626902998889
    One-Electron Energy =                -705.2579859850015964
    Two-Electron Energy =                 271.4456590612294917
    Total Energy =                       -248.2363642334722158
  Basis Set: (AUG-CC-PVTZ AUX)
    Blend: AUG-CC-PVTZ-RI
    Molecular point group: c1

    Geometry (in Angstrom), charge = 0, multiplicity = 1:

       Center              X                  Y                   Z               Mass
    ------------   -----------------  -----------------  -----------------  -----------------
         O            2.365161999383    -0.416028814459    -0.000001764038    15.994914619570
         N           -2.538614000617    -0.205363814459     0.000002235962    14.003074004430
         C           -0.006817000617    -0.325950814459    -0.000000764038    12.000000000000
         C           -1.289527800617     0.523067885541    -0.000006664038    12.000000000000
         C            1.266555999383     0.497429185541     0.000006235962    12.000000000000
         H            0.000890999383    -0.977939814459     0.881518235962     1.007825032230
         H            0.000900999383    -0.977938814459    -0.881519764038     1.007825032230
         H           -1.274761000617     1.189720185541    -0.877907764038     1.007825032230
         H           -1.274758000617     1.189738185541     0.877881235962     1.007825032230
         H            1.293087999383     1.147570185541     0.887492235962     1.007825032230
         H            1.293087999383     1.147586185541    -0.887468764038     1.007825032230
         H           -2.565777000617    -0.820242814459     0.812808235962     1.007825032230
         H           -2.565776000617    -0.820266814459    -0.812785764038     1.007825032230
         H            3.183348999383     0.108006185541    -0.000006764038     1.007825032230

  Basis Set: AUG-CC-PVTZ
    Blend: AUG-CC-PVTZ
  Basis Set: (AUG-CC-PVTZ AUX)
    Blend: AUG-CC-PVTZ-JKFIT
	 Reference Energy          =    -248.2363642334722158 [Eh]
	 Singles Energy            =      -0.0000000000000000 [Eh]
	 Same-Spin Energy          =      -0.2482327058264635 [Eh]
	 Opposite-Spin Energy      =      -0.8453640135941426 [Eh]
	 Correlation Energy        =      -1.0935967194206062 [Eh]
	 Total Energy              =    -249.3299609528928329 [Eh]

	 ================> DF-SCS-MP2 Energies <==================
	-----------------------------------------------------------
	 SCS Same-Spin Scale       =       0.3333333333333333 [-]
	 SCS Opposite-Spin Scale   =       1.2000000000000000 [-]
	 SCS Same-Spin Energy      =      -0.0827442352754878 [Eh]
	 SCS Opposite-Spin Energy  =      -1.0144368163129711 [Eh]
	 SCS Correlation Energy    =      -1.0971810515884590 [Eh]
	 SCS Total Energy          =    -249.3335452850606657 [Eh]
	-----------------------------------------------------------

  Dipole Moment: [D]
     X:     1.1168      Y:     0.6926      Z:     0.0000     Total:     1.3141

*** Psi4 exiting successfully. Buy a developer a beer!
