                               Psi4 1.4a3.dev225

  ==> Input File <==

--------------------------------------------------------------------------
#psi4
#
memory 32 gb

molecule  {
0 1
  O        2.3850150    -0.4314620    -0.0000020
  N       -2.5187610    -0.2207970     0.0000020
  C        0.0130360    -0.3413840    -0.0000010
  C       -1.2523980     0.5177100    -0.0000070
  C        1.2710305     0.4947828     0.0000061
  H        0.0207440    -0.9933730     0.8815180
  H        0.0207540    -0.9933720    -0.8815200
  H       -1.2549080     1.1742870    -0.8779080
  H       -1.2549050     1.1743050     0.8778810
  H        1.3129410     1.1321370     0.8874920
  H        1.3129410     1.1321530    -0.8874690
  H       -2.5459240    -0.8356760     0.8128080
  H       -2.5459230    -0.8357000    -0.8127860
  H        3.2032020     0.0925730    -0.0000070
units angstrom
no_reorient  #important for SAPT in psi4, default
symmetry c1  #important for SAPT in psi4, default
}

set PROPERTIES_ORIGIN ["COM"]
properties('MP2/aug-cc-pvtz', properties = ['dipole'])
--------------------------------------------------------------------------

    Molecular point group: c1
  Charge       = 0
  Multiplicity = 1
  Basis Set: AUG-CC-PVTZ
    Blend: AUG-CC-PVTZ
  Basis Set: (AUG-CC-PVTZ AUX)
    Blend: AUG-CC-PVTZ-JKFIT

    Orbital Energies [Eh]
    ---------------------

    Doubly Occupied:

       1A    -20.559333     2A    -15.541916     3A    -11.278508
       4A    -11.250329     5A    -11.219393     6A     -1.349624
       7A     -1.178813     8A     -1.034684     9A     -0.888120
      10A     -0.810312    11A     -0.687444    12A     -0.682242
      13A     -0.639678    14A     -0.596727    15A     -0.554776
      16A     -0.550115    17A     -0.535047    18A     -0.488638
      19A     -0.482842    20A     -0.449522    21A     -0.392087

  @DF-RHF Final Energy:  -248.23612645748071

   => Energetics <=

    Nuclear Repulsion Energy =            185.4491309261451590
    One-Electron Energy =                -705.0302201245159495
    Two-Electron Energy =                 271.3449627408900824
    Total Energy =                       -248.2361264574807365
  Basis Set: (AUG-CC-PVTZ AUX)
    Blend: AUG-CC-PVTZ-RI
    Molecular point group: c1

    Geometry (in Angstrom), charge = 0, multiplicity = 1:

       Center              X                  Y                   Z               Mass
    ------------   -----------------  -----------------  -----------------  -----------------
         O            2.364858548186    -0.419683416783    -0.000001764038    15.994914619570
         N           -2.538917451814    -0.209018416783     0.000002235962    14.003074004430
         C           -0.007120451814    -0.329605416783    -0.000000764038    12.000000000000
         C           -1.272554451814     0.529488583217    -0.000006764038    12.000000000000
         C            1.250874048186     0.506561383217     0.000006335962    12.000000000000
         H            0.000587548186    -0.981594416783     0.881518235962     1.007825032230
         H            0.000597548186    -0.981593416783    -0.881519764038     1.007825032230
         H           -1.275064451814     1.186065583217    -0.877907764038     1.007825032230
         H           -1.275061451814     1.186083583217     0.877881235962     1.007825032230
         H            1.292784548186     1.143915583217     0.887492235962     1.007825032230
         H            1.292784548186     1.143931583217    -0.887468764038     1.007825032230
         H           -2.566080451814    -0.823897416783     0.812808235962     1.007825032230
         H           -2.566079451814    -0.823921416783    -0.812785764038     1.007825032230
         H            3.183045548186     0.104351583217    -0.000006764038     1.007825032230

  Basis Set: AUG-CC-PVTZ
    Blend: AUG-CC-PVTZ
  Basis Set: (AUG-CC-PVTZ AUX)
    Blend: AUG-CC-PVTZ-JKFIT
	 Reference Energy          =    -248.2361264574807080 [Eh]
	 Singles Energy            =      -0.0000000000000000 [Eh]
	 Same-Spin Energy          =      -0.2482509969802273 [Eh]
	 Opposite-Spin Energy      =      -0.8457959751275477 [Eh]
	 Correlation Energy        =      -1.0940469721077750 [Eh]
	 Total Energy              =    -249.3301734295884842 [Eh]

	 ================> DF-SCS-MP2 Energies <==================
	-----------------------------------------------------------
	 SCS Same-Spin Scale       =       0.3333333333333333 [-]
	 SCS Opposite-Spin Scale   =       1.2000000000000000 [-]
	 SCS Same-Spin Energy      =      -0.0827503323267424 [Eh]
	 SCS Opposite-Spin Energy  =      -1.0149551701530573 [Eh]
	 SCS Correlation Energy    =      -1.0977055024797997 [Eh]
	 SCS Total Energy          =    -249.3338319599605200 [Eh]
	-----------------------------------------------------------

  Dipole Moment: [D]
     X:     1.1049      Y:     0.7520      Z:     0.0000     Total:     1.3365

*** Psi4 exiting successfully. Buy a developer a beer!
