                               Psi4 1.3.2 release

  ==> Input File <==

--------------------------------------------------------------------------
#psi4
#
memory 32 gb

molecule  {
0 1
  O       -2.3851110    -0.4314350    -0.0002820
  N        2.5187010    -0.2207910    -0.0001120
  C       -0.0130310    -0.3414550     0.0003300
  C        1.3008338     0.5847848     0.1291122
  C       -1.2862700     0.4819960     0.0000880
  H       -0.0208770    -0.9936910    -0.8809850
  H       -0.0206570    -0.9930790     0.8820930
  H        1.2550010     1.1745560     0.8775860
  H        1.2546990     1.1740390    -0.8782090
  H       -1.3125800     1.1321620    -0.8873520
  H       -1.3130830     1.1320500     0.8875860
  H        2.5458240    -0.8359140    -0.8127320
  H        2.5461020    -0.8354320     0.8128620
  H       -3.2031750     0.0928130     0.0003940
units angstrom
no_reorient  #important for SAPT in psi4, default
symmetry c1  #important for SAPT in psi4, default
}

set PROPERTIES_ORIGIN ["COM"]
properties('MP2/aug-cc-pvtz', properties = ['dipole'])
--------------------------------------------------------------------------

    Molecular point group: c1
  Charge       = 0
  Multiplicity = 1
  Basis Set: AUG-CC-PVTZ
    Blend: AUG-CC-PVTZ
  Basis Set: (AUG-CC-PVTZ AUX)
    Blend: AUG-CC-PVTZ-JKFIT

    Orbital Energies [Eh]
    ---------------------

    Doubly Occupied:

       1A    -20.560002     2A    -15.541488     3A    -11.276699
       4A    -11.251461     5A    -11.221150     6A     -1.355918
       7A     -1.175903     8A     -1.023477     9A     -0.893881
      10A     -0.814080    11A     -0.692736    12A     -0.679382
      13A     -0.639150    14A     -0.605991    15A     -0.567071
      16A     -0.541374    17A     -0.533553    18A     -0.496760
      19A     -0.471626    20A     -0.445600    21A     -0.377821

  @DF-RHF Final Energy:  -248.20740004294106

   => Energetics <=

    Nuclear Repulsion Energy =            184.7160187643660549
    One-Electron Energy =                -703.5165941703954786
    Two-Electron Energy =                 270.5931753630883918
    Total Energy =                       -248.2074000429410603
  Basis Set: (AUG-CC-PVTZ AUX)
    Blend: AUG-CC-PVTZ-RI
    Molecular point group: c1

    Geometry (in Angstrom), charge = 0, multiplicity = 1:

       Center              X                  Y                   Z               Mass
    ------------   -----------------  -----------------  -----------------  -----------------
         O           -2.370232630676    -0.428332385509    -0.020923653866    15.994914619570
         N            2.533579369324    -0.217688385509    -0.020753653866    14.003074004430
         C            0.001847369324    -0.338352385509    -0.020311653866    12.000000000000
         C            1.315712169324     0.587887414491     0.108470546134    12.000000000000
         C           -1.271391630676     0.485098614491    -0.020553653866    12.000000000000
         H           -0.005998630676    -0.990588385509    -0.901626653866     1.007825032230
         H           -0.005778630676    -0.989976385509     0.861451346134     1.007825032230
         H            1.269879369324     1.177658614491     0.856944346134     1.007825032230
         H            1.269577369324     1.177141614491    -0.898850653866     1.007825032230
         H           -1.297701630676     1.135264614491    -0.907993653866     1.007825032230
         H           -1.298204630676     1.135152614491     0.866944346134     1.007825032230
         H            2.560702369324    -0.832811385509    -0.833373653866     1.007825032230
         H            2.560980369324    -0.832329385509     0.792220346134     1.007825032230
         H           -3.188296630676     0.095915614491    -0.020247653866     1.007825032230

  Basis Set: AUG-CC-PVTZ
    Blend: AUG-CC-PVTZ
  Basis Set: (AUG-CC-PVTZ AUX)
    Blend: AUG-CC-PVTZ-JKFIT
	 Reference Energy          =    -248.2074000429410603 [Eh]
	 Singles Energy            =      -0.0000000000000000 [Eh]
	 Same-Spin Energy          =      -0.2481618954479864 [Eh]
	 Opposite-Spin Energy      =      -0.8462862415632035 [Eh]
	 Correlation Energy        =      -1.0944481370111900 [Eh]
	 Total Energy              =    -249.3018481799522590 [Eh]

	 ================> DF-SCS-MP2 Energies <==================
	-----------------------------------------------------------
	 SCS Same-Spin Scale       =       0.3333333333333333 [-]
	 SCS Opposite-Spin Scale   =       1.2000000000000000 [-]
	 SCS Same-Spin Energy      =      -0.0827206318159955 [Eh]
	 SCS Opposite-Spin Energy  =      -1.0155434898758442 [Eh]
	 SCS Correlation Energy    =      -1.0982641216918396 [Eh]
	 SCS Total Energy          =    -249.3056641646329012 [Eh]
	-----------------------------------------------------------

  Dipole Moment: [D]
     X:    -1.0820      Y:     0.7589      Z:     0.0961     Total:     1.3251

*** Psi4 exiting successfully. Buy a developer a beer!
