                               Psi4 1.3.2 release

  ==> Input File <==

--------------------------------------------------------------------------
#psi4
#
memory 32 gb

molecule  {
0 1
  O       -2.3851110    -0.4314350    -0.0002820
  N        2.5671318    -0.1306608    -0.0001455
  C       -0.0130310    -0.3414550     0.0003300
  C        1.2524210     0.5177120    -0.0001190
  C       -1.2862700     0.4819960     0.0000880
  H       -0.0208770    -0.9936910    -0.8809850
  H       -0.0206570    -0.9930790     0.8820930
  H        1.2550010     1.1745560     0.8775860
  H        1.2546990     1.1740390    -0.8782090
  H       -1.3125800     1.1321620    -0.8873520
  H       -1.3130830     1.1320500     0.8875860
  H        2.5458240    -0.8359140    -0.8127320
  H        2.5461020    -0.8354320     0.8128620
  H       -3.2031750     0.0928130     0.0003940
units angstrom
no_reorient  #important for SAPT in psi4, default
symmetry c1  #important for SAPT in psi4, default
}

set PROPERTIES_ORIGIN ["COM"]
properties('MP2/aug-cc-pvtz', properties = ['dipole'])
--------------------------------------------------------------------------

    Molecular point group: c1
  Charge       = 0
  Multiplicity = 1
  Basis Set: AUG-CC-PVTZ
    Blend: AUG-CC-PVTZ
  Basis Set: (AUG-CC-PVTZ AUX)
    Blend: AUG-CC-PVTZ-JKFIT

    Orbital Energies [Eh]
    ---------------------

    Doubly Occupied:

       1A    -20.563029     2A    -15.559349     3A    -11.281045
       4A    -11.249874     5A    -11.222499     6A     -1.358985
       7A     -1.172924     8A     -1.032970     9A     -0.884169
      10A     -0.809657    11A     -0.694400    12A     -0.674432
      13A     -0.629262    14A     -0.593746    15A     -0.563935
      16A     -0.541216    17A     -0.532114    18A     -0.484810
      19A     -0.477694    20A     -0.448695    21A     -0.405830

  @DF-RHF Final Energy:  -248.22572313430408

   => Energetics <=

    Nuclear Repulsion Energy =            184.8346780285017701
    One-Electron Energy =                -703.7595295441777807
    Two-Electron Energy =                 270.6991283813719065
    Total Energy =                       -248.2257231343040758
  Basis Set: (AUG-CC-PVTZ AUX)
    Blend: AUG-CC-PVTZ-RI
    Molecular point group: c1

    Geometry (in Angstrom), charge = 0, multiplicity = 1:

       Center              X                  Y                   Z               Mass
    ------------   -----------------  -----------------  -----------------  -----------------
         O           -2.371527802259    -0.434423179716    -0.000259256924    15.994914619570
         N            2.580714997741    -0.133648979716    -0.000122756924    14.003074004430
         C            0.000552197741    -0.344443179716     0.000352743076    12.000000000000
         C            1.266004197741     0.514723820284    -0.000096256924    12.000000000000
         C           -1.272686802259     0.479007820284     0.000110743076    12.000000000000
         H           -0.007293802259    -0.996679179716    -0.880962256924     1.007825032230
         H           -0.007073802259    -0.996067179716     0.882115743076     1.007825032230
         H            1.268584197741     1.171567820284     0.877608743076     1.007825032230
         H            1.268282197741     1.171050820284    -0.878186256924     1.007825032230
         H           -1.298996802259     1.129173820284    -0.887329256924     1.007825032230
         H           -1.299499802259     1.129061820284     0.887608743076     1.007825032230
         H            2.559407197741    -0.838902179716    -0.812709256924     1.007825032230
         H            2.559685197741    -0.838420179716     0.812884743076     1.007825032230
         H           -3.189591802259     0.089824820284     0.000416743076     1.007825032230

  Basis Set: AUG-CC-PVTZ
    Blend: AUG-CC-PVTZ
  Basis Set: (AUG-CC-PVTZ AUX)
    Blend: AUG-CC-PVTZ-JKFIT
	 Reference Energy          =    -248.2257231343040758 [Eh]
	 Singles Energy            =      -0.0000000000000000 [Eh]
	 Same-Spin Energy          =      -0.2490187652473435 [Eh]
	 Opposite-Spin Energy      =      -0.8483022038518089 [Eh]
	 Correlation Energy        =      -1.0973209690991523 [Eh]
	 Total Energy              =    -249.3230441034032197 [Eh]

	 ================> DF-SCS-MP2 Energies <==================
	-----------------------------------------------------------
	 SCS Same-Spin Scale       =       0.3333333333333333 [-]
	 SCS Opposite-Spin Scale   =       1.2000000000000000 [-]
	 SCS Same-Spin Energy      =      -0.0830062550824478 [Eh]
	 SCS Opposite-Spin Energy  =      -1.0179626446221706 [Eh]
	 SCS Correlation Energy    =      -1.1009688997046183 [Eh]
	 SCS Total Energy          =    -249.3266920340086870 [Eh]
	-----------------------------------------------------------

  Dipole Moment: [D]
     X:    -1.3344      Y:     0.5919      Z:     0.0019     Total:     1.4597

*** Psi4 exiting successfully. Buy a developer a beer!
