                               Psi4 1.4a3.dev225

  ==> Input File <==

--------------------------------------------------------------------------
#psi4
#
memory 32 gb

molecule  {
0 1
  O        2.3850150    -0.4314620    -0.0000020
  N       -2.5187610    -0.2207970     0.0000020
  C        0.0130360    -0.3413840    -0.0000010
  C       -1.2523980     0.5177100    -0.0000070
  C        1.2864090     0.4819960     0.0000060
  H        0.0207440    -0.9933730     0.8815180
  H        0.0207540    -0.9933720    -0.8815200
  H       -1.2549080     1.1742870    -0.8779080
  H       -1.2549050     1.1743050     0.8778810
  H        1.3129410     1.1321370     0.8874920
  H        1.3129410     1.1321530    -0.8874690
  H       -2.5459240    -0.8356760     0.8128080
  H       -2.5459230    -0.8357000    -0.8127860
  H        3.1610977     0.0656059    -0.0000067
units angstrom
no_reorient  #important for SAPT in psi4, default
symmetry c1  #important for SAPT in psi4, default
}

set PROPERTIES_ORIGIN ["COM"]
properties('MP2/aug-cc-pvtz', properties = ['dipole'])
--------------------------------------------------------------------------

    Molecular point group: c1
  Charge       = 0
  Multiplicity = 1
  Basis Set: AUG-CC-PVTZ
    Blend: AUG-CC-PVTZ
  Basis Set: (AUG-CC-PVTZ AUX)
    Blend: AUG-CC-PVTZ-JKFIT

    Orbital Energies [Eh]
    ---------------------

    Doubly Occupied:

       1A    -20.556672     2A    -15.541896     3A    -11.279386
       4A    -11.250195     5A    -11.219297     6A     -1.369433
       7A     -1.178668     8A     -1.034709     9A     -0.890420
      10A     -0.809625    11A     -0.703462    12A     -0.681803
      13A     -0.639878    14A     -0.598165    15A     -0.559244
      16A     -0.551335    17A     -0.537757    18A     -0.486570
      19A     -0.483095    20A     -0.448434    21A     -0.392351

  @DF-RHF Final Energy:  -248.23733855604883

   => Energetics <=

    Nuclear Repulsion Energy =            185.8430339459450522
    One-Electron Energy =                -705.7359575618792178
    Two-Electron Energy =                 271.6555850598853112
    Total Energy =                       -248.2373385560488259
  Basis Set: (AUG-CC-PVTZ AUX)
    Blend: AUG-CC-PVTZ-RI
    Molecular point group: c1

    Geometry (in Angstrom), charge = 0, multiplicity = 1:

       Center              X                  Y                   Z               Mass
    ------------   -----------------  -----------------  -----------------  -----------------
         O            2.362965498566    -0.417277348651    -0.000001752081    15.994914619570
         N           -2.540810501434    -0.206612348651     0.000002247919    14.003074004430
         C           -0.009013501434    -0.327199348651    -0.000000752081    12.000000000000
         C           -1.274447501434     0.531894651349    -0.000006752081    12.000000000000
         C            1.264359498566     0.496180651349     0.000006247919    12.000000000000
         H           -0.001305501434    -0.979188348651     0.881518247919     1.007825032230
         H           -0.001295501434    -0.979187348651    -0.881519752081     1.007825032230
         H           -1.276957501434     1.188471651349    -0.877907752081     1.007825032230
         H           -1.276954501434     1.188489651349     0.877881247919     1.007825032230
         H            1.290891498566     1.146321651349     0.887492247919     1.007825032230
         H            1.290891498566     1.146337651349    -0.887468752081     1.007825032230
         H           -2.567973501434    -0.821491348651     0.812808247919     1.007825032230
         H           -2.567972501434    -0.821515348651    -0.812785752081     1.007825032230
         H            3.139048198566     0.079790551349    -0.000006452081     1.007825032230

  Basis Set: AUG-CC-PVTZ
    Blend: AUG-CC-PVTZ
  Basis Set: (AUG-CC-PVTZ AUX)
    Blend: AUG-CC-PVTZ-JKFIT
	 Reference Energy          =    -248.2373385560488259 [Eh]
	 Singles Energy            =      -0.0000000000000000 [Eh]
	 Same-Spin Energy          =      -0.2476145434606945 [Eh]
	 Opposite-Spin Energy      =      -0.8439344272882174 [Eh]
	 Correlation Energy        =      -1.0915489707489119 [Eh]
	 Total Energy              =    -249.3288875267977289 [Eh]

	 ================> DF-SCS-MP2 Energies <==================
	-----------------------------------------------------------
	 SCS Same-Spin Scale       =       0.3333333333333333 [-]
	 SCS Opposite-Spin Scale   =       1.2000000000000000 [-]
	 SCS Same-Spin Energy      =      -0.0825381811535648 [Eh]
	 SCS Opposite-Spin Energy  =      -1.0127213127458610 [Eh]
	 SCS Correlation Energy    =      -1.0952594938994258 [Eh]
	 SCS Total Energy          =    -249.3325980499482455 [Eh]
	-----------------------------------------------------------

  Dipole Moment: [D]
     X:     1.1329      Y:     0.6983      Z:     0.0000     Total:     1.3308

*** Psi4 exiting successfully. Buy a developer a beer!
