                               Psi4 1.3.2 release

  ==> Input File <==

--------------------------------------------------------------------------
#psi4
#
memory 32 gb

molecule  {
0 1
  O       -2.3851110    -0.4314350    -0.0002820
  N        2.4697885    -0.2887205    -0.1287060
  C       -0.0130310    -0.3414550     0.0003300
  C        1.2524210     0.5177120    -0.0001190
  C       -1.2862700     0.4819960     0.0000880
  H       -0.0208770    -0.9936910    -0.8809850
  H       -0.0206570    -0.9930790     0.8820930
  H        1.2550010     1.1745560     0.8775860
  H        1.2546990     1.1740390    -0.8782090
  H       -1.3125800     1.1321620    -0.8873520
  H       -1.3130830     1.1320500     0.8875860
  H        2.5458240    -0.8359140    -0.8127320
  H        2.5461020    -0.8354320     0.8128620
  H       -3.2031750     0.0928130     0.0003940
units angstrom
no_reorient  #important for SAPT in psi4, default
symmetry c1  #important for SAPT in psi4, default
}

set PROPERTIES_ORIGIN ["COM"]
properties('MP2/aug-cc-pvtz', properties = ['dipole'])
--------------------------------------------------------------------------

    Molecular point group: c1
  Charge       = 0
  Multiplicity = 1
  Basis Set: AUG-CC-PVTZ
    Blend: AUG-CC-PVTZ
  Basis Set: (AUG-CC-PVTZ AUX)
    Blend: AUG-CC-PVTZ-JKFIT

    Orbital Energies [Eh]
    ---------------------

    Doubly Occupied:

       1A    -20.560310     2A    -15.529572     3A    -11.276983
       4A    -11.252183     5A    -11.216612     6A     -1.356206
       7A     -1.187162     8A     -1.034037     9A     -0.894654
      10A     -0.810044    11A     -0.696144    12A     -0.685299
      13A     -0.647266    14A     -0.603789    15A     -0.566742
      16A     -0.541394    17A     -0.534940    18A     -0.488258
      19A     -0.477823    20A     -0.446022    21A     -0.382349

  @DF-RHF Final Energy:  -248.20993511347450

   => Energetics <=

    Nuclear Repulsion Energy =            186.1986504846994421
    One-Electron Energy =                -706.4415884375771384
    Two-Electron Energy =                 272.0330028394031956
    Total Energy =                       -248.2099351134745007
  Basis Set: (AUG-CC-PVTZ AUX)
    Blend: AUG-CC-PVTZ-RI
    Molecular point group: c1

    Geometry (in Angstrom), charge = 0, multiplicity = 1:

       Center              X                  Y                   Z               Mass
    ------------   -----------------  -----------------  -----------------  -----------------
         O           -2.353369626767    -0.404939118967     0.023722096907    15.994914619570
         N            2.501529873233    -0.262224618967    -0.104701903093    14.003074004430
         C            0.018710373233    -0.314959118967     0.024334096907    12.000000000000
         C            1.284162373233     0.544207881033     0.023885096907    12.000000000000
         C           -1.254528626767     0.508491881033     0.024092096907    12.000000000000
         H            0.010864373233    -0.967195118967    -0.856980903093     1.007825032230
         H            0.011084373233    -0.966583118967     0.906097096907     1.007825032230
         H            1.286742373233     1.201051881033     0.901590096907     1.007825032230
         H            1.286440373233     1.200534881033    -0.854204903093     1.007825032230
         H           -1.280838626767     1.158657881033    -0.863347903093     1.007825032230
         H           -1.281341626767     1.158545881033     0.911590096907     1.007825032230
         H            2.577565373233    -0.809418118967    -0.788727903093     1.007825032230
         H            2.577843373233    -0.808936118967     0.836866096907     1.007825032230
         H           -3.171433626767     0.119308881033     0.024398096907     1.007825032230

  Basis Set: AUG-CC-PVTZ
    Blend: AUG-CC-PVTZ
  Basis Set: (AUG-CC-PVTZ AUX)
    Blend: AUG-CC-PVTZ-JKFIT
	 Reference Energy          =    -248.2099351134745007 [Eh]
	 Singles Energy            =      -0.0000000000000000 [Eh]
	 Same-Spin Energy          =      -0.2480134865407703 [Eh]
	 Opposite-Spin Energy      =      -0.8448276142053255 [Eh]
	 Correlation Energy        =      -1.0928411007460959 [Eh]
	 Total Energy              =    -249.3027762142205859 [Eh]

	 ================> DF-SCS-MP2 Energies <==================
	-----------------------------------------------------------
	 SCS Same-Spin Scale       =       0.3333333333333333 [-]
	 SCS Opposite-Spin Scale   =       1.2000000000000000 [-]
	 SCS Same-Spin Energy      =      -0.0826711621802567 [Eh]
	 SCS Opposite-Spin Energy  =      -1.0137931370463906 [Eh]
	 SCS Correlation Energy    =      -1.0964642992266473 [Eh]
	 SCS Total Energy          =    -249.3063994127011540 [Eh]
	-----------------------------------------------------------

  Dipole Moment: [D]
     X:    -1.0269      Y:     0.8596      Z:     0.1741     Total:     1.3505

*** Psi4 exiting successfully. Buy a developer a beer!
