                               Psi4 1.3.2 release

  ==> Input File <==

--------------------------------------------------------------------------
#psi4
#
memory 32 gb

molecule  {
0 1
  O       -2.3851110    -0.4314350    -0.0002820
  N        2.5187010    -0.2207910    -0.0001120
  C       -0.0130310    -0.3414550     0.0003300
  C        1.3388037     0.4673331    -0.0001185
  C       -1.2862700     0.4819960     0.0000880
  H       -0.0208770    -0.9936910    -0.8809850
  H       -0.0206570    -0.9930790     0.8820930
  H        1.2550010     1.1745560     0.8775860
  H        1.2546990     1.1740390    -0.8782090
  H       -1.3125800     1.1321620    -0.8873520
  H       -1.3130830     1.1320500     0.8875860
  H        2.5458240    -0.8359140    -0.8127320
  H        2.5461020    -0.8354320     0.8128620
  H       -3.2031750     0.0928130     0.0003940
units angstrom
no_reorient  #important for SAPT in psi4, default
symmetry c1  #important for SAPT in psi4, default
}

set PROPERTIES_ORIGIN ["COM"]
properties('MP2/aug-cc-pvtz', properties = ['dipole'])
--------------------------------------------------------------------------

    Molecular point group: c1
  Charge       = 0
  Multiplicity = 1
  Basis Set: AUG-CC-PVTZ
    Blend: AUG-CC-PVTZ
  Basis Set: (AUG-CC-PVTZ AUX)
    Blend: AUG-CC-PVTZ-JKFIT

    Orbital Energies [Eh]
    ---------------------

    Doubly Occupied:

       1A    -20.560816     2A    -15.544627     3A    -11.278184
       4A    -11.253477     5A    -11.217340     6A     -1.356514
       7A     -1.211822     8A     -1.024742     9A     -0.881287
      10A     -0.805930    11A     -0.692687    12A     -0.688155
      13A     -0.642317    14A     -0.613715    15A     -0.570877
      16A     -0.541981    17A     -0.538616    18A     -0.482541
      19A     -0.467194    20A     -0.445597    21A     -0.385028

  @DF-RHF Final Energy:  -248.22603432870474

   => Energetics <=

    Nuclear Repulsion Energy =            185.7712619048268152
    One-Electron Energy =                -705.5876973746579779
    Two-Electron Energy =                 271.5904011411264491
    Total Energy =                       -248.2260343287047135
  Basis Set: (AUG-CC-PVTZ AUX)
    Blend: AUG-CC-PVTZ-RI
    Molecular point group: c1

    Geometry (in Angstrom), charge = 0, multiplicity = 1:

       Center              X                  Y                   Z               Mass
    ------------   -----------------  -----------------  -----------------  -----------------
         O           -2.376302278031    -0.409557239925    -0.000265585857    15.994914619570
         N            2.527509721969    -0.198913239925    -0.000095585857    14.003074004430
         C           -0.004222278031    -0.319577239925     0.000346414143    12.000000000000
         C            1.347612421969     0.489210860075    -0.000102085857    12.000000000000
         C           -1.277461278031     0.503873760075     0.000104414143    12.000000000000
         H           -0.012068278031    -0.971813239925    -0.880968585857     1.007825032230
         H           -0.011848278031    -0.971201239925     0.882109414143     1.007825032230
         H            1.263809721969     1.196433760075     0.877602414143     1.007825032230
         H            1.263507721969     1.195916760075    -0.878192585857     1.007825032230
         H           -1.303771278031     1.154039760075    -0.887335585857     1.007825032230
         H           -1.304274278031     1.153927760075     0.887602414143     1.007825032230
         H            2.554632721969    -0.814036239925    -0.812715585857     1.007825032230
         H            2.554910721969    -0.813554239925     0.812878414143     1.007825032230
         H           -3.194366278031     0.114690760075     0.000410414143     1.007825032230

  Basis Set: AUG-CC-PVTZ
    Blend: AUG-CC-PVTZ
  Basis Set: (AUG-CC-PVTZ AUX)
    Blend: AUG-CC-PVTZ-JKFIT
	 Reference Energy          =    -248.2260343287047419 [Eh]
	 Singles Energy            =      -0.0000000000000000 [Eh]
	 Same-Spin Energy          =      -0.2487534870150959 [Eh]
	 Opposite-Spin Energy      =      -0.8455626507557893 [Eh]
	 Correlation Energy        =      -1.0943161377708852 [Eh]
	 Total Energy              =    -249.3203504664756167 [Eh]

	 ================> DF-SCS-MP2 Energies <==================
	-----------------------------------------------------------
	 SCS Same-Spin Scale       =       0.3333333333333333 [-]
	 SCS Opposite-Spin Scale   =       1.2000000000000000 [-]
	 SCS Same-Spin Energy      =      -0.0829178290050319 [Eh]
	 SCS Opposite-Spin Energy  =      -1.0146751809069472 [Eh]
	 SCS Correlation Energy    =      -1.0975930099119791 [Eh]
	 SCS Total Energy          =    -249.3236273386167170 [Eh]
	-----------------------------------------------------------

  Dipole Moment: [D]
     X:    -0.8746      Y:     0.6033      Z:     0.0018     Total:     1.0626

*** Psi4 exiting successfully. Buy a developer a beer!
