                               Psi4 1.4a2.dev612

  ==> Input File <==

--------------------------------------------------------------------------
#psi4
#
memory 32 gb

molecule  {
0 1
  O       -1.9705880     1.6613530    -0.1848000
  O        1.6688240    -1.2224340     0.6437850
  O       -3.2913740    -0.0479250     0.4948630
  N        0.2140730     0.2683100    -0.2698780
  C       -0.9510770    -0.4970410     0.1176100
  C       -1.1968270    -1.6816620    -0.8184860
  C        2.5789920     0.8068070    -0.3378900
  C        1.4682490    -0.1481810     0.0706060
  C       -2.1908320     0.3658730     0.1844680
  C        3.9506640     0.3320720     0.1153760
  H       -0.7838570    -0.8897150     1.1288390
  H        0.0638013     1.3047892    -0.4200463
  H       -1.3515420    -1.3283180    -1.8408860
  H       -0.3238960    -2.3346980    -0.7915570
  H       -2.0788080    -2.2361410    -0.4923840
  H        2.5479870     0.9167430    -1.4288930
  H        2.3554820     1.7990610     0.0733550
  H        4.1782080    -0.6474400    -0.3069900
  H        4.7194550     1.0404130    -0.2050590
  H        3.9903360     0.2413970     1.2016820
  H       -2.8462050     2.0977190    -0.1239210
units angstrom
no_reorient  #important for SAPT in psi4, default
symmetry c1  #important for SAPT in psi4, default
}

set PROPERTIES_ORIGIN ["COM"]
properties('MP2/aug-cc-pvtz', properties = ['dipole'])
--------------------------------------------------------------------------

    Molecular point group: c1
  Charge       = 0
  Multiplicity = 1
  Basis Set: AUG-CC-PVTZ
    Blend: AUG-CC-PVTZ
  Basis Set: (AUG-CC-PVTZ AUX)
    Blend: AUG-CC-PVTZ-JKFIT

    Orbital Energies [Eh]
    ---------------------

    Doubly Occupied:

       1A    -20.638071     2A    -20.565252     3A    -20.526334
       4A    -15.593914     5A    -11.406562     6A    -11.355544
       7A    -11.296205     8A    -11.247208     9A    -11.226683
      10A    -11.219552    11A     -1.480002    12A     -1.381237
      13A     -1.374820    14A     -1.242248    15A     -1.075000
      16A     -1.034782    17A     -0.928531    18A     -0.885551
      19A     -0.814035    20A     -0.784395    21A     -0.731010
      22A     -0.712572    23A     -0.683900    24A     -0.667981
      25A     -0.641649    26A     -0.633494    27A     -0.611375
      28A     -0.604479    29A     -0.572732    30A     -0.547363
      31A     -0.545190    32A     -0.523685    33A     -0.520164
      34A     -0.519326    35A     -0.498736    36A     -0.488741
      37A     -0.468202    38A     -0.428723    39A     -0.402025

  @DF-RHF Final Energy:  -512.88159541849029

   => Energetics <=

    Nuclear Repulsion Energy =            547.8889966745803122
    One-Electron Energy =               -1787.7866317304547010
    Two-Electron Energy =                 727.0160396373840967
    Total Energy =                       -512.8815954184902921
  Basis Set: (AUG-CC-PVTZ AUX)
    Blend: AUG-CC-PVTZ-RI
    Molecular point group: c1

    Geometry (in Angstrom), charge = 0, multiplicity = 1:

       Center              X                  Y                   Z               Mass
    ------------   -----------------  -----------------  -----------------  -----------------
         O           -1.970509898041     1.660601497134    -0.186363737270    15.994914619570
         O            1.668902101959    -1.223185502866     0.642221262730    15.994914619570
         O           -3.291295898041    -0.048676502866     0.493299262730    15.994914619570
         N            0.214151101959     0.267558497134    -0.271441737270    14.003074004430
         C           -0.950998898041    -0.497792502866     0.116046262730    12.000000000000
         C           -1.196748898041    -1.682413502866    -0.820049737270    12.000000000000
         C            2.579070101959     0.806055497134    -0.339453737270    12.000000000000
         C            1.468327101959    -0.148932502866     0.069042262730    12.000000000000
         C           -2.190753898041     0.365121497134     0.182904262730    12.000000000000
         C            3.950742101959     0.331320497134     0.113812262730    12.000000000000
         H           -0.783778898041    -0.890466502866     1.127275262730     1.007825032230
         H            0.063879401959     1.304037697134    -0.421610037270     1.007825032230
         H           -1.351463898041    -1.329069502866    -1.842449737270     1.007825032230
         H           -0.323817898041    -2.335449502866    -0.793120737270     1.007825032230
         H           -2.078729898041    -2.236892502866    -0.493947737270     1.007825032230
         H            2.548065101959     0.915991497134    -1.430456737270     1.007825032230
         H            2.355560101959     1.798309497134     0.071791262730     1.007825032230
         H            4.178286101959    -0.648191502866    -0.308553737270     1.007825032230
         H            4.719533101959     1.039661497134    -0.206622737270     1.007825032230
         H            3.990414101959     0.240645497134     1.200118262730     1.007825032230
         H           -2.846126898041     2.096967497134    -0.125484737270     1.007825032230

  Basis Set: AUG-CC-PVTZ
    Blend: AUG-CC-PVTZ
  Basis Set: (AUG-CC-PVTZ AUX)
    Blend: AUG-CC-PVTZ-JKFIT
	 Reference Energy          =    -512.8815954184902921 [Eh]
	 Singles Energy            =      -0.0000000000000000 [Eh]
	 Same-Spin Energy          =      -0.5117902192683395 [Eh]
	 Opposite-Spin Energy      =      -1.6160516102298916 [Eh]
	 Correlation Energy        =      -2.1278418294982311 [Eh]
	 Total Energy              =    -515.0094372479885578 [Eh]

	 ================> DF-SCS-MP2 Energies <==================
	-----------------------------------------------------------
	 SCS Same-Spin Scale       =       0.3333333333333333 [-]
	 SCS Opposite-Spin Scale   =       1.2000000000000000 [-]
	 SCS Same-Spin Energy      =      -0.1705967397561131 [Eh]
	 SCS Opposite-Spin Energy  =      -1.9392619322758700 [Eh]
	 SCS Correlation Energy    =      -2.1098586720319830 [Eh]
	 SCS Total Energy          =    -514.9914540905223248 [Eh]
	-----------------------------------------------------------

  Dipole Moment: [D]
     X:    -0.0990      Y:     3.4494      Z:    -1.5792     Total:     3.7950

*** Psi4 exiting successfully. Buy a developer a beer!
