                               Psi4 1.4a2.dev612

  ==> Input File <==

--------------------------------------------------------------------------
#psi4
#
memory 32 gb

molecule  {
0 1
  O       -1.9705880     1.6613530    -0.1848000
  O        1.6688240    -1.2224340     0.6437850
  O       -3.2913740    -0.0479250     0.4948630
  N        0.2140730     0.2683100    -0.2698780
  C       -0.9510770    -0.4970410     0.1176100
  C       -1.1968270    -1.6816620    -0.8184860
  C        2.5909960     0.7373652    -0.4703050
  C        1.4682490    -0.1481810     0.0706060
  C       -2.1908320     0.3658730     0.1844680
  C        3.9506640     0.3320720     0.1153760
  H       -0.7838570    -0.8897150     1.1288390
  H        0.0750270     1.1966100    -0.6451490
  H       -1.3515420    -1.3283180    -1.8408860
  H       -0.3238960    -2.3346980    -0.7915570
  H       -2.0788080    -2.2361410    -0.4923840
  H        2.5479870     0.9167430    -1.4288930
  H        2.3554820     1.7990610     0.0733550
  H        4.1782080    -0.6474400    -0.3069900
  H        4.7194550     1.0404130    -0.2050590
  H        3.9903360     0.2413970     1.2016820
  H       -2.8462050     2.0977190    -0.1239210
units angstrom
no_reorient  #important for SAPT in psi4, default
symmetry c1  #important for SAPT in psi4, default
}

set PROPERTIES_ORIGIN ["COM"]
properties('MP2/aug-cc-pvtz', properties = ['dipole'])
--------------------------------------------------------------------------

    Molecular point group: c1
  Charge       = 0
  Multiplicity = 1
  Basis Set: AUG-CC-PVTZ
    Blend: AUG-CC-PVTZ
  Basis Set: (AUG-CC-PVTZ AUX)
    Blend: AUG-CC-PVTZ-JKFIT

    Orbital Energies [Eh]
    ---------------------

    Doubly Occupied:

       1A    -20.636422     2A    -20.564448     3A    -20.525332
       4A    -15.591801     5A    -11.405574     6A    -11.357695
       7A    -11.297125     8A    -11.249364     9A    -11.227212
      10A    -11.221715    11A     -1.478491    12A     -1.381042
      13A     -1.373695    14A     -1.246250    15A     -1.075165
      16A     -1.035493    17A     -0.928408    18A     -0.887347
      19A     -0.817414    20A     -0.795485    21A     -0.735930
      22A     -0.714763    23A     -0.685824    24A     -0.670182
      25A     -0.638191    26A     -0.627927    27A     -0.610873
      28A     -0.606341    29A     -0.579405    30A     -0.547846
      31A     -0.542674    32A     -0.541054    33A     -0.524524
      34A     -0.515654    35A     -0.493062    36A     -0.474732
      37A     -0.467023    38A     -0.427389    39A     -0.399995

  @DF-RHF Final Energy:  -512.86166206580799

   => Energetics <=

    Nuclear Repulsion Energy =            547.8347106709641139
    One-Electron Energy =               -1787.5950187298906258
    Two-Electron Energy =                 726.8986459931185209
    Total Energy =                       -512.8616620658079910
  Basis Set: (AUG-CC-PVTZ AUX)
    Blend: AUG-CC-PVTZ-RI
    Molecular point group: c1

    Geometry (in Angstrom), charge = 0, multiplicity = 1:

       Center              X                  Y                   Z               Mass
    ------------   -----------------  -----------------  -----------------  -----------------
         O           -1.971580811201     1.667096995978    -0.173847052871    15.994914619570
         O            1.667831188799    -1.216690004022     0.654737947129    15.994914619570
         O           -3.292366811201    -0.042181004022     0.505815947129    15.994914619570
         N            0.213080188799     0.274053995978    -0.258925052871    14.003074004430
         C           -0.952069811201    -0.491297004022     0.128562947129    12.000000000000
         C           -1.197819811201    -1.675918004022    -0.807533052871    12.000000000000
         C            2.590003188799     0.743109195978    -0.459352052871    12.000000000000
         C            1.467256188799    -0.142437004022     0.081558947129    12.000000000000
         C           -2.191824811201     0.371616995978     0.195420947129    12.000000000000
         C            3.949671188799     0.337815995978     0.126328947129    12.000000000000
         H           -0.784849811201    -0.883971004022     1.139791947129     1.007825032230
         H            0.074034188799     1.202353995978    -0.634196052871     1.007825032230
         H           -1.352534811201    -1.322574004022    -1.829933052871     1.007825032230
         H           -0.324888811201    -2.328954004022    -0.780604052871     1.007825032230
         H           -2.079800811201    -2.230397004022    -0.481431052871     1.007825032230
         H            2.546994188799     0.922486995978    -1.417940052871     1.007825032230
         H            2.354489188799     1.804804995978     0.084307947129     1.007825032230
         H            4.177215188799    -0.641696004022    -0.296037052871     1.007825032230
         H            4.718462188799     1.046156995978    -0.194106052871     1.007825032230
         H            3.989343188799     0.247140995978     1.212634947129     1.007825032230
         H           -2.847197811201     2.103462995978    -0.112968052871     1.007825032230

  Basis Set: AUG-CC-PVTZ
    Blend: AUG-CC-PVTZ
  Basis Set: (AUG-CC-PVTZ AUX)
    Blend: AUG-CC-PVTZ-JKFIT
	 Reference Energy          =    -512.8616620658079910 [Eh]
	 Singles Energy            =      -0.0000000000000000 [Eh]
	 Same-Spin Energy          =      -0.5115865944213052 [Eh]
	 Opposite-Spin Energy      =      -1.6161263613407524 [Eh]
	 Correlation Energy        =      -2.1277129557620578 [Eh]
	 Total Energy              =    -514.9893750215700265 [Eh]

	 ================> DF-SCS-MP2 Energies <==================
	-----------------------------------------------------------
	 SCS Same-Spin Scale       =       0.3333333333333333 [-]
	 SCS Opposite-Spin Scale   =       1.2000000000000000 [-]
	 SCS Same-Spin Energy      =      -0.1705288648071017 [Eh]
	 SCS Opposite-Spin Energy  =      -1.9393516336089027 [Eh]
	 SCS Correlation Energy    =      -2.1098804984160044 [Eh]
	 SCS Total Energy          =    -514.9715425642240234 [Eh]
	-----------------------------------------------------------

  Dipole Moment: [D]
     X:    -0.0860      Y:     3.2816      Z:    -1.9108     Total:     3.7984

*** Psi4 exiting successfully. Buy a developer a beer!
