                               Psi4 1.4a2.dev612

  ==> Input File <==

--------------------------------------------------------------------------
#psi4
#
memory 32 gb

molecule  {
0 1
  O       -1.9705880     1.6613530    -0.1848000
  O        1.6688240    -1.2224340     0.6437850
  O       -3.2913740    -0.0479250     0.4948630
  N        0.2140730     0.2683100    -0.2698780
  C       -0.9412135    -0.4857006     0.1652976
  C       -1.1968270    -1.6816620    -0.8184860
  C        2.5789920     0.8068070    -0.3378900
  C        1.4682490    -0.1481810     0.0706060
  C       -2.1908320     0.3658730     0.1844680
  C        3.9506640     0.3320720     0.1153760
  H       -0.7838570    -0.8897150     1.1288390
  H        0.0750270     1.1966100    -0.6451490
  H       -1.3515420    -1.3283180    -1.8408860
  H       -0.3238960    -2.3346980    -0.7915570
  H       -2.0788080    -2.2361410    -0.4923840
  H        2.5479870     0.9167430    -1.4288930
  H        2.3554820     1.7990610     0.0733550
  H        4.1782080    -0.6474400    -0.3069900
  H        4.7194550     1.0404130    -0.2050590
  H        3.9903360     0.2413970     1.2016820
  H       -2.8462050     2.0977190    -0.1239210
units angstrom
no_reorient  #important for SAPT in psi4, default
symmetry c1  #important for SAPT in psi4, default
}

set PROPERTIES_ORIGIN ["COM"]
properties('MP2/aug-cc-pvtz', properties = ['dipole'])
--------------------------------------------------------------------------

    Molecular point group: c1
  Charge       = 0
  Multiplicity = 1
  Basis Set: AUG-CC-PVTZ
    Blend: AUG-CC-PVTZ
  Basis Set: (AUG-CC-PVTZ AUX)
    Blend: AUG-CC-PVTZ-JKFIT

    Orbital Energies [Eh]
    ---------------------

    Doubly Occupied:

       1A    -20.636582     2A    -20.564373     3A    -20.524760
       4A    -15.591787     5A    -11.405777     6A    -11.355758
       7A    -11.295750     8A    -11.247196     9A    -11.228392
      10A    -11.219581    11A     -1.478579    12A     -1.380854
      13A     -1.373711    14A     -1.245992    15A     -1.073637
      16A     -1.033071    17A     -0.925778    18A     -0.885823
      19A     -0.822072    20A     -0.792555    21A     -0.730202
      22A     -0.714754    23A     -0.682926    24A     -0.667446
      25A     -0.641460    26A     -0.635254    27A     -0.611671
      28A     -0.602229    29A     -0.578642    30A     -0.547362
      31A     -0.541626    32A     -0.526390    33A     -0.521319
      34A     -0.520084    35A     -0.497621    36A     -0.488634
      37A     -0.469630    38A     -0.428382    39A     -0.398374

  @DF-RHF Final Energy:  -512.88421390761118

   => Energetics <=

    Nuclear Repulsion Energy =            547.8585952643312567
    One-Electron Energy =               -1787.7135505112858027
    Two-Electron Energy =                 726.9707413393432489
    Total Energy =                       -512.8842139076111835
  Basis Set: (AUG-CC-PVTZ AUX)
    Blend: AUG-CC-PVTZ-RI
    Molecular point group: c1

    Geometry (in Angstrom), charge = 0, multiplicity = 1:

       Center              X                  Y                   Z               Mass
    ------------   -----------------  -----------------  -----------------  -----------------
         O           -1.971403756602     1.660414977743    -0.188744503764    15.994914619570
         O            1.668008243398    -1.223372022257     0.639840496236    15.994914619570
         O           -3.292189756602    -0.048863022257     0.490918496236    15.994914619570
         N            0.213257243398     0.267371977743    -0.273822503764    14.003074004430
         C           -0.942029256602    -0.486638622257     0.161353096236    12.000000000000
         C           -1.197642756602    -1.682600022257    -0.822430503764    12.000000000000
         C            2.578176243398     0.805868977743    -0.341834503764    12.000000000000
         C            1.467433243398    -0.149119022257     0.066661496236    12.000000000000
         C           -2.191647756602     0.364934977743     0.180523496236    12.000000000000
         C            3.949848243398     0.331133977743     0.111431496236    12.000000000000
         H           -0.784672756602    -0.890653022257     1.124894496236     1.007825032230
         H            0.074211243398     1.195671977743    -0.649093503764     1.007825032230
         H           -1.352357756602    -1.329256022257    -1.844830503764     1.007825032230
         H           -0.324711756602    -2.335636022257    -0.795501503764     1.007825032230
         H           -2.079623756602    -2.237079022257    -0.496328503764     1.007825032230
         H            2.547171243398     0.915804977743    -1.432837503764     1.007825032230
         H            2.354666243398     1.798122977743     0.069410496236     1.007825032230
         H            4.177392243398    -0.648378022257    -0.310934503764     1.007825032230
         H            4.718639243398     1.039474977743    -0.209003503764     1.007825032230
         H            3.989520243398     0.240458977743     1.197737496236     1.007825032230
         H           -2.847020756602     2.096780977743    -0.127865503764     1.007825032230

  Basis Set: AUG-CC-PVTZ
    Blend: AUG-CC-PVTZ
  Basis Set: (AUG-CC-PVTZ AUX)
    Blend: AUG-CC-PVTZ-JKFIT
	 Reference Energy          =    -512.8842139076111835 [Eh]
	 Singles Energy            =      -0.0000000000000000 [Eh]
	 Same-Spin Energy          =      -0.5110854604148338 [Eh]
	 Opposite-Spin Energy      =      -1.6147369874470048 [Eh]
	 Correlation Energy        =      -2.1258224478618386 [Eh]
	 Total Energy              =    -515.0100363554730620 [Eh]

	 ================> DF-SCS-MP2 Energies <==================
	-----------------------------------------------------------
	 SCS Same-Spin Scale       =       0.3333333333333333 [-]
	 SCS Opposite-Spin Scale   =       1.2000000000000000 [-]
	 SCS Same-Spin Energy      =      -0.1703618201382779 [Eh]
	 SCS Opposite-Spin Energy  =      -1.9376843849364056 [Eh]
	 SCS Correlation Energy    =      -2.1080462050746833 [Eh]
	 SCS Total Energy          =    -514.9922601126858126 [Eh]
	-----------------------------------------------------------

  Dipole Moment: [D]
     X:    -0.0763      Y:     3.3940      Z:    -1.8159     Total:     3.8500

*** Psi4 exiting successfully. Buy a developer a beer!
