                               Psi4 1.4a2.dev612

  ==> Input File <==

--------------------------------------------------------------------------
#psi4
#
memory 32 gb

molecule  {
0 1
  O       -1.9705880     1.6613530    -0.1848000
  O        1.6688240    -1.2224340     0.6437850
  O       -3.2913740    -0.0479250     0.4948630
  N        0.2140730     0.2683100    -0.2698780
  C       -0.9510770    -0.4970410     0.1176100
  C       -1.1968270    -1.6816620    -0.8184860
  C        2.6029999     0.6679234    -0.6027201
  C        1.4682490    -0.1481810     0.0706060
  C       -2.1908320     0.3658730     0.1844680
  C        3.9506640     0.3320720     0.1153760
  H       -0.7838570    -0.8897150     1.1288390
  H        0.0750270     1.1966100    -0.6451490
  H       -1.3515420    -1.3283180    -1.8408860
  H       -0.3238960    -2.3346980    -0.7915570
  H       -2.0788080    -2.2361410    -0.4923840
  H        2.5479870     0.9167430    -1.4288930
  H        2.3554820     1.7990610     0.0733550
  H        4.1782080    -0.6474400    -0.3069900
  H        4.7194550     1.0404130    -0.2050590
  H        3.9903360     0.2413970     1.2016820
  H       -2.8462050     2.0977190    -0.1239210
units angstrom
no_reorient  #important for SAPT in psi4, default
symmetry c1  #important for SAPT in psi4, default
}

set PROPERTIES_ORIGIN ["COM"]
properties('MP2/aug-cc-pvtz', properties = ['dipole'])
--------------------------------------------------------------------------

    Molecular point group: c1
  Charge       = 0
  Multiplicity = 1
  Basis Set: AUG-CC-PVTZ
    Blend: AUG-CC-PVTZ
  Basis Set: (AUG-CC-PVTZ AUX)
    Blend: AUG-CC-PVTZ-JKFIT

    Orbital Energies [Eh]
    ---------------------

    Doubly Occupied:

       1A    -20.636142     2A    -20.564292     3A    -20.527237
       4A    -15.591946     5A    -11.405404     6A    -11.363174
       7A    -11.297147     8A    -11.256785     9A    -11.227641
      10A    -11.227358    11A     -1.478257    12A     -1.382353
      13A     -1.373521    14A     -1.246584    15A     -1.075210
      16A     -1.036208    17A     -0.928566    18A     -0.893376
      19A     -0.819909    20A     -0.803154    21A     -0.745593
      22A     -0.714797    23A     -0.693428    24A     -0.670750
      25A     -0.637146    26A     -0.617501    27A     -0.612687
      28A     -0.606799    29A     -0.579205    30A     -0.560919
      31A     -0.547383    32A     -0.541136    33A     -0.526249
      34A     -0.511152    35A     -0.492776    36A     -0.468973
      37A     -0.445863    38A     -0.422494    39A     -0.398879

  @DF-RHF Final Energy:  -512.78408479930192

   => Energetics <=

    Nuclear Repulsion Energy =            547.3941500408473075
    One-Electron Energy =               -1786.5004827502266380
    Two-Electron Energy =                 726.3222479100774081
    Total Energy =                       -512.7840847993019224
  Basis Set: (AUG-CC-PVTZ AUX)
    Blend: AUG-CC-PVTZ-RI
    Molecular point group: c1

    Geometry (in Angstrom), charge = 0, multiplicity = 1:

       Center              X                  Y                   Z               Mass
    ------------   -----------------  -----------------  -----------------  -----------------
         O           -1.972573731407     1.672840976384    -0.162894143531    15.994914619570
         O            1.666838268593    -1.210946023616     0.665690856469    15.994914619570
         O           -3.293359731407    -0.036437023616     0.516768856469    15.994914619570
         N            0.212087268593     0.279797976384    -0.247972143531    14.003074004430
         C           -0.953062731407    -0.485553023616     0.139515856469    12.000000000000
         C           -1.198812731407    -1.670174023616    -0.796580143531    12.000000000000
         C            2.601014168593     0.679411376384    -0.580814243531    12.000000000000
         C            1.466263268593    -0.136693023616     0.092511856469    12.000000000000
         C           -2.192817731407     0.377360976384     0.206373856469    12.000000000000
         C            3.948678268593     0.343559976384     0.137281856469    12.000000000000
         H           -0.785842731407    -0.878227023616     1.150744856469     1.007825032230
         H            0.073041268593     1.208097976384    -0.623243143531     1.007825032230
         H           -1.353527731407    -1.316830023616    -1.818980143531     1.007825032230
         H           -0.325881731407    -2.323210023616    -0.769651143531     1.007825032230
         H           -2.080793731407    -2.224653023616    -0.470478143531     1.007825032230
         H            2.546001268593     0.928230976384    -1.406987143531     1.007825032230
         H            2.353496268593     1.810548976384     0.095260856469     1.007825032230
         H            4.176222268593    -0.635952023616    -0.285084143531     1.007825032230
         H            4.717469268593     1.051900976384    -0.183153143531     1.007825032230
         H            3.988350268593     0.252884976384     1.223587856469     1.007825032230
         H           -2.848190731407     2.109206976384    -0.102015143531     1.007825032230

  Basis Set: AUG-CC-PVTZ
    Blend: AUG-CC-PVTZ
  Basis Set: (AUG-CC-PVTZ AUX)
    Blend: AUG-CC-PVTZ-JKFIT
	 Reference Energy          =    -512.7840847993019224 [Eh]
	 Singles Energy            =      -0.0000000000000000 [Eh]
	 Same-Spin Energy          =      -0.5125069917351897 [Eh]
	 Opposite-Spin Energy      =      -1.6197631162954709 [Eh]
	 Correlation Energy        =      -2.1322701080306605 [Eh]
	 Total Energy              =    -514.9163549073325612 [Eh]

	 ================> DF-SCS-MP2 Energies <==================
	-----------------------------------------------------------
	 SCS Same-Spin Scale       =       0.3333333333333333 [-]
	 SCS Opposite-Spin Scale   =       1.2000000000000000 [-]
	 SCS Same-Spin Energy      =      -0.1708356639117299 [Eh]
	 SCS Opposite-Spin Energy  =      -1.9437157395545650 [Eh]
	 SCS Correlation Energy    =      -2.1145514034662947 [Eh]
	 SCS Total Energy          =    -514.8986362027682162 [Eh]
	-----------------------------------------------------------

  Dipole Moment: [D]
     X:    -0.0663      Y:     3.1486      Z:    -1.9169     Total:     3.6868

*** Psi4 exiting successfully. Buy a developer a beer!
