                               Psi4 1.4a2.dev612

  ==> Input File <==

--------------------------------------------------------------------------
#psi4
#
memory 32 gb

molecule  {
0 1
  O       -1.9705880     1.6613530    -0.1848000
  O        1.6688240    -1.2224340     0.6437850
  O       -3.2913740    -0.0479250     0.4948630
  N        0.2140730     0.2683100    -0.2698780
  C       -0.9510770    -0.4970410     0.1176100
  C       -1.1968270    -1.6816620    -0.8184860
  C        2.5789920     0.8068070    -0.3378900
  C        1.4682490    -0.1481810     0.0706060
  C       -2.1908320     0.3658730     0.1844680
  C        3.9506640     0.3320720     0.1153760
  H       -0.7838570    -0.8897150     1.1288390
  H        0.0682916     1.2615175    -0.5100874
  H       -1.3515420    -1.3283180    -1.8408860
  H       -0.3238960    -2.3346980    -0.7915570
  H       -2.0788080    -2.2361410    -0.4923840
  H        2.5479870     0.9167430    -1.4288930
  H        2.3554820     1.7990610     0.0733550
  H        4.1782080    -0.6474400    -0.3069900
  H        4.7194550     1.0404130    -0.2050590
  H        3.9903360     0.2413970     1.2016820
  H       -2.8462050     2.0977190    -0.1239210
units angstrom
no_reorient  #important for SAPT in psi4, default
symmetry c1  #important for SAPT in psi4, default
}

set PROPERTIES_ORIGIN ["COM"]
properties('MP2/aug-cc-pvtz', properties = ['dipole'])
--------------------------------------------------------------------------

    Molecular point group: c1
  Charge       = 0
  Multiplicity = 1
  Basis Set: AUG-CC-PVTZ
    Blend: AUG-CC-PVTZ
  Basis Set: (AUG-CC-PVTZ AUX)
    Blend: AUG-CC-PVTZ-JKFIT

    Orbital Energies [Eh]
    ---------------------

    Doubly Occupied:

       1A    -20.637628     2A    -20.565069     3A    -20.525474
       4A    -15.592581     5A    -11.406348     6A    -11.355691
       7A    -11.296670     8A    -11.247261     9A    -11.226716
      10A    -11.219578    11A     -1.479596    12A     -1.380911
      13A     -1.374526    14A     -1.244332    15A     -1.075284
      16A     -1.035313    17A     -0.928501    18A     -0.885741
      19A     -0.815258    20A     -0.788837    21A     -0.731255
      22A     -0.713947    23A     -0.683474    24A     -0.667512
      25A     -0.641534    26A     -0.633738    27A     -0.611179
      28A     -0.604081    29A     -0.576206    30A     -0.547366
      31A     -0.544923    32A     -0.524027    33A     -0.520530
      34A     -0.519826    35A     -0.498438    36A     -0.488672
      37A     -0.468361    38A     -0.428451    39A     -0.401233

  @DF-RHF Final Energy:  -512.88446233017487

   => Energetics <=

    Nuclear Repulsion Energy =            547.9827863756001989
    One-Electron Energy =               -1787.9623609522766401
    Two-Electron Energy =                 727.0951122465015715
    Total Energy =                       -512.8844623301748697
  Basis Set: (AUG-CC-PVTZ AUX)
    Blend: AUG-CC-PVTZ-RI
    Molecular point group: c1

    Geometry (in Angstrom), charge = 0, multiplicity = 1:

       Center              X                  Y                   Z               Mass
    ------------   -----------------  -----------------  -----------------  -----------------
         O           -1.970541092052     1.660902104648    -0.185738223799    15.994914619570
         O            1.668870907948    -1.222884895352     0.642846776201    15.994914619570
         O           -3.291327092052    -0.048375895352     0.493924776201    15.994914619570
         N            0.214119907948     0.267859104648    -0.270816223799    14.003074004430
         C           -0.951030092052    -0.497491895352     0.116671776201    12.000000000000
         C           -1.196780092052    -1.682112895352    -0.819424223799    12.000000000000
         C            2.579038907948     0.806356104648    -0.338828223799    12.000000000000
         C            1.468295907948    -0.148631895352     0.069667776201    12.000000000000
         C           -2.190785092052     0.365422104648     0.183529776201    12.000000000000
         C            3.950710907948     0.331621104648     0.114437776201    12.000000000000
         H           -0.783810092052    -0.890165895352     1.127900776201     1.007825032230
         H            0.068338507948     1.261066604648    -0.511025623799     1.007825032230
         H           -1.351495092052    -1.328768895352    -1.841824223799     1.007825032230
         H           -0.323849092052    -2.335148895352    -0.792495223799     1.007825032230
         H           -2.078761092052    -2.236591895352    -0.493322223799     1.007825032230
         H            2.548033907948     0.916292104648    -1.429831223799     1.007825032230
         H            2.355528907948     1.798610104648     0.072416776201     1.007825032230
         H            4.178254907948    -0.647890895352    -0.307928223799     1.007825032230
         H            4.719501907948     1.039962104648    -0.205997223799     1.007825032230
         H            3.990382907948     0.240946104648     1.200743776201     1.007825032230
         H           -2.846158092052     2.097268104648    -0.124859223799     1.007825032230

  Basis Set: AUG-CC-PVTZ
    Blend: AUG-CC-PVTZ
  Basis Set: (AUG-CC-PVTZ AUX)
    Blend: AUG-CC-PVTZ-JKFIT
	 Reference Energy          =    -512.8844623301748697 [Eh]
	 Singles Energy            =      -0.0000000000000000 [Eh]
	 Same-Spin Energy          =      -0.5115450187310039 [Eh]
	 Opposite-Spin Energy      =      -1.6154577737347615 [Eh]
	 Correlation Energy        =      -2.1270027924657655 [Eh]
	 Total Energy              =    -515.0114651226406295 [Eh]

	 ================> DF-SCS-MP2 Energies <==================
	-----------------------------------------------------------
	 SCS Same-Spin Scale       =       0.3333333333333333 [-]
	 SCS Opposite-Spin Scale   =       1.2000000000000000 [-]
	 SCS Same-Spin Energy      =      -0.1705150062436679 [Eh]
	 SCS Opposite-Spin Energy  =      -1.9385493284817137 [Eh]
	 SCS Correlation Energy    =      -2.1090643347253817 [Eh]
	 SCS Total Energy          =    -514.9935266649002870 [Eh]
	-----------------------------------------------------------

  Dipole Moment: [D]
     X:    -0.1011      Y:     3.4243      Z:    -1.6914     Total:     3.8206

*** Psi4 exiting successfully. Buy a developer a beer!
