                               Psi4 1.4a2.dev612

  ==> Input File <==

--------------------------------------------------------------------------
#psi4
#
memory 32 gb

molecule  {
0 1
  O       -1.9705880     1.6613530    -0.1848000
  O        1.6688240    -1.2224340     0.6437850
  O       -3.2913740    -0.0479250     0.4948630
  N        0.2140730     0.2683100    -0.2698780
  C       -0.9510770    -0.4970410     0.1176100
  C       -1.1968270    -1.6816620    -0.8184860
  C        2.5789920     0.8068070    -0.3378900
  C        1.4682490    -0.1481810     0.0706060
  C       -2.1908320     0.3658730     0.1844680
  C        3.9506640     0.3320720     0.1153760
  H       -0.7838570    -0.8897150     1.1288390
  H        0.0727819     1.2182458    -0.6001285
  H       -1.3515420    -1.3283180    -1.8408860
  H       -0.3238960    -2.3346980    -0.7915570
  H       -2.0788080    -2.2361410    -0.4923840
  H        2.5479870     0.9167430    -1.4288930
  H        2.3554820     1.7990610     0.0733550
  H        4.1782080    -0.6474400    -0.3069900
  H        4.7194550     1.0404130    -0.2050590
  H        3.9903360     0.2413970     1.2016820
  H       -2.8462050     2.0977190    -0.1239210
units angstrom
no_reorient  #important for SAPT in psi4, default
symmetry c1  #important for SAPT in psi4, default
}

set PROPERTIES_ORIGIN ["COM"]
properties('MP2/aug-cc-pvtz', properties = ['dipole'])
--------------------------------------------------------------------------

    Molecular point group: c1
  Charge       = 0
  Multiplicity = 1
  Basis Set: AUG-CC-PVTZ
    Blend: AUG-CC-PVTZ
  Basis Set: (AUG-CC-PVTZ AUX)
    Blend: AUG-CC-PVTZ-JKFIT

    Orbital Energies [Eh]
    ---------------------

    Doubly Occupied:

       1A    -20.637008     2A    -20.564785     3A    -20.524832
       4A    -15.591791     5A    -11.405990     6A    -11.355837
       7A    -11.297042     8A    -11.247270     9A    -11.226792
      10A    -11.219580    11A     -1.479026    12A     -1.380657
      13A     -1.374108    14A     -1.245716    15A     -1.075471
      16A     -1.035665    17A     -0.928374    18A     -0.885879
      19A     -0.816473    20A     -0.791786    21A     -0.731206
      22A     -0.714648    23A     -0.683032    24A     -0.666654
      25A     -0.641452    26A     -0.633890    27A     -0.610853
      28A     -0.603286    29A     -0.579452    30A     -0.547336
      31A     -0.544632    32A     -0.524307    33A     -0.521051
      34A     -0.519837    35A     -0.498046    36A     -0.488583
      37A     -0.468439    38A     -0.428269    39A     -0.400496

  @DF-RHF Final Energy:  -512.88578067761262

   => Energetics <=

    Nuclear Repulsion Energy =            548.0296882234011946
    One-Electron Energy =               -1788.0518277782348378
    Two-Electron Energy =                 727.1363588772211415
    Total Energy =                       -512.8857806776126154
  Basis Set: (AUG-CC-PVTZ AUX)
    Blend: AUG-CC-PVTZ-RI
    Molecular point group: c1

    Geometry (in Angstrom), charge = 0, multiplicity = 1:

       Center              X                  Y                   Z               Mass
    ------------   -----------------  -----------------  -----------------  -----------------
         O           -1.970572286064     1.661202712163    -0.185112710328    15.994914619570
         O            1.668839713936    -1.222584287837     0.643472289672    15.994914619570
         O           -3.291358286064    -0.048075287837     0.494550289672    15.994914619570
         N            0.214088713936     0.268159712163    -0.270190710328    14.003074004430
         C           -0.951061286064    -0.497191287837     0.117297289672    12.000000000000
         C           -1.196811286064    -1.681812287837    -0.818798710328    12.000000000000
         C            2.579007713936     0.806656712163    -0.338202710328    12.000000000000
         C            1.468264713936    -0.148331287837     0.070293289672    12.000000000000
         C           -2.190816286064     0.365722712163     0.184155289672    12.000000000000
         C            3.950679713936     0.331921712163     0.115063289672    12.000000000000
         H           -0.783841286064    -0.889865287837     1.128526289672     1.007825032230
         H            0.072797613936     1.218095512163    -0.600441210328     1.007825032230
         H           -1.351526286064    -1.328468287837    -1.841198710328     1.007825032230
         H           -0.323880286064    -2.334848287837    -0.791869710328     1.007825032230
         H           -2.078792286064    -2.236291287837    -0.492696710328     1.007825032230
         H            2.548002713936     0.916592712163    -1.429205710328     1.007825032230
         H            2.355497713936     1.798910712163     0.073042289672     1.007825032230
         H            4.178223713936    -0.647590287837    -0.307302710328     1.007825032230
         H            4.719470713936     1.040262712163    -0.205371710328     1.007825032230
         H            3.990351713936     0.241246712163     1.201369289672     1.007825032230
         H           -2.846189286064     2.097568712163    -0.124233710328     1.007825032230

  Basis Set: AUG-CC-PVTZ
    Blend: AUG-CC-PVTZ
  Basis Set: (AUG-CC-PVTZ AUX)
    Blend: AUG-CC-PVTZ-JKFIT
	 Reference Energy          =    -512.8857806776126154 [Eh]
	 Singles Energy            =      -0.0000000000000000 [Eh]
	 Same-Spin Energy          =      -0.5113771714189210 [Eh]
	 Opposite-Spin Energy      =      -1.6150591511106844 [Eh]
	 Correlation Energy        =      -2.1264363225296057 [Eh]
	 Total Energy              =    -515.0122170001421864 [Eh]

	 ================> DF-SCS-MP2 Energies <==================
	-----------------------------------------------------------
	 SCS Same-Spin Scale       =       0.3333333333333333 [-]
	 SCS Opposite-Spin Scale   =       1.2000000000000000 [-]
	 SCS Same-Spin Energy      =      -0.1704590571396403 [Eh]
	 SCS Opposite-Spin Energy  =      -1.9380709813328212 [Eh]
	 SCS Correlation Energy    =      -2.1085300384724617 [Eh]
	 SCS Total Energy          =    -514.9943107160851241 [Eh]
	-----------------------------------------------------------

  Dipole Moment: [D]
     X:    -0.0974      Y:     3.3896      Z:    -1.8040     Total:     3.8410

*** Psi4 exiting successfully. Buy a developer a beer!
