                               Psi4 1.4a2.dev612

  ==> Input File <==

--------------------------------------------------------------------------
#psi4
#
memory 32 gb

molecule  {
0 1
  O       -1.9705880     1.6613530    -0.1848000
  O        1.6688240    -1.2224340     0.6437850
  O       -3.2913740    -0.0479250     0.4948630
  N        0.2140730     0.2683100    -0.2698780
  C       -0.9313501    -0.4743601     0.2129852
  C       -1.1968270    -1.6816620    -0.8184860
  C        2.5789920     0.8068070    -0.3378900
  C        1.4682490    -0.1481810     0.0706060
  C       -2.1908320     0.3658730     0.1844680
  C        3.9506640     0.3320720     0.1153760
  H       -0.7838570    -0.8897150     1.1288390
  H        0.0750270     1.1966100    -0.6451490
  H       -1.3515420    -1.3283180    -1.8408860
  H       -0.3238960    -2.3346980    -0.7915570
  H       -2.0788080    -2.2361410    -0.4923840
  H        2.5479870     0.9167430    -1.4288930
  H        2.3554820     1.7990610     0.0733550
  H        4.1782080    -0.6474400    -0.3069900
  H        4.7194550     1.0404130    -0.2050590
  H        3.9903360     0.2413970     1.2016820
  H       -2.8462050     2.0977190    -0.1239210
units angstrom
no_reorient  #important for SAPT in psi4, default
symmetry c1  #important for SAPT in psi4, default
}

set PROPERTIES_ORIGIN ["COM"]
properties('MP2/aug-cc-pvtz', properties = ['dipole'])
--------------------------------------------------------------------------

    Molecular point group: c1
  Charge       = 0
  Multiplicity = 1
  Basis Set: AUG-CC-PVTZ
    Blend: AUG-CC-PVTZ
  Basis Set: (AUG-CC-PVTZ AUX)
    Blend: AUG-CC-PVTZ-JKFIT

    Orbital Energies [Eh]
    ---------------------

    Doubly Occupied:

       1A    -20.636509     2A    -20.564016     3A    -20.524946
       4A    -15.592137     5A    -11.406056     6A    -11.355601
       7A    -11.294791     8A    -11.247133     9A    -11.230024
      10A    -11.219587    11A     -1.478418    12A     -1.381135
      13A     -1.373499    14A     -1.245661    15A     -1.072208
      16A     -1.030671    17A     -0.923285    18A     -0.885630
      19A     -0.827825    20A     -0.792343    21A     -0.729096
      22A     -0.714658    23A     -0.683605    24A     -0.669080
      25A     -0.641571    26A     -0.637066    27A     -0.612799
      28A     -0.601761    29A     -0.577049    30A     -0.548373
      31A     -0.539529    32A     -0.529192    33A     -0.520175
      34A     -0.518272    35A     -0.497372    36A     -0.487823
      37A     -0.470116    38A     -0.428566    39A     -0.395795

  @DF-RHF Final Energy:  -512.87717125942356

   => Energetics <=

    Nuclear Repulsion Energy =            547.6536399993487976
    One-Electron Energy =               -1787.2948749202741965
    Two-Electron Energy =                 726.7640636615018366
    Total Energy =                       -512.8771712594235623
  Basis Set: (AUG-CC-PVTZ AUX)
    Blend: AUG-CC-PVTZ-RI
    Molecular point group: c1

    Geometry (in Angstrom), charge = 0, multiplicity = 1:

       Center              X                  Y                   Z               Mass
    ------------   -----------------  -----------------  -----------------  -----------------
         O           -1.972219622209     1.659476931641    -0.192689053588    15.994914619570
         O            1.667192377791    -1.224310068359     0.635895946412    15.994914619570
         O           -3.293005622209    -0.049801068359     0.486973946412    15.994914619570
         N            0.212441377791     0.266433931641    -0.277767053588    14.003074004430
         C           -0.932981722209    -0.476236168359     0.205096146412    12.000000000000
         C           -1.198458622209    -1.683538068359    -0.826375053588    12.000000000000
         C            2.577360377791     0.804930931641    -0.345779053588    12.000000000000
         C            1.466617377791    -0.150057068359     0.062716946412    12.000000000000
         C           -2.192463622209     0.363996931641     0.176578946412    12.000000000000
         C            3.949032377791     0.330195931641     0.107486946412    12.000000000000
         H           -0.785488622209    -0.891591068359     1.120949946412     1.007825032230
         H            0.073395377791     1.194733931641    -0.653038053588     1.007825032230
         H           -1.353173622209    -1.330194068359    -1.848775053588     1.007825032230
         H           -0.325527622209    -2.336574068359    -0.799446053588     1.007825032230
         H           -2.080439622209    -2.238017068359    -0.500273053588     1.007825032230
         H            2.546355377791     0.914866931641    -1.436782053588     1.007825032230
         H            2.353850377791     1.797184931641     0.065465946412     1.007825032230
         H            4.176576377791    -0.649316068359    -0.314879053588     1.007825032230
         H            4.717823377791     1.038536931641    -0.212948053588     1.007825032230
         H            3.988704377791     0.239520931641     1.193792946412     1.007825032230
         H           -2.847836622209     2.095842931641    -0.131810053588     1.007825032230

  Basis Set: AUG-CC-PVTZ
    Blend: AUG-CC-PVTZ
  Basis Set: (AUG-CC-PVTZ AUX)
    Blend: AUG-CC-PVTZ-JKFIT
	 Reference Energy          =    -512.8771712594235623 [Eh]
	 Singles Energy            =      -0.0000000000000000 [Eh]
	 Same-Spin Energy          =      -0.5109840853508963 [Eh]
	 Opposite-Spin Energy      =      -1.6148714075823729 [Eh]
	 Correlation Energy        =      -2.1258554929332694 [Eh]
	 Total Energy              =    -515.0030267523568455 [Eh]

	 ================> DF-SCS-MP2 Energies <==================
	-----------------------------------------------------------
	 SCS Same-Spin Scale       =       0.3333333333333333 [-]
	 SCS Opposite-Spin Scale   =       1.2000000000000000 [-]
	 SCS Same-Spin Energy      =      -0.1703280284502988 [Eh]
	 SCS Opposite-Spin Energy  =      -1.9378456890988474 [Eh]
	 SCS Correlation Energy    =      -2.1081737175491462 [Eh]
	 SCS Total Energy          =    -514.9853449769726694 [Eh]
	-----------------------------------------------------------

  Dipole Moment: [D]
     X:    -0.0576      Y:     3.4152      Z:    -1.7777     Total:     3.8506

*** Psi4 exiting successfully. Buy a developer a beer!
