                               Psi4 1.4a2.dev612

  ==> Input File <==

--------------------------------------------------------------------------
#psi4
#
memory 32 gb

molecule  {
0 1
  O       -1.9705880     1.6613530    -0.1848000
  O        1.6688240    -1.2224340     0.6437850
  O       -3.2913740    -0.0479250     0.4948630
  N        0.2140730     0.2683100    -0.2698780
  C       -0.8918962    -0.4289984     0.4037356
  C       -1.1968270    -1.6816620    -0.8184860
  C        2.5789920     0.8068070    -0.3378900
  C        1.4682490    -0.1481810     0.0706060
  C       -2.1908320     0.3658730     0.1844680
  C        3.9506640     0.3320720     0.1153760
  H       -0.7838570    -0.8897150     1.1288390
  H        0.0750270     1.1966100    -0.6451490
  H       -1.3515420    -1.3283180    -1.8408860
  H       -0.3238960    -2.3346980    -0.7915570
  H       -2.0788080    -2.2361410    -0.4923840
  H        2.5479870     0.9167430    -1.4288930
  H        2.3554820     1.7990610     0.0733550
  H        4.1782080    -0.6474400    -0.3069900
  H        4.7194550     1.0404130    -0.2050590
  H        3.9903360     0.2413970     1.2016820
  H       -2.8462050     2.0977190    -0.1239210
units angstrom
no_reorient  #important for SAPT in psi4, default
symmetry c1  #important for SAPT in psi4, default
}

set PROPERTIES_ORIGIN ["COM"]
properties('MP2/aug-cc-pvtz', properties = ['dipole'])
--------------------------------------------------------------------------

    Molecular point group: c1
  Charge       = 0
  Multiplicity = 1
  Basis Set: AUG-CC-PVTZ
    Blend: AUG-CC-PVTZ
  Basis Set: (AUG-CC-PVTZ AUX)
    Blend: AUG-CC-PVTZ-JKFIT

    Orbital Energies [Eh]
    ---------------------

    Doubly Occupied:

       1A    -20.635971     2A    -20.561415     3A    -20.525967
       4A    -15.595189     5A    -11.409606     6A    -11.354940
       7A    -11.295973     8A    -11.246922     9A    -11.237642
      10A    -11.219613    11A     -1.477184    12A     -1.382069
      13A     -1.371952    14A     -1.241996    15A     -1.069077
      16A     -1.025022    17A     -0.914933    18A     -0.884478
      19A     -0.856270    20A     -0.790755    21A     -0.722402
      22A     -0.713520    23A     -0.697498    24A     -0.671738
      25A     -0.645685    26A     -0.641617    27A     -0.613681
      28A     -0.599251    29A     -0.574683    30A     -0.554449
      31A     -0.539777    32A     -0.529519    33A     -0.520352
      34A     -0.506485    35A     -0.496233    36A     -0.475870
      37A     -0.468147    38A     -0.429290    39A     -0.378080

  @DF-RHF Final Energy:  -512.79163360431573

   => Energetics <=

    Nuclear Repulsion Energy =            546.5437806345603349
    One-Electron Energy =               -1784.9203287791895036
    Two-Electron Energy =                 725.5849145403134344
    Total Energy =                       -512.7916336043157344
  Basis Set: (AUG-CC-PVTZ AUX)
    Blend: AUG-CC-PVTZ-RI
    Molecular point group: c1

    Geometry (in Angstrom), charge = 0, multiplicity = 1:

       Center              X                  Y                   Z               Mass
    ------------   -----------------  -----------------  -----------------  -----------------
         O           -1.975483109453     1.655724772049    -0.208467252885    15.994914619570
         O            1.663928890547    -1.228062227951     0.620117747115    15.994914619570
         O           -3.296269109453    -0.053553227951     0.471195747115    15.994914619570
         N            0.209177890547     0.262681772049    -0.293545252885    14.003074004430
         C           -0.896791309453    -0.434626627951     0.380068347115    12.000000000000
         C           -1.201722109453    -1.687290227951    -0.842153252885    12.000000000000
         C            2.574096890547     0.801178772049    -0.361557252885    12.000000000000
         C            1.463353890547    -0.153809227951     0.046938747115    12.000000000000
         C           -2.195727109453     0.360244772049     0.160800747115    12.000000000000
         C            3.945768890547     0.326443772049     0.091708747115    12.000000000000
         H           -0.788752109453    -0.895343227951     1.105171747115     1.007825032230
         H            0.070131890547     1.190981772049    -0.668816252885     1.007825032230
         H           -1.356437109453    -1.333946227951    -1.864553252885     1.007825032230
         H           -0.328791109453    -2.340326227951    -0.815224252885     1.007825032230
         H           -2.083703109453    -2.241769227951    -0.516051252885     1.007825032230
         H            2.543091890547     0.911114772049    -1.452560252885     1.007825032230
         H            2.350586890547     1.793432772049     0.049687747115     1.007825032230
         H            4.173312890547    -0.653068227951    -0.330657252885     1.007825032230
         H            4.714559890547     1.034784772049    -0.228726252885     1.007825032230
         H            3.985440890547     0.235768772049     1.178014747115     1.007825032230
         H           -2.851100109453     2.092090772049    -0.147588252885     1.007825032230

  Basis Set: AUG-CC-PVTZ
    Blend: AUG-CC-PVTZ
  Basis Set: (AUG-CC-PVTZ AUX)
    Blend: AUG-CC-PVTZ-JKFIT
	 Reference Energy          =    -512.7916336043157344 [Eh]
	 Singles Energy            =      -0.0000000000000000 [Eh]
	 Same-Spin Energy          =      -0.5118797489878949 [Eh]
	 Opposite-Spin Energy      =      -1.6188951736716901 [Eh]
	 Correlation Energy        =      -2.1307749226595849 [Eh]
	 Total Energy              =    -514.9224085269753459 [Eh]

	 ================> DF-SCS-MP2 Energies <==================
	-----------------------------------------------------------
	 SCS Same-Spin Scale       =       0.3333333333333333 [-]
	 SCS Opposite-Spin Scale   =       1.2000000000000000 [-]
	 SCS Same-Spin Energy      =      -0.1706265829959649 [Eh]
	 SCS Opposite-Spin Energy  =      -1.9426742084060280 [Eh]
	 SCS Correlation Energy    =      -2.1133007914019930 [Eh]
	 SCS Total Energy          =    -514.9049343957177598 [Eh]
	-----------------------------------------------------------

  Dipole Moment: [D]
     X:     0.0360      Y:     3.4535      Z:    -1.6860     Total:     3.8433

*** Psi4 exiting successfully. Buy a developer a beer!
