                               Psi4 1.4a2.dev612

  ==> Input File <==

--------------------------------------------------------------------------
#psi4
#
memory 32 gb

molecule  {
0 1
  O       -1.9705880     1.6613530    -0.1848000
  O        1.6688240    -1.2224340     0.6437850
  O       -3.2913740    -0.0479250     0.4948630
  N        0.2140730     0.2683100    -0.2698780
  C       -0.9510770    -0.4970410     0.1176100
  C       -1.1968270    -1.6816620    -0.8184860
  C        2.5869946     0.7605125    -0.4261667
  C        1.4682490    -0.1481810     0.0706060
  C       -2.1908320     0.3658730     0.1844680
  C        3.9506640     0.3320720     0.1153760
  H       -0.7838570    -0.8897150     1.1288390
  H        0.0750270     1.1966100    -0.6451490
  H       -1.3515420    -1.3283180    -1.8408860
  H       -0.3238960    -2.3346980    -0.7915570
  H       -2.0788080    -2.2361410    -0.4923840
  H        2.5479870     0.9167430    -1.4288930
  H        2.3554820     1.7990610     0.0733550
  H        4.1782080    -0.6474400    -0.3069900
  H        4.7194550     1.0404130    -0.2050590
  H        3.9903360     0.2413970     1.2016820
  H       -2.8462050     2.0977190    -0.1239210
units angstrom
no_reorient  #important for SAPT in psi4, default
symmetry c1  #important for SAPT in psi4, default
}

set PROPERTIES_ORIGIN ["COM"]
properties('MP2/aug-cc-pvtz', properties = ['dipole'])
--------------------------------------------------------------------------

    Molecular point group: c1
  Charge       = 0
  Multiplicity = 1
  Basis Set: AUG-CC-PVTZ
    Blend: AUG-CC-PVTZ
  Basis Set: (AUG-CC-PVTZ AUX)
    Blend: AUG-CC-PVTZ-JKFIT

    Orbital Energies [Eh]
    ---------------------

    Doubly Occupied:

       1A    -20.636501     2A    -20.564501     3A    -20.524956
       4A    -15.591747     5A    -11.405635     6A    -11.356674
       7A    -11.297136     8A    -11.248070     9A    -11.227083
      10A    -11.220586    11A     -1.478561    12A     -1.380787
      13A     -1.373750    14A     -1.246179    15A     -1.075258
      16A     -1.035500    17A     -0.928364    18A     -0.886490
      19A     -0.817128    20A     -0.793922    21A     -0.733440
      22A     -0.714754    23A     -0.683607    24A     -0.669137
      25A     -0.639205    26A     -0.630931    27A     -0.610679
      28A     -0.605331    29A     -0.579899    30A     -0.547401
      31A     -0.542693    32A     -0.534671    33A     -0.523798
      34A     -0.516716    35A     -0.493635    36A     -0.482471
      37A     -0.468005    38A     -0.427922    39A     -0.400101

  @DF-RHF Final Energy:  -512.87535418904906

   => Energetics <=

    Nuclear Repulsion Energy =            547.9291707667356377
    One-Electron Energy =               -1787.8226004019618358
    Two-Electron Energy =                 727.0180754461772494
    Total Energy =                       -512.8753541890490624
  Basis Set: (AUG-CC-PVTZ AUX)
    Blend: AUG-CC-PVTZ-RI
    Molecular point group: c1

    Geometry (in Angstrom), charge = 0, multiplicity = 1:

       Center              X                  Y                   Z               Mass
    ------------   -----------------  -----------------  -----------------  -----------------
         O           -1.971249829527     1.665182333086    -0.177498017137    15.994914619570
         O            1.668162170473    -1.218604666914     0.651086982863    15.994914619570
         O           -3.292035829527    -0.044095666914     0.502164982863    15.994914619570
         N            0.213411170473     0.272139333086    -0.262576017137    14.003074004430
         C           -0.951738829527    -0.493211666914     0.124911982863    12.000000000000
         C           -1.197488829527    -1.677832666914    -0.811184017137    12.000000000000
         C            2.586332770473     0.764341833086    -0.418864717137    12.000000000000
         C            1.467587170473    -0.144351666914     0.077907982863    12.000000000000
         C           -2.191493829527     0.369702333086     0.191769982863    12.000000000000
         C            3.950002170473     0.335901333086     0.122677982863    12.000000000000
         H           -0.784518829527    -0.885885666914     1.136140982863     1.007825032230
         H            0.074365170473     1.200439333086    -0.637847017137     1.007825032230
         H           -1.352203829527    -1.324488666914    -1.833584017137     1.007825032230
         H           -0.324557829527    -2.330868666914    -0.784255017137     1.007825032230
         H           -2.079469829527    -2.232311666914    -0.485082017137     1.007825032230
         H            2.547325170473     0.920572333086    -1.421591017137     1.007825032230
         H            2.354820170473     1.802890333086     0.080656982863     1.007825032230
         H            4.177546170473    -0.643610666914    -0.299688017137     1.007825032230
         H            4.718793170473     1.044242333086    -0.197757017137     1.007825032230
         H            3.989674170473     0.245226333086     1.208983982863     1.007825032230
         H           -2.846866829527     2.101548333086    -0.116619017137     1.007825032230

  Basis Set: AUG-CC-PVTZ
    Blend: AUG-CC-PVTZ
  Basis Set: (AUG-CC-PVTZ AUX)
    Blend: AUG-CC-PVTZ-JKFIT
	 Reference Energy          =    -512.8753541890490624 [Eh]
	 Singles Energy            =      -0.0000000000000000 [Eh]
	 Same-Spin Energy          =      -0.5114292632845866 [Eh]
	 Opposite-Spin Energy      =      -1.6154689788151706 [Eh]
	 Correlation Energy        =      -2.1268982420997573 [Eh]
	 Total Energy              =    -515.0022524311488041 [Eh]

	 ================> DF-SCS-MP2 Energies <==================
	-----------------------------------------------------------
	 SCS Same-Spin Scale       =       0.3333333333333333 [-]
	 SCS Opposite-Spin Scale   =       1.2000000000000000 [-]
	 SCS Same-Spin Energy      =      -0.1704764210948622 [Eh]
	 SCS Opposite-Spin Energy  =      -1.9385627745782046 [Eh]
	 SCS Correlation Energy    =      -2.1090391956730667 [Eh]
	 SCS Total Energy          =    -514.9843933847221251 [Eh]
	-----------------------------------------------------------

  Dipole Moment: [D]
     X:    -0.0903      Y:     3.3171      Z:    -1.8987     Total:     3.8232

*** Psi4 exiting successfully. Buy a developer a beer!
