                               Psi4 1.4a2.dev612

  ==> Input File <==

--------------------------------------------------------------------------
#psi4
#
memory 32 gb

molecule  {
0 1
  O       -1.9705880     1.6613530    -0.1848000
  O        1.6688240    -1.2224340     0.6437850
  O       -3.2913740    -0.0479250     0.4948630
  N        0.2140730     0.2683100    -0.2698780
  C       -0.9510770    -0.4970410     0.1176100
  C       -1.1968270    -1.6816620    -0.8184860
  C        2.5789920     0.8068070    -0.3378900
  C        1.4682490    -0.1481810     0.0706060
  C       -2.1908320     0.3658730     0.1844680
  C        3.9506640     0.3320720     0.1153760
  H       -0.7838570    -0.8897150     1.1288390
  H        0.0660464     1.2831534    -0.4650668
  H       -1.3515420    -1.3283180    -1.8408860
  H       -0.3238960    -2.3346980    -0.7915570
  H       -2.0788080    -2.2361410    -0.4923840
  H        2.5479870     0.9167430    -1.4288930
  H        2.3554820     1.7990610     0.0733550
  H        4.1782080    -0.6474400    -0.3069900
  H        4.7194550     1.0404130    -0.2050590
  H        3.9903360     0.2413970     1.2016820
  H       -2.8462050     2.0977190    -0.1239210
units angstrom
no_reorient  #important for SAPT in psi4, default
symmetry c1  #important for SAPT in psi4, default
}

set PROPERTIES_ORIGIN ["COM"]
properties('MP2/aug-cc-pvtz', properties = ['dipole'])
--------------------------------------------------------------------------

    Molecular point group: c1
  Charge       = 0
  Multiplicity = 1
  Basis Set: AUG-CC-PVTZ
    Blend: AUG-CC-PVTZ
  Basis Set: (AUG-CC-PVTZ AUX)
    Blend: AUG-CC-PVTZ-JKFIT

    Orbital Energies [Eh]
    ---------------------

    Doubly Occupied:

       1A    -20.637871     2A    -20.565172     3A    -20.525881
       4A    -15.593185     5A    -11.406472     6A    -11.355618
       7A    -11.296447     8A    -11.247241     9A    -11.226694
      10A    -11.219568    11A     -1.479819    12A     -1.381066
      13A     -1.374688    14A     -1.243366    15A     -1.075153
      16A     -1.035067    17A     -0.928528    18A     -0.885651
      19A     -0.814627    20A     -0.786779    21A     -0.731165
      22A     -0.713351    23A     -0.683691    24A     -0.667796
      25A     -0.641591    26A     -0.633624    27A     -0.611293
      28A     -0.604334    29A     -0.574491    30A     -0.547369
      31A     -0.545060    32A     -0.523863    33A     -0.520289
      34A     -0.519685    35A     -0.498599    36A     -0.488709
      37A     -0.468291    38A     -0.428578    39A     -0.401625

  @DF-RHF Final Energy:  -512.88326391157273

   => Energetics <=

    Nuclear Repulsion Energy =            547.9413959837905850
    One-Electron Energy =               -1787.8847250355204324
    Two-Electron Energy =                 727.0600651401572350
    Total Energy =                       -512.8832639115727261
  Basis Set: (AUG-CC-PVTZ AUX)
    Blend: AUG-CC-PVTZ-RI
    Molecular point group: c1

    Geometry (in Angstrom), charge = 0, multiplicity = 1:

       Center              X                  Y                   Z               Mass
    ------------   -----------------  -----------------  -----------------  -----------------
         O           -1.970525494699     1.660751800544    -0.186050980882    15.994914619570
         O            1.668886505301    -1.223035199456     0.642534019118    15.994914619570
         O           -3.291311494699    -0.048526199456     0.493612019118    15.994914619570
         N            0.214135505301     0.267708800544    -0.271128980882    14.003074004430
         C           -0.951014494699    -0.497642199456     0.116359019118    12.000000000000
         C           -1.196764494699    -1.682263199456    -0.819736980882    12.000000000000
         C            2.579054505301     0.806205800544    -0.339140980882    12.000000000000
         C            1.468311505301    -0.148782199456     0.069355019118    12.000000000000
         C           -2.190769494699     0.365271800544     0.183217019118    12.000000000000
         C            3.950726505301     0.331470800544     0.114125019118    12.000000000000
         H           -0.783794494699    -0.890316199456     1.127588019118     1.007825032230
         H            0.066108905301     1.282552200544    -0.466317780882     1.007825032230
         H           -1.351479494699    -1.328919199456    -1.842136980882     1.007825032230
         H           -0.323833494699    -2.335299199456    -0.792807980882     1.007825032230
         H           -2.078745494699    -2.236742199456    -0.493634980882     1.007825032230
         H            2.548049505301     0.916141800544    -1.430143980882     1.007825032230
         H            2.355544505301     1.798459800544     0.072104019118     1.007825032230
         H            4.178270505301    -0.648041199456    -0.308240980882     1.007825032230
         H            4.719517505301     1.039811800544    -0.206309980882     1.007825032230
         H            3.990398505301     0.240795800544     1.200431019118     1.007825032230
         H           -2.846142494699     2.097117800544    -0.125171980882     1.007825032230

  Basis Set: AUG-CC-PVTZ
    Blend: AUG-CC-PVTZ
  Basis Set: (AUG-CC-PVTZ AUX)
    Blend: AUG-CC-PVTZ-JKFIT
	 Reference Energy          =    -512.8832639115727261 [Eh]
	 Singles Energy            =      -0.0000000000000000 [Eh]
	 Same-Spin Energy          =      -0.5116581303108613 [Eh]
	 Opposite-Spin Energy      =      -1.6157302060233447 [Eh]
	 Correlation Energy        =      -2.1273883363342061 [Eh]
	 Total Energy              =    -515.0106522479069326 [Eh]

	 ================> DF-SCS-MP2 Energies <==================
	-----------------------------------------------------------
	 SCS Same-Spin Scale       =       0.3333333333333333 [-]
	 SCS Opposite-Spin Scale   =       1.2000000000000000 [-]
	 SCS Same-Spin Energy      =      -0.1705527101036204 [Eh]
	 SCS Opposite-Spin Energy  =      -1.9388762472280137 [Eh]
	 SCS Correlation Energy    =      -2.1094289573316343 [Eh]
	 SCS Total Energy          =    -514.9926928689043280 [Eh]
	-----------------------------------------------------------

  Dipole Moment: [D]
     X:    -0.1007      Y:     3.4380      Z:    -1.6352     Total:     3.8084

*** Psi4 exiting successfully. Buy a developer a beer!
