                               Psi4 1.4a2.dev612

  ==> Input File <==

--------------------------------------------------------------------------
#psi4
#
memory 32 gb

molecule  {
0 1
  O       -1.9705880     1.6613530    -0.1848000
  O        1.6688240    -1.2224340     0.6437850
  O       -3.2913740    -0.0479250     0.4948630
  N        0.2140730     0.2683100    -0.2698780
  C       -0.9510770    -0.4970410     0.1176100
  C       -1.1968270    -1.6816620    -0.8184860
  C        2.5789920     0.8068070    -0.3378900
  C        1.4682490    -0.1481810     0.0706060
  C       -2.1908320     0.3658730     0.1844680
  C        3.9506640     0.3320720     0.1153760
  H       -0.7838570    -0.8897150     1.1288390
  H        0.0705367     1.2398817    -0.5551079
  H       -1.3515420    -1.3283180    -1.8408860
  H       -0.3238960    -2.3346980    -0.7915570
  H       -2.0788080    -2.2361410    -0.4923840
  H        2.5479870     0.9167430    -1.4288930
  H        2.3554820     1.7990610     0.0733550
  H        4.1782080    -0.6474400    -0.3069900
  H        4.7194550     1.0404130    -0.2050590
  H        3.9903360     0.2413970     1.2016820
  H       -2.8462050     2.0977190    -0.1239210
units angstrom
no_reorient  #important for SAPT in psi4, default
symmetry c1  #important for SAPT in psi4, default
}

set PROPERTIES_ORIGIN ["COM"]
properties('MP2/aug-cc-pvtz', properties = ['dipole'])
--------------------------------------------------------------------------

    Molecular point group: c1
  Charge       = 0
  Multiplicity = 1
  Basis Set: AUG-CC-PVTZ
    Blend: AUG-CC-PVTZ
  Basis Set: (AUG-CC-PVTZ AUX)
    Blend: AUG-CC-PVTZ-JKFIT

    Orbital Energies [Eh]
    ---------------------

    Doubly Occupied:

       1A    -20.637340     2A    -20.564940     3A    -20.525121
       4A    -15.592114     5A    -11.406187     6A    -11.355765
       7A    -11.296870     8A    -11.247270     9A    -11.226749
      10A    -11.219581    11A     -1.479332    12A     -1.380774
      13A     -1.374333    14A     -1.245122    15A     -1.075391
      16A     -1.035514    17A     -0.928450    18A     -0.885817
      19A     -0.815891    20A     -0.790515    21A     -0.731271
      22A     -0.714374    23A     -0.683254    24A     -0.667130
      25A     -0.641485    26A     -0.633830    27A     -0.611032
      28A     -0.603728    29A     -0.577863    30A     -0.547355
      31A     -0.544780    32A     -0.524176    33A     -0.520804
      34A     -0.519852    35A     -0.498254    36A     -0.488630
      37A     -0.468410    38A     -0.428346    39A     -0.400855

  @DF-RHF Final Energy:  -512.88527414625275

   => Energetics <=

    Nuclear Repulsion Energy =            548.0124256257795423
    One-Electron Energy =               -1788.0183841520215537
    Two-Electron Energy =                 727.1206843799892567
    Total Energy =                       -512.8852741462527547
  Basis Set: (AUG-CC-PVTZ AUX)
    Blend: AUG-CC-PVTZ-RI
    Molecular point group: c1

    Geometry (in Angstrom), charge = 0, multiplicity = 1:

       Center              X                  Y                   Z               Mass
    ------------   -----------------  -----------------  -----------------  -----------------
         O           -1.970556688711     1.661052408058    -0.185425467411    15.994914619570
         O            1.668855311289    -1.222734591942     0.643159532589    15.994914619570
         O           -3.291342688711    -0.048225591942     0.494237532589    15.994914619570
         N            0.214104311289     0.268009408058    -0.270503467411    14.003074004430
         C           -0.951045688711    -0.497341591942     0.116984532589    12.000000000000
         C           -1.196795688711    -1.681962591942    -0.819111467411    12.000000000000
         C            2.579023311289     0.806506408058    -0.338515467411    12.000000000000
         C            1.468280311289    -0.148481591942     0.069980532589    12.000000000000
         C           -2.190800688711     0.365572408058     0.183842532589    12.000000000000
         C            3.950695311289     0.331771408058     0.114750532589    12.000000000000
         H           -0.783825688711    -0.890015591942     1.128213532589     1.007825032230
         H            0.070568011289     1.239581108058    -0.555733367411     1.007825032230
         H           -1.351510688711    -1.328618591942    -1.841511467411     1.007825032230
         H           -0.323864688711    -2.334998591942    -0.792182467411     1.007825032230
         H           -2.078776688711    -2.236441591942    -0.493009467411     1.007825032230
         H            2.548018311289     0.916442408058    -1.429518467411     1.007825032230
         H            2.355513311289     1.798760408058     0.072729532589     1.007825032230
         H            4.178239311289    -0.647740591942    -0.307615467411     1.007825032230
         H            4.719486311289     1.040112408058    -0.205684467411     1.007825032230
         H            3.990367311289     0.241096408058     1.201056532589     1.007825032230
         H           -2.846173688711     2.097418408058    -0.124546467411     1.007825032230

  Basis Set: AUG-CC-PVTZ
    Blend: AUG-CC-PVTZ
  Basis Set: (AUG-CC-PVTZ AUX)
    Blend: AUG-CC-PVTZ-JKFIT
	 Reference Energy          =    -512.8852741462527547 [Eh]
	 Singles Energy            =      -0.0000000000000000 [Eh]
	 Same-Spin Energy          =      -0.5114513011023774 [Eh]
	 Opposite-Spin Energy      =      -1.6152341182929599 [Eh]
	 Correlation Energy        =      -2.1266854193953373 [Eh]
	 Total Energy              =    -515.0119595656481124 [Eh]

	 ================> DF-SCS-MP2 Energies <==================
	-----------------------------------------------------------
	 SCS Same-Spin Scale       =       0.3333333333333333 [-]
	 SCS Opposite-Spin Scale   =       1.2000000000000000 [-]
	 SCS Same-Spin Energy      =      -0.1704837670341258 [Eh]
	 SCS Opposite-Spin Energy  =      -1.9382809419515519 [Eh]
	 SCS Correlation Energy    =      -2.1087647089856776 [Eh]
	 SCS Total Energy          =    -514.9940388552383865 [Eh]
	-----------------------------------------------------------

  Dipole Moment: [D]
     X:    -0.1001      Y:     3.4082      Z:    -1.7478     Total:     3.8315

*** Psi4 exiting successfully. Buy a developer a beer!
