                               Psi4 1.4a2.dev612

  ==> Input File <==

--------------------------------------------------------------------------
#psi4
#
memory 32 gb

molecule  {
0 1
  O       -1.9705880     1.6613530    -0.1848000
  O        1.6688240    -1.2224340     0.6437850
  O       -3.2913740    -0.0479250     0.4948630
  N        0.2140730     0.2683100    -0.2698780
  C       -0.9510770    -0.4970410     0.1176100
  C       -1.1968270    -1.6816620    -0.8184860
  C        2.5829933     0.7836597    -0.3820283
  C        1.4682490    -0.1481810     0.0706060
  C       -2.1908320     0.3658730     0.1844680
  C        3.9506640     0.3320720     0.1153760
  H       -0.7838570    -0.8897150     1.1288390
  H        0.0750270     1.1966100    -0.6451490
  H       -1.3515420    -1.3283180    -1.8408860
  H       -0.3238960    -2.3346980    -0.7915570
  H       -2.0788080    -2.2361410    -0.4923840
  H        2.5479870     0.9167430    -1.4288930
  H        2.3554820     1.7990610     0.0733550
  H        4.1782080    -0.6474400    -0.3069900
  H        4.7194550     1.0404130    -0.2050590
  H        3.9903360     0.2413970     1.2016820
  H       -2.8462050     2.0977190    -0.1239210
units angstrom
no_reorient  #important for SAPT in psi4, default
symmetry c1  #important for SAPT in psi4, default
}

set PROPERTIES_ORIGIN ["COM"]
properties('MP2/aug-cc-pvtz', properties = ['dipole'])
--------------------------------------------------------------------------

    Molecular point group: c1
  Charge       = 0
  Multiplicity = 1
  Basis Set: AUG-CC-PVTZ
    Blend: AUG-CC-PVTZ
  Basis Set: (AUG-CC-PVTZ AUX)
    Blend: AUG-CC-PVTZ-JKFIT

    Orbital Energies [Eh]
    ---------------------

    Doubly Occupied:

       1A    -20.636570     2A    -20.564553     3A    -20.524716
       4A    -15.591687     5A    -11.405696     6A    -11.356077
       7A    -11.297155     8A    -11.247369     9A    -11.226961
      10A    -11.219869    11A     -1.478623    12A     -1.380627
      13A     -1.373802    14A     -1.246129    15A     -1.075381
      16A     -1.035595    17A     -0.928321    18A     -0.886035
      19A     -0.816982    20A     -0.792987    21A     -0.731785
      22A     -0.714758    23A     -0.682544    24A     -0.667547
      25A     -0.640563    26A     -0.632887    27A     -0.610623
      28A     -0.604104    29A     -0.580441    30A     -0.547264
      31A     -0.543478    32A     -0.528050    33A     -0.522975
      34A     -0.517784    35A     -0.495658    36A     -0.487733
      37A     -0.468301    38A     -0.428185    39A     -0.400152

  @DF-RHF Final Energy:  -512.88341095939768

   => Energetics <=

    Nuclear Repulsion Energy =            547.9958966409795948
    One-Electron Energy =               -1787.9786811088049490
    Two-Electron Energy =                 727.0993735084275613
    Total Energy =                       -512.8834109593976791
  Basis Set: (AUG-CC-PVTZ AUX)
    Blend: AUG-CC-PVTZ-RI
    Molecular point group: c1

    Geometry (in Angstrom), charge = 0, multiplicity = 1:

       Center              X                  Y                   Z               Mass
    ------------   -----------------  -----------------  -----------------  -----------------
         O           -1.970918856125     1.663267678465    -0.181148989674    15.994914619570
         O            1.668493143875    -1.220519321535     0.647436010326    15.994914619570
         O           -3.291704856125    -0.046010321535     0.498514010326    15.994914619570
         N            0.213742143875     0.270224678465    -0.266226989674    14.003074004430
         C           -0.951407856125    -0.495126321535     0.121261010326    12.000000000000
         C           -1.197157856125    -1.679747321535    -0.814834989674    12.000000000000
         C            2.582662443875     0.785574378465    -0.378377289674    12.000000000000
         C            1.467918143875    -0.146266321535     0.074257010326    12.000000000000
         C           -2.191162856125     0.367787678465     0.188119010326    12.000000000000
         C            3.950333143875     0.333986678465     0.119027010326    12.000000000000
         H           -0.784187856125    -0.887800321535     1.132490010326     1.007825032230
         H            0.074696143875     1.198524678465    -0.641497989674     1.007825032230
         H           -1.351872856125    -1.326403321535    -1.837234989674     1.007825032230
         H           -0.324226856125    -2.332783321535    -0.787905989674     1.007825032230
         H           -2.079138856125    -2.234226321535    -0.488732989674     1.007825032230
         H            2.547656143875     0.918657678465    -1.425241989674     1.007825032230
         H            2.355151143875     1.800975678465     0.077006010326     1.007825032230
         H            4.177877143875    -0.645525321535    -0.303338989674     1.007825032230
         H            4.719124143875     1.042327678465    -0.201407989674     1.007825032230
         H            3.990005143875     0.243311678465     1.205333010326     1.007825032230
         H           -2.846535856125     2.099633678465    -0.120269989674     1.007825032230

  Basis Set: AUG-CC-PVTZ
    Blend: AUG-CC-PVTZ
  Basis Set: (AUG-CC-PVTZ AUX)
    Blend: AUG-CC-PVTZ-JKFIT
	 Reference Energy          =    -512.8834109593976791 [Eh]
	 Singles Energy            =      -0.0000000000000000 [Eh]
	 Same-Spin Energy          =      -0.5113419907977953 [Eh]
	 Opposite-Spin Energy      =      -1.6150743892394677 [Eh]
	 Correlation Energy        =      -2.1264163800372629 [Eh]
	 Total Energy              =    -515.0098273394349917 [Eh]

	 ================> DF-SCS-MP2 Energies <==================
	-----------------------------------------------------------
	 SCS Same-Spin Scale       =       0.3333333333333333 [-]
	 SCS Opposite-Spin Scale   =       1.2000000000000000 [-]
	 SCS Same-Spin Energy      =      -0.1704473302659318 [Eh]
	 SCS Opposite-Spin Energy  =      -1.9380892670873611 [Eh]
	 SCS Correlation Energy    =      -2.1085365973532930 [Eh]
	 SCS Total Energy          =    -514.9919475567510290 [Eh]
	-----------------------------------------------------------

  Dipole Moment: [D]
     X:    -0.0926      Y:     3.3462      Z:    -1.8818     Total:     3.8401

*** Psi4 exiting successfully. Buy a developer a beer!
