                               Psi4 1.4a2.dev612

  ==> Input File <==

--------------------------------------------------------------------------
#psi4
#
memory 32 gb

molecule  {
0 1
  O       -1.9705880     1.6613530    -0.1848000
  O        1.6688240    -1.2224340     0.6437850
  O       -3.2913740    -0.0479250     0.4948630
  N        0.2140730     0.2683100    -0.2698780
  C       -0.9510770    -0.4970410     0.1176100
  C       -1.1968270    -1.6816620    -0.8184860
  C        2.5789920     0.8068070    -0.3378900
  C        1.4682490    -0.1481810     0.0706060
  C       -2.1908320     0.3658730     0.1844680
  C        3.9506640     0.3320720     0.1153760
  H       -0.7838570    -0.8897150     1.1288390
  H        0.0750270     1.1966100    -0.6451490
  H       -1.3515420    -1.3283180    -1.8408860
  H       -0.3238960    -2.3346980    -0.7915570
  H       -2.0788080    -2.2361410    -0.4923840
  H        2.5479870     0.9167430    -1.4288930
  H        2.3554820     1.7990610     0.0733550
  H        4.1782080    -0.6474400    -0.3069900
  H        4.7194550     1.0404130    -0.2050590
  H        3.9903360     0.2413970     1.2016820
  H       -2.8462050     2.0977190    -0.1239210
units angstrom
no_reorient  #important for SAPT in psi4, default
symmetry c1  #important for SAPT in psi4, default
}

set PROPERTIES_ORIGIN ["COM"]
properties('MP2/aug-cc-pvtz', properties = ['dipole'])
--------------------------------------------------------------------------

    Molecular point group: c1
  Charge       = 0
  Multiplicity = 1
  Basis Set: AUG-CC-PVTZ
    Blend: AUG-CC-PVTZ
  Basis Set: (AUG-CC-PVTZ AUX)
    Blend: AUG-CC-PVTZ-JKFIT

    Orbital Energies [Eh]
    ---------------------

    Doubly Occupied:

       1A    -20.636629     2A    -20.564604     3A    -20.524612
       4A    -15.591621     5A    -11.405756     6A    -11.355909
       7A    -11.297181     8A    -11.247262     9A    -11.226847
      10A    -11.219576    11A     -1.478678    12A     -1.380564
      13A     -1.373851    14A     -1.246098    15A     -1.075524
      16A     -1.035762    17A     -0.928275    18A     -0.885922
      19A     -0.816942    20A     -0.792649    21A     -0.731055
      22A     -0.714785    23A     -0.682814    24A     -0.666088
      25A     -0.641441    26A     -0.633911    27A     -0.610644
      28A     -0.602762    29A     -0.580961    30A     -0.547310
      31A     -0.544480    32A     -0.524419    33A     -0.521259
      34A     -0.519803    35A     -0.497817    36A     -0.488530
      37A     -0.468447    38A     -0.428225    39A     -0.400161

  @DF-RHF Final Energy:  -512.88605245182248

   => Energetics <=

    Nuclear Repulsion Energy =            548.0340968306204559
    One-Electron Energy =               -1788.0619538439336793
    Two-Electron Energy =                 727.1418045614907442
    Total Energy =                       -512.8860524518224793
  Basis Set: (AUG-CC-PVTZ AUX)
    Blend: AUG-CC-PVTZ-RI
    Molecular point group: c1

    Geometry (in Angstrom), charge = 0, multiplicity = 1:

       Center              X                  Y                   Z               Mass
    ------------   -----------------  -----------------  -----------------  -----------------
         O           -1.970587882723     1.661353015573    -0.184799953940    15.994914619570
         O            1.668824117277    -1.222433984427     0.643785046060    15.994914619570
         O           -3.291373882723    -0.047924984427     0.494863046060    15.994914619570
         N            0.214073117277     0.268310015573    -0.269877953940    14.003074004430
         C           -0.951076882723    -0.497040984427     0.117610046060    12.000000000000
         C           -1.196826882723    -1.681661984427    -0.818485953940    12.000000000000
         C            2.578992117277     0.806807015573    -0.337889953940    12.000000000000
         C            1.468249117277    -0.148180984427     0.070606046060    12.000000000000
         C           -2.190831882723     0.365873015573     0.184468046060    12.000000000000
         C            3.950664117277     0.332072015573     0.115376046060    12.000000000000
         H           -0.783856882723    -0.889714984427     1.128839046060     1.007825032230
         H            0.075027117277     1.196610015573    -0.645148953940     1.007825032230
         H           -1.351541882723    -1.328317984427    -1.840885953940     1.007825032230
         H           -0.323895882723    -2.334697984427    -0.791556953940     1.007825032230
         H           -2.078807882723    -2.236140984427    -0.492383953940     1.007825032230
         H            2.547987117277     0.916743015573    -1.428892953940     1.007825032230
         H            2.355482117277     1.799061015573     0.073355046060     1.007825032230
         H            4.178208117277    -0.647439984427    -0.306989953940     1.007825032230
         H            4.719455117277     1.040413015573    -0.205058953940     1.007825032230
         H            3.990336117277     0.241397015573     1.201682046060     1.007825032230
         H           -2.846204882723     2.097719015573    -0.123920953940     1.007825032230

  Basis Set: AUG-CC-PVTZ
    Blend: AUG-CC-PVTZ
  Basis Set: (AUG-CC-PVTZ AUX)
    Blend: AUG-CC-PVTZ-JKFIT
	 Reference Energy          =    -512.8860524518224793 [Eh]
	 Singles Energy            =      -0.0000000000000000 [Eh]
	 Same-Spin Energy          =      -0.5113226436960018 [Eh]
	 Opposite-Spin Energy      =      -1.6149329459702397 [Eh]
	 Correlation Energy        =      -2.1262555896662416 [Eh]
	 Total Energy              =    -515.0123080414887227 [Eh]

	 ================> DF-SCS-MP2 Energies <==================
	-----------------------------------------------------------
	 SCS Same-Spin Scale       =       0.3333333333333333 [-]
	 SCS Opposite-Spin Scale   =       1.2000000000000000 [-]
	 SCS Same-Spin Energy      =      -0.1704408812320006 [Eh]
	 SCS Opposite-Spin Energy  =      -1.9379195351642875 [Eh]
	 SCS Correlation Energy    =      -2.1083604163962879 [Eh]
	 SCS Total Energy          =    -514.9944128682187738 [Eh]
	-----------------------------------------------------------

  Dipole Moment: [D]
     X:    -0.0927      Y:     3.3684      Z:    -1.8599     Total:     3.8489

*** Psi4 exiting successfully. Buy a developer a beer!
