                               Psi4 1.4a2.dev612

  ==> Input File <==

--------------------------------------------------------------------------
#psi4
#
memory 32 gb

molecule  {
0 1
  O       -1.9705880     1.6613530    -0.1848000
  O        1.6688240    -1.2224340     0.6437850
  O       -3.2913740    -0.0479250     0.4948630
  N        0.2140730     0.2683100    -0.2698780
  C       -0.9510770    -0.4970410     0.1176100
  C       -1.1968270    -1.6816620    -0.8184860
  C        2.5949973     0.7142179    -0.5144434
  C        1.4682490    -0.1481810     0.0706060
  C       -2.1908320     0.3658730     0.1844680
  C        3.9506640     0.3320720     0.1153760
  H       -0.7838570    -0.8897150     1.1288390
  H        0.0750270     1.1966100    -0.6451490
  H       -1.3515420    -1.3283180    -1.8408860
  H       -0.3238960    -2.3346980    -0.7915570
  H       -2.0788080    -2.2361410    -0.4923840
  H        2.5479870     0.9167430    -1.4288930
  H        2.3554820     1.7990610     0.0733550
  H        4.1782080    -0.6474400    -0.3069900
  H        4.7194550     1.0404130    -0.2050590
  H        3.9903360     0.2413970     1.2016820
  H       -2.8462050     2.0977190    -0.1239210
units angstrom
no_reorient  #important for SAPT in psi4, default
symmetry c1  #important for SAPT in psi4, default
}

set PROPERTIES_ORIGIN ["COM"]
properties('MP2/aug-cc-pvtz', properties = ['dipole'])
--------------------------------------------------------------------------

    Molecular point group: c1
  Charge       = 0
  Multiplicity = 1
  Basis Set: AUG-CC-PVTZ
    Blend: AUG-CC-PVTZ
  Basis Set: (AUG-CC-PVTZ AUX)
    Blend: AUG-CC-PVTZ-JKFIT

    Orbital Energies [Eh]
    ---------------------

    Doubly Occupied:

       1A    -20.636335     2A    -20.564394     3A    -20.525840
       4A    -15.591852     5A    -11.405514     6A    -11.359130
       7A    -11.297123     8A    -11.251249     9A    -11.227349
      10A    -11.223239    11A     -1.478417    12A     -1.381392
      13A     -1.373638    14A     -1.246341    15A     -1.075113
      16A     -1.035593    17A     -0.928453    18A     -0.888701
      19A     -0.817900    20A     -0.797662    21A     -0.739033
      22A     -0.714777    23A     -0.688556    24A     -0.670654
      25A     -0.637614    26A     -0.624317    27A     -0.611285
      28A     -0.607001    29A     -0.579038    30A     -0.550516
      31A     -0.546286    32A     -0.541433    33A     -0.525197
      34A     -0.514381    35A     -0.492888    36A     -0.470146
      37A     -0.462084    38A     -0.426477    39A     -0.399804

  @DF-RHF Final Energy:  -512.84207172038407

   => Energetics <=

    Nuclear Repulsion Energy =            547.7134180530624690
    One-Electron Energy =               -1787.2975408576467089
    Two-Electron Energy =                 726.7420510842001704
    Total Energy =                       -512.8420717203840695
  Basis Set: (AUG-CC-PVTZ AUX)
    Blend: AUG-CC-PVTZ-RI
    Molecular point group: c1

    Geometry (in Angstrom), charge = 0, multiplicity = 1:

       Center              X                  Y                   Z               Mass
    ------------   -----------------  -----------------  -----------------  -----------------
         O           -1.971911784603     1.669011658871    -0.170196080334    15.994914619570
         O            1.667500215397    -1.214775341129     0.658388919666    15.994914619570
         O           -3.292697784603    -0.040266341129     0.509466919666    15.994914619570
         N            0.212749215397     0.275968658871    -0.255274080334    14.003074004430
         C           -0.952400784603    -0.489382341129     0.132213919666    12.000000000000
         C           -1.198150784603    -1.674003341129    -0.803882080334    12.000000000000
         C            2.593673515397     0.721876558871    -0.499839480334    12.000000000000
         C            1.466925215397    -0.140522341129     0.085209919666    12.000000000000
         C           -2.192155784603     0.373531658871     0.199071919666    12.000000000000
         C            3.949340215397     0.339730658871     0.129979919666    12.000000000000
         H           -0.785180784603    -0.882056341129     1.143442919666     1.007825032230
         H            0.073703215397     1.204268658871    -0.630545080334     1.007825032230
         H           -1.352865784603    -1.320659341129    -1.826282080334     1.007825032230
         H           -0.325219784603    -2.327039341129    -0.776953080334     1.007825032230
         H           -2.080131784603    -2.228482341129    -0.477780080334     1.007825032230
         H            2.546663215397     0.924401658871    -1.414289080334     1.007825032230
         H            2.354158215397     1.806719658871     0.087958919666     1.007825032230
         H            4.176884215397    -0.639781341129    -0.292386080334     1.007825032230
         H            4.718131215397     1.048071658871    -0.190455080334     1.007825032230
         H            3.989012215397     0.249055658871     1.216285919666     1.007825032230
         H           -2.847528784603     2.105377658871    -0.109317080334     1.007825032230

  Basis Set: AUG-CC-PVTZ
    Blend: AUG-CC-PVTZ
  Basis Set: (AUG-CC-PVTZ AUX)
    Blend: AUG-CC-PVTZ-JKFIT
	 Reference Energy          =    -512.8420717203840695 [Eh]
	 Singles Energy            =      -0.0000000000000000 [Eh]
	 Same-Spin Energy          =      -0.5118165717045390 [Eh]
	 Opposite-Spin Energy      =      -1.6170570430595239 [Eh]
	 Correlation Energy        =      -2.1288736147640628 [Eh]
	 Total Energy              =    -514.9709453351481443 [Eh]

	 ================> DF-SCS-MP2 Energies <==================
	-----------------------------------------------------------
	 SCS Same-Spin Scale       =       0.3333333333333333 [-]
	 SCS Opposite-Spin Scale   =       1.2000000000000000 [-]
	 SCS Same-Spin Energy      =      -0.1706055239015130 [Eh]
	 SCS Opposite-Spin Energy  =      -1.9404684516714286 [Eh]
	 SCS Correlation Energy    =      -2.1110739755729417 [Eh]
	 SCS Total Energy          =    -514.9531456959570050 [Eh]
	-----------------------------------------------------------

  Dipole Moment: [D]
     X:    -0.0801      Y:     3.2408      Z:    -1.9178     Total:     3.7666

*** Psi4 exiting successfully. Buy a developer a beer!
