                               Psi4 1.4a2.dev612

  ==> Input File <==

--------------------------------------------------------------------------
#psi4
#
memory 32 gb

molecule  {
0 1
  O       -1.9705880     1.6613530    -0.1848000
  O        1.6688240    -1.2224340     0.6437850
  O       -3.2913740    -0.0479250     0.4948630
  N        0.2140730     0.2683100    -0.2698780
  C       -0.9510770    -0.4970410     0.1176100
  C       -1.1968270    -1.6816620    -0.8184860
  C        2.5789920     0.8068070    -0.3378900
  C        1.4682490    -0.1481810     0.0706060
  C       -2.1908320     0.3658730     0.1844680
  C        3.9506640     0.3320720     0.1153760
  H       -0.7838570    -0.8897150     1.1288390
  H        0.0615561     1.3264251    -0.3750257
  H       -1.3515420    -1.3283180    -1.8408860
  H       -0.3238960    -2.3346980    -0.7915570
  H       -2.0788080    -2.2361410    -0.4923840
  H        2.5479870     0.9167430    -1.4288930
  H        2.3554820     1.7990610     0.0733550
  H        4.1782080    -0.6474400    -0.3069900
  H        4.7194550     1.0404130    -0.2050590
  H        3.9903360     0.2413970     1.2016820
  H       -2.8462050     2.0977190    -0.1239210
units angstrom
no_reorient  #important for SAPT in psi4, default
symmetry c1  #important for SAPT in psi4, default
}

set PROPERTIES_ORIGIN ["COM"]
properties('MP2/aug-cc-pvtz', properties = ['dipole'])
--------------------------------------------------------------------------

    Molecular point group: c1
  Charge       = 0
  Multiplicity = 1
  Basis Set: AUG-CC-PVTZ
    Blend: AUG-CC-PVTZ
  Basis Set: (AUG-CC-PVTZ AUX)
    Blend: AUG-CC-PVTZ-JKFIT

    Orbital Energies [Eh]
    ---------------------

    Doubly Occupied:

       1A    -20.638230     2A    -20.565310     3A    -20.526826
       4A    -15.594755     5A    -11.406620     6A    -11.355471
       7A    -11.295952     8A    -11.247161     9A    -11.226683
      10A    -11.219529    11A     -1.480146    12A     -1.381420
      13A     -1.374923    14A     -1.241007    15A     -1.074829
      16A     -1.034463    17A     -0.928511    18A     -0.885441
      19A     -0.813501    20A     -0.781764    21A     -0.730800
      22A     -0.711597    23A     -0.684098    24A     -0.668062
      25A     -0.641703    26A     -0.633358    27A     -0.611424
      28A     -0.604507    29A     -0.570939    30A     -0.547348
      31A     -0.545314    32A     -0.523501    33A     -0.520114
      34A     -0.518773    35A     -0.498849    36A     -0.488769
      37A     -0.468094    38A     -0.428880    39A     -0.402432

  @DF-RHF Final Energy:  -512.87937937203219

   => Energetics <=

    Nuclear Repulsion Energy =            547.8264083932879203
    One-Electron Energy =               -1787.6693705079921983
    Two-Electron Energy =                 726.9635827426720880
    Total Energy =                       -512.8793793720321901
  Basis Set: (AUG-CC-PVTZ AUX)
    Blend: AUG-CC-PVTZ-RI
    Molecular point group: c1

    Geometry (in Angstrom), charge = 0, multiplicity = 1:

       Center              X                  Y                   Z               Mass
    ------------   -----------------  -----------------  -----------------  -----------------
         O           -1.970494300687     1.660451193029    -0.186676494353    15.994914619570
         O            1.668917699313    -1.223335806971     0.641908505647    15.994914619570
         O           -3.291280300687    -0.048826806971     0.492986505647    15.994914619570
         N            0.214166699313     0.267408193029    -0.271754494353    14.003074004430
         C           -0.950983300687    -0.497942806971     0.115733505647    12.000000000000
         C           -1.196733300687    -1.682563806971    -0.820362494353    12.000000000000
         C            2.579085699313     0.805905193029    -0.339766494353    12.000000000000
         C            1.468342699313    -0.149082806971     0.068729505647    12.000000000000
         C           -2.190738300687     0.364971193029     0.182591505647    12.000000000000
         C            3.950757699313     0.331170193029     0.113499505647    12.000000000000
         H           -0.783763300687    -0.890616806971     1.126962505647     1.007825032230
         H            0.061649799313     1.325523293029    -0.376902194353     1.007825032230
         H           -1.351448300687    -1.329219806971    -1.842762494353     1.007825032230
         H           -0.323802300687    -2.335599806971    -0.793433494353     1.007825032230
         H           -2.078714300687    -2.237042806971    -0.494260494353     1.007825032230
         H            2.548080699313     0.915841193029    -1.430769494353     1.007825032230
         H            2.355575699313     1.798159193029     0.071478505647     1.007825032230
         H            4.178301699313    -0.648341806971    -0.308866494353     1.007825032230
         H            4.719548699313     1.039511193029    -0.206935494353     1.007825032230
         H            3.990429699313     0.240495193029     1.199805505647     1.007825032230
         H           -2.846111300687     2.096817193029    -0.125797494353     1.007825032230

  Basis Set: AUG-CC-PVTZ
    Blend: AUG-CC-PVTZ
  Basis Set: (AUG-CC-PVTZ AUX)
    Blend: AUG-CC-PVTZ-JKFIT
	 Reference Energy          =    -512.8793793720321901 [Eh]
	 Singles Energy            =      -0.0000000000000000 [Eh]
	 Same-Spin Energy          =      -0.5119406336027893 [Eh]
	 Opposite-Spin Energy      =      -1.6164222478993757 [Eh]
	 Correlation Energy        =      -2.1283628815021651 [Eh]
	 Total Energy              =    -515.0077422535343885 [Eh]

	 ================> DF-SCS-MP2 Energies <==================
	-----------------------------------------------------------
	 SCS Same-Spin Scale       =       0.3333333333333333 [-]
	 SCS Opposite-Spin Scale   =       1.2000000000000000 [-]
	 SCS Same-Spin Energy      =      -0.1706468778675964 [Eh]
	 SCS Opposite-Spin Energy  =      -1.9397066974792507 [Eh]
	 SCS Correlation Energy    =      -2.1103535753468470 [Eh]
	 SCS Total Energy          =    -514.9897329473790251 [Eh]
	-----------------------------------------------------------

  Dipole Moment: [D]
     X:    -0.0963      Y:     3.4587      Z:    -1.5236     Total:     3.7806

*** Psi4 exiting successfully. Buy a developer a beer!
