                               Psi4 1.4a2.dev612

  ==> Input File <==

--------------------------------------------------------------------------
#psi4
#
memory 32 gb

molecule  {
0 1
  O       -1.9705880     1.6613530    -0.1848000
  O        1.6688240    -1.2224340     0.6437850
  O       -3.2913740    -0.0479250     0.4948630
  N        0.2140730     0.2683100    -0.2698780
  C       -0.9510770    -0.4970410     0.1176100
  C       -1.1968270    -1.6816620    -0.8184860
  C        2.5989986     0.6910707    -0.5585817
  C        1.4682490    -0.1481810     0.0706060
  C       -2.1908320     0.3658730     0.1844680
  C        3.9506640     0.3320720     0.1153760
  H       -0.7838570    -0.8897150     1.1288390
  H        0.0750270     1.1966100    -0.6451490
  H       -1.3515420    -1.3283180    -1.8408860
  H       -0.3238960    -2.3346980    -0.7915570
  H       -2.0788080    -2.2361410    -0.4923840
  H        2.5479870     0.9167430    -1.4288930
  H        2.3554820     1.7990610     0.0733550
  H        4.1782080    -0.6474400    -0.3069900
  H        4.7194550     1.0404130    -0.2050590
  H        3.9903360     0.2413970     1.2016820
  H       -2.8462050     2.0977190    -0.1239210
units angstrom
no_reorient  #important for SAPT in psi4, default
symmetry c1  #important for SAPT in psi4, default
}

set PROPERTIES_ORIGIN ["COM"]
properties('MP2/aug-cc-pvtz', properties = ['dipole'])
--------------------------------------------------------------------------

    Molecular point group: c1
  Charge       = 0
  Multiplicity = 1
  Basis Set: AUG-CC-PVTZ
    Blend: AUG-CC-PVTZ
  Basis Set: (AUG-CC-PVTZ AUX)
    Blend: AUG-CC-PVTZ-JKFIT

    Orbital Energies [Eh]
    ---------------------

    Doubly Occupied:

       1A    -20.636241     2A    -20.564342     3A    -20.526477
       4A    -15.591900     5A    -11.405457     6A    -11.360964
       7A    -11.297130     8A    -11.253724     9A    -11.227493
      10A    -11.225131    11A     -1.478338    12A     -1.381830
      13A     -1.373579    14A     -1.246453    15A     -1.075121
      16A     -1.035822    17A     -0.928505    18A     -0.890670
      19A     -0.818686    20A     -0.800324    21A     -0.742391
      22A     -0.714789    23A     -0.691192    24A     -0.670787
      25A     -0.637305    26A     -0.620664    27A     -0.611941
      28A     -0.607186    29A     -0.578912    30A     -0.556000
      31A     -0.547079    32A     -0.541215    33A     -0.525780
      34A     -0.512877    35A     -0.492817    36A     -0.469247
      37A     -0.453735    38A     -0.424968    39A     -0.399470

  @DF-RHF Final Energy:  -512.81630078539081

   => Energetics <=

    Nuclear Repulsion Energy =            547.5662520740714854
    One-Electron Energy =               -1786.9320191449414779
    Two-Electron Energy =                 726.5494662854790704
    Total Energy =                       -512.8163007853908084
  Basis Set: (AUG-CC-PVTZ AUX)
    Blend: AUG-CC-PVTZ-RI
    Molecular point group: c1

    Geometry (in Angstrom), charge = 0, multiplicity = 1:

       Center              X                  Y                   Z               Mass
    ------------   -----------------  -----------------  -----------------  -----------------
         O           -1.972242758005     1.670926313491    -0.166545116069    15.994914619570
         O            1.667169241995    -1.212860686509     0.662039883931    15.994914619570
         O           -3.293028758005    -0.038351686509     0.513117883931    15.994914619570
         N            0.212418241995     0.277883313491    -0.251623116069    14.003074004430
         C           -0.952731758005    -0.487467686509     0.135864883931    12.000000000000
         C           -1.198481758005    -1.672088686509    -0.800231116069    12.000000000000
         C            2.597343841995     0.700644013491    -0.540326816069    12.000000000000
         C            1.466594241995    -0.138607686509     0.088860883931    12.000000000000
         C           -2.192486758005     0.375446313491     0.202722883931    12.000000000000
         C            3.949009241995     0.341645313491     0.133630883931    12.000000000000
         H           -0.785511758005    -0.880141686509     1.147093883931     1.007825032230
         H            0.073372241995     1.206183313491    -0.626894116069     1.007825032230
         H           -1.353196758005    -1.318744686509    -1.822631116069     1.007825032230
         H           -0.325550758005    -2.325124686509    -0.773302116069     1.007825032230
         H           -2.080462758005    -2.226567686509    -0.474129116069     1.007825032230
         H            2.546332241995     0.926316313491    -1.410638116069     1.007825032230
         H            2.353827241995     1.808634313491     0.091609883931     1.007825032230
         H            4.176553241995    -0.637866686509    -0.288735116069     1.007825032230
         H            4.717800241995     1.049986313491    -0.186804116069     1.007825032230
         H            3.988681241995     0.250970313491     1.219936883931     1.007825032230
         H           -2.847859758005     2.107292313491    -0.105666116069     1.007825032230

  Basis Set: AUG-CC-PVTZ
    Blend: AUG-CC-PVTZ
  Basis Set: (AUG-CC-PVTZ AUX)
    Blend: AUG-CC-PVTZ-JKFIT
	 Reference Energy          =    -512.8163007853908084 [Eh]
	 Singles Energy            =      -0.0000000000000000 [Eh]
	 Same-Spin Energy          =      -0.5121221619393497 [Eh]
	 Opposite-Spin Energy      =      -1.6182684785648211 [Eh]
	 Correlation Energy        =      -2.1303906405041708 [Eh]
	 Total Energy              =    -514.9466914258949828 [Eh]

	 ================> DF-SCS-MP2 Energies <==================
	-----------------------------------------------------------
	 SCS Same-Spin Scale       =       0.3333333333333333 [-]
	 SCS Opposite-Spin Scale   =       1.2000000000000000 [-]
	 SCS Same-Spin Energy      =      -0.1707073873131165 [Eh]
	 SCS Opposite-Spin Energy  =      -1.9419221742777852 [Eh]
	 SCS Correlation Energy    =      -2.1126295615909019 [Eh]
	 SCS Total Energy          =    -514.9289303469817014 [Eh]
	-----------------------------------------------------------

  Dipole Moment: [D]
     X:    -0.0733      Y:     3.1958      Z:    -1.9199     Total:     3.7289

*** Psi4 exiting successfully. Buy a developer a beer!
