                               Psi4 1.4a2.dev612

  ==> Input File <==

--------------------------------------------------------------------------
#psi4
#
memory 32 gb

molecule  {
0 1
  O       -1.9705880     1.6613530    -0.1848000
  O        1.6688240    -1.2224340     0.6437850
  O       -3.2913740    -0.0479250     0.4948630
  N        0.2140730     0.2683100    -0.2698780
  C       -0.9116231    -0.4516793     0.3083604
  C       -1.1968270    -1.6816620    -0.8184860
  C        2.5789920     0.8068070    -0.3378900
  C        1.4682490    -0.1481810     0.0706060
  C       -2.1908320     0.3658730     0.1844680
  C        3.9506640     0.3320720     0.1153760
  H       -0.7838570    -0.8897150     1.1288390
  H        0.0750270     1.1966100    -0.6451490
  H       -1.3515420    -1.3283180    -1.8408860
  H       -0.3238960    -2.3346980    -0.7915570
  H       -2.0788080    -2.2361410    -0.4923840
  H        2.5479870     0.9167430    -1.4288930
  H        2.3554820     1.7990610     0.0733550
  H        4.1782080    -0.6474400    -0.3069900
  H        4.7194550     1.0404130    -0.2050590
  H        3.9903360     0.2413970     1.2016820
  H       -2.8462050     2.0977190    -0.1239210
units angstrom
no_reorient  #important for SAPT in psi4, default
symmetry c1  #important for SAPT in psi4, default
}

set PROPERTIES_ORIGIN ["COM"]
properties('MP2/aug-cc-pvtz', properties = ['dipole'])
--------------------------------------------------------------------------

    Molecular point group: c1
  Charge       = 0
  Multiplicity = 1
  Basis Set: AUG-CC-PVTZ
    Blend: AUG-CC-PVTZ
  Basis Set: (AUG-CC-PVTZ AUX)
    Blend: AUG-CC-PVTZ-JKFIT

    Orbital Energies [Eh]
    ---------------------

    Doubly Occupied:

       1A    -20.636290     2A    -20.562939     3A    -20.525417
       4A    -15.593367     5A    -11.407367     6A    -11.355277
       7A    -11.294350     8A    -11.247020     9A    -11.233569
      10A    -11.219601    11A     -1.477918    12A     -1.381652
      13A     -1.372863    14A     -1.244299    15A     -1.070250
      16A     -1.026965    17A     -0.918651    18A     -0.885038
      19A     -0.841188    20A     -0.791663    21A     -0.726150
      22A     -0.714259    23A     -0.688296    24A     -0.671703
      25A     -0.642693    26A     -0.640650    27A     -0.614060
      28A     -0.600729    29A     -0.575314    30A     -0.551478
      31A     -0.538969    32A     -0.530441    33A     -0.520260
      34A     -0.511236    35A     -0.496809    36A     -0.483338
      37A     -0.469736    38A     -0.428960    39A     -0.388344

  @DF-RHF Final Energy:  -512.84646681792515

   => Energetics <=

    Nuclear Repulsion Energy =            547.1559128586426368
    One-Electron Energy =               -1786.2465414821424474
    Two-Electron Energy =                 726.2441618055747767
    Total Energy =                       -512.8464668179251476
  Basis Set: (AUG-CC-PVTZ AUX)
    Blend: AUG-CC-PVTZ-RI
    Molecular point group: c1

    Geometry (in Angstrom), charge = 0, multiplicity = 1:

       Center              X                  Y                   Z               Mass
    ------------   -----------------  -----------------  -----------------  -----------------
         O           -1.973851369967     1.657600855981    -0.200578153237    15.994914619570
         O            1.665560630033    -1.226186144019     0.628006846763    15.994914619570
         O           -3.294637369967    -0.051677144019     0.479084846763    15.994914619570
         N            0.210809630033     0.264557855981    -0.285656153237    14.003074004430
         C           -0.914886469967    -0.455431444019     0.292582246763    12.000000000000
         C           -1.200090369967    -1.685414144019    -0.834264153237    12.000000000000
         C            2.575728630033     0.803054855981    -0.353668153237    12.000000000000
         C            1.464985630033    -0.151933144019     0.054827846763    12.000000000000
         C           -2.194095369967     0.362120855981     0.168689846763    12.000000000000
         C            3.947400630033     0.328319855981     0.099597846763    12.000000000000
         H           -0.787120369967    -0.893467144019     1.113060846763     1.007825032230
         H            0.071763630033     1.192857855981    -0.660927153237     1.007825032230
         H           -1.354805369967    -1.332070144019    -1.856664153237     1.007825032230
         H           -0.327159369967    -2.338450144019    -0.807335153237     1.007825032230
         H           -2.082071369967    -2.239893144019    -0.508162153237     1.007825032230
         H            2.544723630033     0.912990855981    -1.444671153237     1.007825032230
         H            2.352218630033     1.795308855981     0.057576846763     1.007825032230
         H            4.174944630033    -0.651192144019    -0.322768153237     1.007825032230
         H            4.716191630033     1.036660855981    -0.220837153237     1.007825032230
         H            3.987072630033     0.237644855981     1.185903846763     1.007825032230
         H           -2.849468369967     2.093966855981    -0.139699153237     1.007825032230

  Basis Set: AUG-CC-PVTZ
    Blend: AUG-CC-PVTZ
  Basis Set: (AUG-CC-PVTZ AUX)
    Blend: AUG-CC-PVTZ-JKFIT
	 Reference Energy          =    -512.8464668179251476 [Eh]
	 Singles Energy            =      -0.0000000000000000 [Eh]
	 Same-Spin Energy          =      -0.5111764770290999 [Eh]
	 Opposite-Spin Energy      =      -1.6161752603995518 [Eh]
	 Correlation Energy        =      -2.1273517374286515 [Eh]
	 Total Energy              =    -514.9738185553537733 [Eh]

	 ================> DF-SCS-MP2 Energies <==================
	-----------------------------------------------------------
	 SCS Same-Spin Scale       =       0.3333333333333333 [-]
	 SCS Opposite-Spin Scale   =       1.2000000000000000 [-]
	 SCS Same-Spin Energy      =      -0.1703921590097000 [Eh]
	 SCS Opposite-Spin Energy  =      -1.9394103124794622 [Eh]
	 SCS Correlation Energy    =      -2.1098024714891621 [Eh]
	 SCS Total Energy          =    -514.9562692894143083 [Eh]
	-----------------------------------------------------------

  Dipole Moment: [D]
     X:    -0.0136      Y:     3.4445      Z:    -1.7189     Total:     3.8496

*** Psi4 exiting successfully. Buy a developer a beer!
