                               Psi4 1.4a2.dev612

  ==> Input File <==

--------------------------------------------------------------------------
#psi4
#
memory 32 gb

molecule  {
0 1
  O       -1.9705880     1.6613530    -0.1848000
  O        1.6688240    -1.2224340     0.6437850
  O       -3.2913740    -0.0479250     0.4948630
  N        0.2140730     0.2683100    -0.2698780
  C       -0.9017596    -0.4403388     0.3560480
  C       -1.1968270    -1.6816620    -0.8184860
  C        2.5789920     0.8068070    -0.3378900
  C        1.4682490    -0.1481810     0.0706060
  C       -2.1908320     0.3658730     0.1844680
  C        3.9506640     0.3320720     0.1153760
  H       -0.7838570    -0.8897150     1.1288390
  H        0.0750270     1.1966100    -0.6451490
  H       -1.3515420    -1.3283180    -1.8408860
  H       -0.3238960    -2.3346980    -0.7915570
  H       -2.0788080    -2.2361410    -0.4923840
  H        2.5479870     0.9167430    -1.4288930
  H        2.3554820     1.7990610     0.0733550
  H        4.1782080    -0.6474400    -0.3069900
  H        4.7194550     1.0404130    -0.2050590
  H        3.9903360     0.2413970     1.2016820
  H       -2.8462050     2.0977190    -0.1239210
units angstrom
no_reorient  #important for SAPT in psi4, default
symmetry c1  #important for SAPT in psi4, default
}

set PROPERTIES_ORIGIN ["COM"]
properties('MP2/aug-cc-pvtz', properties = ['dipole'])
--------------------------------------------------------------------------

    Molecular point group: c1
  Charge       = 0
  Multiplicity = 1
  Basis Set: AUG-CC-PVTZ
    Blend: AUG-CC-PVTZ
  Basis Set: (AUG-CC-PVTZ AUX)
    Blend: AUG-CC-PVTZ-JKFIT

    Orbital Energies [Eh]
    ---------------------

    Doubly Occupied:

       1A    -20.636144     2A    -20.562230     3A    -20.525686
       4A    -15.594216     5A    -11.408380     6A    -11.355111
       7A    -11.294897     8A    -11.246970     9A    -11.235520
      10A    -11.219608    11A     -1.477581    12A     -1.381877
      13A     -1.372441    14A     -1.243265    15A     -1.069583
      16A     -1.025748    17A     -0.916648    18A     -0.884713
      19A     -0.848634    20A     -0.791232    21A     -0.724354
      22A     -0.713941    23A     -0.692570    24A     -0.672028
      25A     -0.644208    26A     -0.641301    27A     -0.614032
      28A     -0.600070    29A     -0.574902    30A     -0.553033
      31A     -0.539348    32A     -0.530057    33A     -0.520307
      34A     -0.508501    35A     -0.496522    36A     -0.479835
      37A     -0.469065    38A     -0.429141    39A     -0.383531

  @DF-RHF Final Energy:  -512.82221183271588

   => Energetics <=

    Nuclear Repulsion Energy =            546.8638917435507665
    One-Electron Energy =               -1785.6177537396170010
    Two-Electron Energy =                 725.9316501633503549
    Total Energy =                       -512.8222118327158796
  Basis Set: (AUG-CC-PVTZ AUX)
    Blend: AUG-CC-PVTZ-RI
    Molecular point group: c1

    Geometry (in Angstrom), charge = 0, multiplicity = 1:

       Center              X                  Y                   Z               Mass
    ------------   -----------------  -----------------  -----------------  -----------------
         O           -1.974667243846     1.656662809879    -0.204522703061    15.994914619570
         O            1.664744756154    -1.227124190121     0.624062296939    15.994914619570
         O           -3.295453243846    -0.052615190121     0.475140296939    15.994914619570
         N            0.209993756154     0.263619809879    -0.289600703061    14.003074004430
         C           -0.905838843846    -0.445028990121     0.336325296939    12.000000000000
         C           -1.200906243846    -1.686352190121    -0.838208703061    12.000000000000
         C            2.574912756154     0.802116809879    -0.357612703061    12.000000000000
         C            1.464169756154    -0.152871190121     0.050883296939    12.000000000000
         C           -2.194911243846     0.361182809879     0.164745296939    12.000000000000
         C            3.946584756154     0.327381809879     0.095653296939    12.000000000000
         H           -0.787936243846    -0.894405190121     1.109116296939     1.007825032230
         H            0.070947756154     1.191919809879    -0.664871703061     1.007825032230
         H           -1.355621243846    -1.333008190121    -1.860608703061     1.007825032230
         H           -0.327975243846    -2.339388190121    -0.811279703061     1.007825032230
         H           -2.082887243846    -2.240831190121    -0.512106703061     1.007825032230
         H            2.543907756154     0.912052809879    -1.448615703061     1.007825032230
         H            2.351402756154     1.794370809879     0.053632296939     1.007825032230
         H            4.174128756154    -0.652130190121    -0.326712703061     1.007825032230
         H            4.715375756154     1.035722809879    -0.224781703061     1.007825032230
         H            3.986256756154     0.236706809879     1.181959296939     1.007825032230
         H           -2.850284243846     2.093028809879    -0.143643703061     1.007825032230

  Basis Set: AUG-CC-PVTZ
    Blend: AUG-CC-PVTZ
  Basis Set: (AUG-CC-PVTZ AUX)
    Blend: AUG-CC-PVTZ-JKFIT
	 Reference Energy          =    -512.8222118327158796 [Eh]
	 Singles Energy            =      -0.0000000000000000 [Eh]
	 Same-Spin Energy          =      -0.5114651835311139 [Eh]
	 Opposite-Spin Energy      =      -1.6173581262122976 [Eh]
	 Correlation Energy        =      -2.1288233097434115 [Eh]
	 Total Energy              =    -514.9510351424593182 [Eh]

	 ================> DF-SCS-MP2 Energies <==================
	-----------------------------------------------------------
	 SCS Same-Spin Scale       =       0.3333333333333333 [-]
	 SCS Opposite-Spin Scale   =       1.2000000000000000 [-]
	 SCS Same-Spin Energy      =      -0.1704883945103713 [Eh]
	 SCS Opposite-Spin Energy  =      -1.9408297514547570 [Eh]
	 SCS Correlation Energy    =      -2.1113181459651282 [Eh]
	 SCS Total Energy          =    -514.9335299786810083 [Eh]
	-----------------------------------------------------------

  Dipole Moment: [D]
     X:     0.0108      Y:     3.4519      Z:    -1.6989     Total:     3.8474

*** Psi4 exiting successfully. Buy a developer a beer!
