                               Psi4 1.4a2.dev612

  ==> Input File <==

--------------------------------------------------------------------------
#psi4
#
memory 32 gb

molecule  {
0 1
  O       -1.9705880     1.6613530    -0.1848000
  O        1.6688240    -1.2224340     0.6437850
  O       -3.2913740    -0.0479250     0.4948630
  N        0.2140730     0.2683100    -0.2698780
  C       -0.9214866    -0.4630197     0.2606728
  C       -1.1968270    -1.6816620    -0.8184860
  C        2.5789920     0.8068070    -0.3378900
  C        1.4682490    -0.1481810     0.0706060
  C       -2.1908320     0.3658730     0.1844680
  C        3.9506640     0.3320720     0.1153760
  H       -0.7838570    -0.8897150     1.1288390
  H        0.0750270     1.1966100    -0.6451490
  H       -1.3515420    -1.3283180    -1.8408860
  H       -0.3238960    -2.3346980    -0.7915570
  H       -2.0788080    -2.2361410    -0.4923840
  H        2.5479870     0.9167430    -1.4288930
  H        2.3554820     1.7990610     0.0733550
  H        4.1782080    -0.6474400    -0.3069900
  H        4.7194550     1.0404130    -0.2050590
  H        3.9903360     0.2413970     1.2016820
  H       -2.8462050     2.0977190    -0.1239210
units angstrom
no_reorient  #important for SAPT in psi4, default
symmetry c1  #important for SAPT in psi4, default
}

set PROPERTIES_ORIGIN ["COM"]
properties('MP2/aug-cc-pvtz', properties = ['dipole'])
--------------------------------------------------------------------------

    Molecular point group: c1
  Charge       = 0
  Multiplicity = 1
  Basis Set: AUG-CC-PVTZ
    Blend: AUG-CC-PVTZ
  Basis Set: (AUG-CC-PVTZ AUX)
    Blend: AUG-CC-PVTZ-JKFIT

    Orbital Energies [Eh]
    ---------------------

    Doubly Occupied:

       1A    -20.636412     2A    -20.563536     3A    -20.525167
       4A    -15.592668     5A    -11.406588     6A    -11.355441
       7A    -11.294320     8A    -11.247074     9A    -11.231746
      10A    -11.219593    11A     -1.478197    12A     -1.381403
      13A     -1.373216    14A     -1.245098    15A     -1.071107
      16A     -1.028620    17A     -0.920885    18A     -0.885359
      19A     -0.834209    20A     -0.792038    21A     -0.727740
      22A     -0.714495    23A     -0.685269    24A     -0.670653
      25A     -0.641863    26A     -0.639090    27A     -0.613655
      28A     -0.601278    29A     -0.575992    30A     -0.549849
      31A     -0.538830    32A     -0.530381    33A     -0.520215
      34A     -0.514646    35A     -0.497095    36A     -0.486057
      37A     -0.470111    38A     -0.428763    39A     -0.392446

  @DF-RHF Final Energy:  -512.86468441792329

   => Energetics <=

    Nuclear Repulsion Energy =            547.4193137723451628
    One-Electron Energy =               -1786.8057862427106102
    Two-Electron Energy =                 726.5217880524420480
    Total Energy =                       -512.8646844179232858
  Basis Set: (AUG-CC-PVTZ AUX)
    Blend: AUG-CC-PVTZ-RI
    Molecular point group: c1

    Geometry (in Angstrom), charge = 0, multiplicity = 1:

       Center              X                  Y                   Z               Mass
    ------------   -----------------  -----------------  -----------------  -----------------
         O           -1.973035496088     1.658538893811    -0.196633603412    15.994914619570
         O            1.666376503912    -1.225248106189     0.631951396588    15.994914619570
         O           -3.293821496088    -0.050739106189     0.483029396588    15.994914619570
         N            0.211625503912     0.265495893811    -0.281711603412    14.003074004430
         C           -0.923934096088    -0.465833806189     0.248839196588    12.000000000000
         C           -1.199274496088    -1.684476106189    -0.830319603412    12.000000000000
         C            2.576544503912     0.803992893811    -0.349723603412    12.000000000000
         C            1.465801503912    -0.150995106189     0.058772396588    12.000000000000
         C           -2.193279496088     0.363058893811     0.172634396588    12.000000000000
         C            3.948216503912     0.329257893811     0.103542396588    12.000000000000
         H           -0.786304496088    -0.892529106189     1.117005396588     1.007825032230
         H            0.072579503912     1.193795893811    -0.656982603412     1.007825032230
         H           -1.353989496088    -1.331132106189    -1.852719603412     1.007825032230
         H           -0.326343496088    -2.337512106189    -0.803390603412     1.007825032230
         H           -2.081255496088    -2.238955106189    -0.504217603412     1.007825032230
         H            2.545539503912     0.913928893811    -1.440726603412     1.007825032230
         H            2.353034503912     1.796246893811     0.061521396588     1.007825032230
         H            4.175760503912    -0.650254106189    -0.318823603412     1.007825032230
         H            4.717007503912     1.037598893811    -0.216892603412     1.007825032230
         H            3.987888503912     0.238582893811     1.189848396588     1.007825032230
         H           -2.848652496088     2.094904893811    -0.135754603412     1.007825032230

  Basis Set: AUG-CC-PVTZ
    Blend: AUG-CC-PVTZ
  Basis Set: (AUG-CC-PVTZ AUX)
    Blend: AUG-CC-PVTZ-JKFIT
	 Reference Energy          =    -512.8646844179232858 [Eh]
	 Singles Energy            =      -0.0000000000000000 [Eh]
	 Same-Spin Energy          =      -0.5110153393178631 [Eh]
	 Opposite-Spin Energy      =      -1.6153478736715461 [Eh]
	 Correlation Energy        =      -2.1263632129894092 [Eh]
	 Total Energy              =    -514.9910476309127034 [Eh]

	 ================> DF-SCS-MP2 Energies <==================
	-----------------------------------------------------------
	 SCS Same-Spin Scale       =       0.3333333333333333 [-]
	 SCS Opposite-Spin Scale   =       1.2000000000000000 [-]
	 SCS Same-Spin Energy      =      -0.1703384464392877 [Eh]
	 SCS Opposite-Spin Energy  =      -1.9384174484058552 [Eh]
	 SCS Correlation Energy    =      -2.1087558948451428 [Eh]
	 SCS Total Energy          =    -514.9734403127683890 [Eh]
	-----------------------------------------------------------

  Dipole Moment: [D]
     X:    -0.0366      Y:     3.4321      Z:    -1.7453     Total:     3.8506

*** Psi4 exiting successfully. Buy a developer a beer!
