                               Psi4 1.3.2 release

  ==> Input File <==

--------------------------------------------------------------------------
#psi4
#
memory 32 gb

molecule  {
0 1
 Cl       -2.8794873    -0.0000041     1.0015778
 Cl       -1.2311530    -1.4484720    -0.9693440
 Cl       -1.2311580     1.4484760    -0.9693400
  C       -0.2962350     0.0000000     1.1437290
  C        1.1252770     0.0000000     0.6524850
  C       -1.3694210     0.0000000     0.0492630
  C        1.8035170    -1.2073330     0.4379420
  C        1.8035180     1.2073330     0.4379420
  C        3.1257690    -1.2076600    -0.0068740
  C        3.1257690     1.2076600    -0.0068730
  C        3.7894190     0.0000000    -0.2330360
  H       -0.4871660     0.8829540     1.7629540
  H       -0.4871650    -0.8829530     1.7629540
  H        1.2944460    -2.1507970     0.6220660
  H        1.2944470     2.1507980     0.6220670
  H        3.6405560    -2.1515660    -0.1688970
  H        3.6405570     2.1515660    -0.1688960
  H        4.8208550     0.0000000    -0.5768690
units angstrom
no_reorient  #important for SAPT in psi4, default
symmetry c1  #important for SAPT in psi4, default
}

set PROPERTIES_ORIGIN ["COM"]
properties('MP2/aug-cc-pvtz', properties = ['dipole'])
--------------------------------------------------------------------------

    Molecular point group: c1
  Charge       = 0
  Multiplicity = 1
  Basis Set: AUG-CC-PVTZ
    Blend: AUG-CC-PVTZ
  Basis Set: (AUG-CC-PVTZ AUX)
    Blend: AUG-CC-PVTZ-JKFIT

    Orbital Energies [Eh]
    ---------------------

    Doubly Occupied:

       1A   -104.859378     2A   -104.859378     3A   -104.857548
       4A    -11.435843     5A    -11.268049     6A    -11.252664
       7A    -11.244260     8A    -11.244185     9A    -11.243622
      10A    -11.242394    11A    -11.241924    12A    -10.583795
      13A    -10.583786    14A    -10.582134    15A     -8.050551
      16A     -8.050551    17A     -8.048860    18A     -8.048477
      19A     -8.048476    20A     -8.048445    21A     -8.048444
      22A     -8.046823    23A     -8.046793    24A     -1.246068
      25A     -1.161436    26A     -1.110695    27A     -1.108323
      28A     -1.064034    29A     -1.021271    30A     -0.972049
      31A     -0.835742    32A     -0.833081    33A     -0.787427
      34A     -0.704765    35A     -0.668451    36A     -0.657531
      37A     -0.639035    38A     -0.622712    39A     -0.616515
      40A     -0.593677    41A     -0.573312    42A     -0.546026
      43A     -0.512908    44A     -0.505982    45A     -0.500023
      46A     -0.494571    47A     -0.489240    48A     -0.459493
      49A     -0.458468    50A     -0.453654    51A     -0.446411
      52A     -0.342460    53A     -0.339647

  @DF-RHF Final Energy: -1685.66193318315641

   => Energetics <=

    Nuclear Repulsion Energy =            878.5535334086729335
    One-Electron Energy =               -4069.0281559294598992
    Two-Electron Energy =                1504.8126893376304452
    Total Energy =                      -1685.6619331831564068
  Basis Set: (AUG-CC-PVTZ AUX)
    Blend: AUG-CC-PVTZ-RI
    Molecular point group: c1

    Geometry (in Angstrom), charge = 0, multiplicity = 1:

       Center              X                  Y                   Z               Mass
    ------------   -----------------  -----------------  -----------------  -----------------
         CL          -2.804082226982    -0.000004092877     0.997678253883    34.968852682000
         CL          -1.155747926982    -1.448471992877    -0.973243546117    34.968852682000
         CL          -1.155752926982     1.448476007123    -0.973239546117    34.968852682000
         C           -0.220829926982     0.000000007123     1.139829453883    12.000000000000
         C            1.200682073018     0.000000007123     0.648585453883    12.000000000000
         C           -1.294015926982     0.000000007123     0.045363453883    12.000000000000
         C            1.878922073018    -1.207332992877     0.434042453883    12.000000000000
         C            1.878923073018     1.207333007123     0.434042453883    12.000000000000
         C            3.201174073018    -1.207659992877    -0.010773546117    12.000000000000
         C            3.201174073018     1.207660007123    -0.010772546117    12.000000000000
         C            3.864824073018     0.000000007123    -0.236935546117    12.000000000000
         H           -0.411760926982     0.882954007123     1.759054453883     1.007825032230
         H           -0.411759926982    -0.882952992877     1.759054453883     1.007825032230
         H            1.369851073018    -2.150796992877     0.618166453883     1.007825032230
         H            1.369852073018     2.150798007123     0.618167453883     1.007825032230
         H            3.715961073018    -2.151565992877    -0.172796546117     1.007825032230
         H            3.715962073018     2.151566007123    -0.172795546117     1.007825032230
         H            4.896260073018     0.000000007123    -0.580768546117     1.007825032230

  Basis Set: AUG-CC-PVTZ
    Blend: AUG-CC-PVTZ
  Basis Set: (AUG-CC-PVTZ AUX)
    Blend: AUG-CC-PVTZ-JKFIT
	 Reference Energy          =   -1685.6619331831564068 [Eh]
	 Singles Energy            =      -0.0000000000000000 [Eh]
	 Same-Spin Energy          =      -0.5398858479830291 [Eh]
	 Opposite-Spin Energy      =      -1.6189929808888330 [Eh]
	 Correlation Energy        =      -2.1588788288718623 [Eh]
	 Total Energy              =   -1687.8208120120282274 [Eh]

	 ================> DF-SCS-MP2 Energies <==================
	-----------------------------------------------------------
	 SCS Same-Spin Scale       =       0.3333333333333333 [-]
	 SCS Opposite-Spin Scale   =       1.2000000000000000 [-]
	 SCS Same-Spin Energy      =      -0.1799619493276763 [Eh]
	 SCS Opposite-Spin Energy  =      -1.9427915770665996 [Eh]
	 SCS Correlation Energy    =      -2.1227535263942761 [Eh]
	 SCS Total Energy          =   -1687.7846867095506695 [Eh]
	-----------------------------------------------------------

  Dipole Moment: [D]
     X:     1.5626      Y:    -0.0000      Z:     0.8385     Total:     1.7733

*** Psi4 exiting successfully. Buy a developer a beer!
