                               Psi4 1.3.2 release

  ==> Input File <==

--------------------------------------------------------------------------
#psi4
#
memory 32 gb

molecule  {
0 1
 Cl       -2.9973280    -0.0000040     0.7821493
 Cl       -1.2311530    -1.4484720    -0.9693440
 Cl       -1.2311580     1.4484760    -0.9693400
  C       -0.2962350     0.0000000     1.1437290
  C        1.1252770     0.0000000     0.6524850
  C       -1.3694210     0.0000000     0.0492630
  C        1.8035170    -1.2073330     0.4379420
  C        1.8035180     1.2073330     0.4379420
  C        3.1257690    -1.2076600    -0.0068740
  C        3.1257690     1.2076600    -0.0068730
  C        3.7894190     0.0000000    -0.2330360
  H       -0.4871660     0.8829540     1.7629540
  H       -0.4871650    -0.8829530     1.7629540
  H        1.2944460    -2.1507970     0.6220660
  H        1.2944470     2.1507980     0.6220670
  H        3.6405560    -2.1515660    -0.1688970
  H        3.6405570     2.1515660    -0.1688960
  H        4.8208550     0.0000000    -0.5768690
units angstrom
no_reorient  #important for SAPT in psi4, default
symmetry c1  #important for SAPT in psi4, default
}

set PROPERTIES_ORIGIN ["COM"]
properties('MP2/aug-cc-pvtz', properties = ['dipole'])
--------------------------------------------------------------------------

    Molecular point group: c1
  Charge       = 0
  Multiplicity = 1
  Basis Set: AUG-CC-PVTZ
    Blend: AUG-CC-PVTZ
  Basis Set: (AUG-CC-PVTZ AUX)
    Blend: AUG-CC-PVTZ-JKFIT

    Orbital Energies [Eh]
    ---------------------

    Doubly Occupied:

       1A   -104.857066     2A   -104.855585     3A   -104.855584
       4A    -11.436065     5A    -11.271725     6A    -11.255493
       7A    -11.245613     8A    -11.245607     9A    -11.244906
      10A    -11.243390    11A    -11.242959    12A    -10.581546
      13A    -10.580308    14A    -10.580299    15A     -8.048277
      16A     -8.047054    17A     -8.047053    18A     -8.046231
      19A     -8.046207    20A     -8.044985    21A     -8.044985
      22A     -8.044956    23A     -8.044955    24A     -1.245883
      25A     -1.163122    26A     -1.106614    27A     -1.104536
      28A     -1.066818    29A     -1.022417    30A     -0.975083
      31A     -0.836973    32A     -0.833867    33A     -0.787150
      34A     -0.705315    35A     -0.668176    36A     -0.656974
      37A     -0.644048    38A     -0.623071    39A     -0.614614
      40A     -0.594789    41A     -0.572007    42A     -0.549466
      43A     -0.512378    44A     -0.506411    45A     -0.501954
      46A     -0.494513    47A     -0.489037    48A     -0.461287
      49A     -0.454786    50A     -0.452977    51A     -0.441623
      52A     -0.343379    53A     -0.341007

  @DF-RHF Final Energy: -1685.66506377697874

   => Energetics <=

    Nuclear Repulsion Energy =            878.4499316538310723
    One-Electron Energy =               -4068.8677460434137174
    Two-Electron Energy =                1504.7527506126036769
    Total Energy =                      -1685.6650637769787409
  Basis Set: (AUG-CC-PVTZ AUX)
    Blend: AUG-CC-PVTZ-RI
    Molecular point group: c1

    Geometry (in Angstrom), charge = 0, multiplicity = 1:

       Center              X                  Y                   Z               Mass
    ------------   -----------------  -----------------  -----------------  -----------------
         CL          -2.902107925734    -0.000004009692     0.815146819169    34.968852682000
         CL          -1.135932925734    -1.448472009692    -0.936346480831    34.968852682000
         CL          -1.135937925734     1.448475990308    -0.936342480831    34.968852682000
         C           -0.201014925734    -0.000000009692     1.176726519169    12.000000000000
         C            1.220497074266    -0.000000009692     0.685482519169    12.000000000000
         C           -1.274200925734    -0.000000009692     0.082260519169    12.000000000000
         C            1.898737074266    -1.207333009692     0.470939519169    12.000000000000
         C            1.898738074266     1.207332990308     0.470939519169    12.000000000000
         C            3.220989074266    -1.207660009692     0.026123519169    12.000000000000
         C            3.220989074266     1.207659990308     0.026124519169    12.000000000000
         C            3.884639074266    -0.000000009692    -0.200038480831    12.000000000000
         H           -0.391945925734     0.882953990308     1.795951519169     1.007825032230
         H           -0.391944925734    -0.882953009692     1.795951519169     1.007825032230
         H            1.389666074266    -2.150797009692     0.655063519169     1.007825032230
         H            1.389667074266     2.150797990308     0.655064519169     1.007825032230
         H            3.735776074266    -2.151566009692    -0.135899480831     1.007825032230
         H            3.735777074266     2.151565990308    -0.135898480831     1.007825032230
         H            4.916075074266    -0.000000009692    -0.543871480831     1.007825032230

  Basis Set: AUG-CC-PVTZ
    Blend: AUG-CC-PVTZ
  Basis Set: (AUG-CC-PVTZ AUX)
    Blend: AUG-CC-PVTZ-JKFIT
	 Reference Energy          =   -1685.6650637769787409 [Eh]
	 Singles Energy            =      -0.0000000000000000 [Eh]
	 Same-Spin Energy          =      -0.5396274085541504 [Eh]
	 Opposite-Spin Energy      =      -1.6183523706096641 [Eh]
	 Correlation Energy        =      -2.1579797791638144 [Eh]
	 Total Energy              =   -1687.8230435561424656 [Eh]

	 ================> DF-SCS-MP2 Energies <==================
	-----------------------------------------------------------
	 SCS Same-Spin Scale       =       0.3333333333333333 [-]
	 SCS Opposite-Spin Scale   =       1.2000000000000000 [-]
	 SCS Same-Spin Energy      =      -0.1798758028513834 [Eh]
	 SCS Opposite-Spin Energy  =      -1.9420228447315968 [Eh]
	 SCS Correlation Energy    =      -2.1218986475829804 [Eh]
	 SCS Total Energy          =   -1687.7869624245618070 [Eh]
	-----------------------------------------------------------

  Dipole Moment: [D]
     X:     1.6720      Y:    -0.0000      Z:     0.9607     Total:     1.9283

*** Psi4 exiting successfully. Buy a developer a beer!
