                               Psi4 1.3.2 release

  ==> Input File <==

--------------------------------------------------------------------------
#psi4
#
memory 32 gb

molecule  {
0 1
 Cl       -2.9707590    -0.0000040     0.8385160
 Cl       -1.2311530    -1.4484720    -0.9693440
 Cl       -1.2311580     1.4484760    -0.9693400
  C       -0.2962350     0.0000000     1.1437290
  C        1.1252770     0.0000000     0.6524850
  C       -1.3588995    -0.0224768     0.0392731
  C        1.8035170    -1.2073330     0.4379420
  C        1.8035180     1.2073330     0.4379420
  C        3.1257690    -1.2076600    -0.0068740
  C        3.1257690     1.2076600    -0.0068730
  C        3.7894190     0.0000000    -0.2330360
  H       -0.4871660     0.8829540     1.7629540
  H       -0.4871650    -0.8829530     1.7629540
  H        1.2944460    -2.1507970     0.6220660
  H        1.2944470     2.1507980     0.6220670
  H        3.6405560    -2.1515660    -0.1688970
  H        3.6405570     2.1515660    -0.1688960
  H        4.8208550     0.0000000    -0.5768690
units angstrom
no_reorient  #important for SAPT in psi4, default
symmetry c1  #important for SAPT in psi4, default
}

set PROPERTIES_ORIGIN ["COM"]
properties('MP2/aug-cc-pvtz', properties = ['dipole'])
--------------------------------------------------------------------------

    Molecular point group: c1
  Charge       = 0
  Multiplicity = 1
  Basis Set: AUG-CC-PVTZ
    Blend: AUG-CC-PVTZ
  Basis Set: (AUG-CC-PVTZ AUX)
    Blend: AUG-CC-PVTZ-JKFIT

    Orbital Energies [Eh]
    ---------------------

    Doubly Occupied:

       1A   -104.860273     2A   -104.855161     3A   -104.854776
       4A    -11.436179     5A    -11.270836     6A    -11.254835
       7A    -11.245467     8A    -11.245320     9A    -11.244718
      10A    -11.243323    11A    -11.242863    12A    -10.585198
      13A    -10.579515    14A    -10.579293    15A     -8.052004
      16A     -8.049866    17A     -8.049833    18A     -8.046220
      19A     -8.046023    20A     -8.044213    21A     -8.044189
      22A     -8.043982    23A     -8.043954    24A     -1.246193
      25A     -1.162821    26A     -1.110516    27A     -1.102285
      28A     -1.066429    29A     -1.022300    30A     -0.974279
      31A     -0.836848    32A     -0.833536    33A     -0.787547
      34A     -0.705336    35A     -0.668521    36A     -0.656944
      37A     -0.642728    38A     -0.623539    39A     -0.615205
      40A     -0.594680    41A     -0.572198    42A     -0.548874
      43A     -0.512403    44A     -0.506533    45A     -0.501749
      46A     -0.495672    47A     -0.488073    48A     -0.459132
      49A     -0.457047    50A     -0.453278    51A     -0.442676
      52A     -0.343347    53A     -0.340827

  @DF-RHF Final Energy: -1685.66473377502757

   => Energetics <=

    Nuclear Repulsion Energy =            878.4483521086385736
    One-Electron Energy =               -4068.8470531273087545
    Two-Electron Energy =                1504.7339672436426099
    Total Energy =                      -1685.6647337750275710
  Basis Set: (AUG-CC-PVTZ AUX)
    Blend: AUG-CC-PVTZ-RI
    Molecular point group: c1

    Geometry (in Angstrom), charge = 0, multiplicity = 1:

       Center              X                  Y                   Z               Mass
    ------------   -----------------  -----------------  -----------------  -----------------
         CL          -2.880613645300     0.001292969875     0.862611864234    34.968852682000
         CL          -1.141007645300    -1.447175030125    -0.945248135766    34.968852682000
         CL          -1.141012645300     1.449772969875    -0.945244135766    34.968852682000
         C           -0.206089645300     0.001296969875     1.167824864234    12.000000000000
         C            1.215422354700     0.001296969875     0.676580864234    12.000000000000
         C           -1.268754145300    -0.021179830125     0.063368964234    12.000000000000
         C            1.893662354700    -1.206036030125     0.462037864234    12.000000000000
         C            1.893663354700     1.208629969875     0.462037864234    12.000000000000
         C            3.215914354700    -1.206363030125     0.017221864234    12.000000000000
         C            3.215914354700     1.208956969875     0.017222864234    12.000000000000
         C            3.879564354700     0.001296969875    -0.208940135766    12.000000000000
         H           -0.397020645300     0.884250969875     1.787049864234     1.007825032230
         H           -0.397019645300    -0.881656030125     1.787049864234     1.007825032230
         H            1.384591354700    -2.149500030125     0.646161864234     1.007825032230
         H            1.384592354700     2.152094969875     0.646162864234     1.007825032230
         H            3.730701354700    -2.150269030125    -0.144801135766     1.007825032230
         H            3.730702354700     2.152862969875    -0.144800135766     1.007825032230
         H            4.911000354700     0.001296969875    -0.552773135766     1.007825032230

  Basis Set: AUG-CC-PVTZ
    Blend: AUG-CC-PVTZ
  Basis Set: (AUG-CC-PVTZ AUX)
    Blend: AUG-CC-PVTZ-JKFIT
	 Reference Energy          =   -1685.6647337750275710 [Eh]
	 Singles Energy            =      -0.0000000000000000 [Eh]
	 Same-Spin Energy          =      -0.5396789102095934 [Eh]
	 Opposite-Spin Energy      =      -1.6184758650195863 [Eh]
	 Correlation Energy        =      -2.1581547752291796 [Eh]
	 Total Energy              =   -1687.8228885502567209 [Eh]

	 ================> DF-SCS-MP2 Energies <==================
	-----------------------------------------------------------
	 SCS Same-Spin Scale       =       0.3333333333333333 [-]
	 SCS Opposite-Spin Scale   =       1.2000000000000000 [-]
	 SCS Same-Spin Energy      =      -0.1798929700698644 [Eh]
	 SCS Opposite-Spin Energy  =      -1.9421710380235035 [Eh]
	 SCS Correlation Energy    =      -2.1220640080933681 [Eh]
	 SCS Total Energy          =   -1687.7867977831208464 [Eh]
	-----------------------------------------------------------

  Dipole Moment: [D]
     X:     1.7043      Y:    -0.1170      Z:     0.8758     Total:     1.9197

*** Psi4 exiting successfully. Buy a developer a beer!
