                               Psi4 1.3.2 release

  ==> Input File <==

--------------------------------------------------------------------------
#psi4
#
memory 32 gb

molecule  {
0 1
 Cl       -2.9422390    -0.0000040     0.8939211
 Cl       -1.2311530    -1.4484720    -0.9693440
 Cl       -1.2311580     1.4484760    -0.9693400
  C       -0.2962350     0.0000000     1.1437290
  C        1.1252770     0.0000000     0.6524850
  C       -1.3694210     0.0000000     0.0492630
  C        1.8035170    -1.2073330     0.4379420
  C        1.8035180     1.2073330     0.4379420
  C        3.1257690    -1.2076600    -0.0068740
  C        3.1257690     1.2076600    -0.0068730
  C        3.7894190     0.0000000    -0.2330360
  H       -0.4871660     0.8829540     1.7629540
  H       -0.4871650    -0.8829530     1.7629540
  H        1.2944460    -2.1507970     0.6220660
  H        1.2944470     2.1507980     0.6220670
  H        3.6405560    -2.1515660    -0.1688970
  H        3.6405570     2.1515660    -0.1688960
  H        4.8208550     0.0000000    -0.5768690
units angstrom
no_reorient  #important for SAPT in psi4, default
symmetry c1  #important for SAPT in psi4, default
}

set PROPERTIES_ORIGIN ["COM"]
properties('MP2/aug-cc-pvtz', properties = ['dipole'])
--------------------------------------------------------------------------

    Molecular point group: c1
  Charge       = 0
  Multiplicity = 1
  Basis Set: AUG-CC-PVTZ
    Blend: AUG-CC-PVTZ
  Basis Set: (AUG-CC-PVTZ AUX)
    Blend: AUG-CC-PVTZ-JKFIT

    Orbital Energies [Eh]
    ---------------------

    Doubly Occupied:

       1A   -104.857491     2A   -104.857490     3A   -104.857431
       4A    -11.436001     5A    -11.269872     6A    -11.254153
       7A    -11.244949     8A    -11.244924     9A    -11.244298
      10A    -11.242920    11A    -11.242468    12A    -10.582058
      13A    -10.582049    14A    -10.581936    15A     -8.048809
      16A     -8.048809    17A     -8.048668    18A     -8.046738
      19A     -8.046738    20A     -8.046708    21A     -8.046707
      22A     -8.046630    23A     -8.046602    24A     -1.245793
      25A     -1.162303    26A     -1.107513    27A     -1.107451
      28A     -1.065560    29A     -1.021870    30A     -0.973654
      31A     -0.836383    32A     -0.833481    33A     -0.787226
      34A     -0.705020    35A     -0.668242    36A     -0.657232
      37A     -0.641614    38A     -0.622901    39A     -0.615597
      40A     -0.594256    41A     -0.572574    42A     -0.547698
      43A     -0.512567    44A     -0.506261    45A     -0.500989
      46A     -0.494452    47A     -0.489141    48A     -0.458127
      49A     -0.456702    50A     -0.456191    51A     -0.444160
      52A     -0.342945    53A     -0.340359

  @DF-RHF Final Energy: -1685.66471923973108

   => Energetics <=

    Nuclear Repulsion Energy =            878.3705706149285106
    One-Electron Energy =               -4068.6851568726788173
    Two-Electron Energy =                1504.6498670180192221
    Total Energy =                      -1685.6647192397310846
  Basis Set: (AUG-CC-PVTZ AUX)
    Blend: AUG-CC-PVTZ-RI
    Molecular point group: c1

    Geometry (in Angstrom), charge = 0, multiplicity = 1:

       Center              X                  Y                   Z               Mass
    ------------   -----------------  -----------------  -----------------  -----------------
         CL          -2.856282182009    -0.000004009692     0.908124107965    34.968852682000
         CL          -1.145196182009    -1.448472009692    -0.955140992035    34.968852682000
         CL          -1.145201182009     1.448475990308    -0.955136992035    34.968852682000
         C           -0.210278182009    -0.000000009692     1.157932007965    12.000000000000
         C            1.211233817991    -0.000000009692     0.666688007965    12.000000000000
         C           -1.283464182009    -0.000000009692     0.063466007965    12.000000000000
         C            1.889473817991    -1.207333009692     0.452145007965    12.000000000000
         C            1.889474817991     1.207332990308     0.452145007965    12.000000000000
         C            3.211725817991    -1.207660009692     0.007329007965    12.000000000000
         C            3.211725817991     1.207659990308     0.007330007965    12.000000000000
         C            3.875375817991    -0.000000009692    -0.218832992035    12.000000000000
         H           -0.401209182009     0.882953990308     1.777157007965     1.007825032230
         H           -0.401208182009    -0.882953009692     1.777157007965     1.007825032230
         H            1.380402817991    -2.150797009692     0.636269007965     1.007825032230
         H            1.380403817991     2.150797990308     0.636270007965     1.007825032230
         H            3.726512817991    -2.151566009692    -0.154693992035     1.007825032230
         H            3.726513817991     2.151565990308    -0.154692992035     1.007825032230
         H            4.906811817991    -0.000000009692    -0.562665992035     1.007825032230

  Basis Set: AUG-CC-PVTZ
    Blend: AUG-CC-PVTZ
  Basis Set: (AUG-CC-PVTZ AUX)
    Blend: AUG-CC-PVTZ-JKFIT
	 Reference Energy          =   -1685.6647192397310846 [Eh]
	 Singles Energy            =      -0.0000000000000000 [Eh]
	 Same-Spin Energy          =      -0.5396895184417383 [Eh]
	 Opposite-Spin Energy      =      -1.6185571382986885 [Eh]
	 Correlation Energy        =      -2.1582466567404266 [Eh]
	 Total Energy              =   -1687.8229658964714872 [Eh]

	 ================> DF-SCS-MP2 Energies <==================
	-----------------------------------------------------------
	 SCS Same-Spin Scale       =       0.3333333333333333 [-]
	 SCS Opposite-Spin Scale   =       1.2000000000000000 [-]
	 SCS Same-Spin Energy      =      -0.1798965061472461 [Eh]
	 SCS Opposite-Spin Energy  =      -1.9422685659584262 [Eh]
	 SCS Correlation Energy    =      -2.1221650721056724 [Eh]
	 SCS Total Energy          =   -1687.7868843118367295 [Eh]
	-----------------------------------------------------------

  Dipole Moment: [D]
     X:     1.6185      Y:    -0.0000      Z:     0.8993     Total:     1.8516

*** Psi4 exiting successfully. Buy a developer a beer!
