                               Psi4 1.3.2 release

  ==> Input File <==

--------------------------------------------------------------------------
#psi4
#
memory 32 gb

molecule  {
0 1
 Cl       -2.9707590    -0.0000040     0.8385160
 Cl       -1.2311530    -1.4484720    -0.9693440
 Cl       -1.2311580     1.4484760    -0.9693400
  C       -0.2962350     0.0000000     1.1437290
  C        1.1252770     0.0000000     0.6524850
  C       -1.4255796     0.1346213     0.1160900
  C        1.8035170    -1.2073330     0.4379420
  C        1.8035180     1.2073330     0.4379420
  C        3.1257690    -1.2076600    -0.0068740
  C        3.1257690     1.2076600    -0.0068730
  C        3.7894190     0.0000000    -0.2330360
  H       -0.4871660     0.8829540     1.7629540
  H       -0.4871650    -0.8829530     1.7629540
  H        1.2944460    -2.1507970     0.6220660
  H        1.2944470     2.1507980     0.6220670
  H        3.6405560    -2.1515660    -0.1688970
  H        3.6405570     2.1515660    -0.1688960
  H        4.8208550     0.0000000    -0.5768690
units angstrom
no_reorient  #important for SAPT in psi4, default
symmetry c1  #important for SAPT in psi4, default
}

set PROPERTIES_ORIGIN ["COM"]
properties('MP2/aug-cc-pvtz', properties = ['dipole'])
--------------------------------------------------------------------------

    Molecular point group: c1
  Charge       = 0
  Multiplicity = 1
  Basis Set: AUG-CC-PVTZ
    Blend: AUG-CC-PVTZ
  Basis Set: (AUG-CC-PVTZ AUX)
    Blend: AUG-CC-PVTZ-JKFIT

    Orbital Energies [Eh]
    ---------------------

    Doubly Occupied:

       1A   -104.869970     2A   -104.867373     3A   -104.830465
       4A    -11.439434     5A    -11.272729     6A    -11.255488
       7A    -11.245481     8A    -11.244578     9A    -11.244240
      10A    -11.242657    11A    -11.242014    12A    -10.595316
      13A    -10.592703    14A    -10.554347    15A     -8.062210
      16A     -8.059951    17A     -8.059901    18A     -8.059583
      19A     -8.057336    20A     -8.057282    21A     -8.020850
      22A     -8.019111    23A     -8.019087    24A     -1.254859
      25A     -1.163129    26A     -1.130082    27A     -1.082052
      28A     -1.061795    29A     -1.021579    30A     -0.976216
      31A     -0.836815    32A     -0.834932    33A     -0.787353
      34A     -0.705306    35A     -0.668579    36A     -0.659461
      37A     -0.649286    38A     -0.625811    39A     -0.613572
      40A     -0.593821    41A     -0.574663    42A     -0.548832
      43A     -0.514317    44A     -0.508086    45A     -0.500380
      46A     -0.497768    47A     -0.484554    48A     -0.467670
      49A     -0.449327    50A     -0.440797    51A     -0.435178
      52A     -0.342521    53A     -0.339941

  @DF-RHF Final Energy: -1685.65216779509137

   => Energetics <=

    Nuclear Repulsion Energy =            877.9433826946938098
    One-Electron Energy =               -4067.8295247377836859
    Two-Electron Energy =                1504.2339742479985034
    Total Energy =                      -1685.6521677950913727
  Basis Set: (AUG-CC-PVTZ AUX)
    Blend: AUG-CC-PVTZ-RI
    Molecular point group: c1

    Geometry (in Angstrom), charge = 0, multiplicity = 1:

       Center              X                  Y                   Z               Mass
    ------------   -----------------  -----------------  -----------------  -----------------
         CL          -2.876766001186    -0.007772067218     0.858179295999    34.968852682000
         CL          -1.137160001186    -1.456240067218    -0.949680704001    34.968852682000
         CL          -1.137165001186     1.440707932782    -0.949676704001    34.968852682000
         C           -0.202242001186    -0.007768067218     1.163392295999    12.000000000000
         C            1.219269998814    -0.007768067218     0.672148295999    12.000000000000
         C           -1.331586601186     0.126853232782     0.135753295999    12.000000000000
         C            1.897509998814    -1.215101067218     0.457605295999    12.000000000000
         C            1.897510998814     1.199564932782     0.457605295999    12.000000000000
         C            3.219761998814    -1.215428067218     0.012789295999    12.000000000000
         C            3.219761998814     1.199891932782     0.012790295999    12.000000000000
         C            3.883411998814    -0.007768067218    -0.213372704001    12.000000000000
         H           -0.393173001186     0.875185932782     1.782617295999     1.007825032230
         H           -0.393172001186    -0.890721067218     1.782617295999     1.007825032230
         H            1.388438998814    -2.158565067218     0.641729295999     1.007825032230
         H            1.388439998814     2.143029932782     0.641730295999     1.007825032230
         H            3.734548998814    -2.159334067218    -0.149233704001     1.007825032230
         H            3.734549998814     2.143797932782    -0.149232704001     1.007825032230
         H            4.914847998814    -0.007768067218    -0.557205704001     1.007825032230

  Basis Set: AUG-CC-PVTZ
    Blend: AUG-CC-PVTZ
  Basis Set: (AUG-CC-PVTZ AUX)
    Blend: AUG-CC-PVTZ-JKFIT
	 Reference Energy          =   -1685.6521677950913727 [Eh]
	 Singles Energy            =      -0.0000000000000000 [Eh]
	 Same-Spin Energy          =      -0.5404064891918937 [Eh]
	 Opposite-Spin Energy      =      -1.6194284851798977 [Eh]
	 Correlation Energy        =      -2.1598349743717913 [Eh]
	 Total Energy              =   -1687.8120027694631062 [Eh]

	 ================> DF-SCS-MP2 Energies <==================
	-----------------------------------------------------------
	 SCS Same-Spin Scale       =       0.3333333333333333 [-]
	 SCS Opposite-Spin Scale   =       1.2000000000000000 [-]
	 SCS Same-Spin Energy      =      -0.1801354963972979 [Eh]
	 SCS Opposite-Spin Energy  =      -1.9433141822158770 [Eh]
	 SCS Correlation Energy    =      -2.1234496786131749 [Eh]
	 SCS Total Energy          =   -1687.7756174737046422 [Eh]
	-----------------------------------------------------------

  Dipole Moment: [D]
     X:     1.3232      Y:     0.6983      Z:     1.2742     Total:     1.9652

*** Psi4 exiting successfully. Buy a developer a beer!
