                               Psi4 1.3.2 release

  ==> Input File <==

--------------------------------------------------------------------------
#psi4
#
memory 32 gb

molecule  {
0 1
 Cl       -2.9842895    -0.0000040     0.8104486
 Cl       -1.2311530    -1.4484720    -0.9693440
 Cl       -1.2311580     1.4484760    -0.9693400
  C       -0.2962350     0.0000000     1.1437290
  C        1.1252770     0.0000000     0.6524850
  C       -1.3694210     0.0000000     0.0492630
  C        1.8035170    -1.2073330     0.4379420
  C        1.8035180     1.2073330     0.4379420
  C        3.1257690    -1.2076600    -0.0068740
  C        3.1257690     1.2076600    -0.0068730
  C        3.7894190     0.0000000    -0.2330360
  H       -0.4871660     0.8829540     1.7629540
  H       -0.4871650    -0.8829530     1.7629540
  H        1.2944460    -2.1507970     0.6220660
  H        1.2944470     2.1507980     0.6220670
  H        3.6405560    -2.1515660    -0.1688970
  H        3.6405570     2.1515660    -0.1688960
  H        4.8208550     0.0000000    -0.5768690
units angstrom
no_reorient  #important for SAPT in psi4, default
symmetry c1  #important for SAPT in psi4, default
}

set PROPERTIES_ORIGIN ["COM"]
properties('MP2/aug-cc-pvtz', properties = ['dipole'])
--------------------------------------------------------------------------

    Molecular point group: c1
  Charge       = 0
  Multiplicity = 1
  Basis Set: AUG-CC-PVTZ
    Blend: AUG-CC-PVTZ
  Basis Set: (AUG-CC-PVTZ AUX)
    Blend: AUG-CC-PVTZ-JKFIT

    Orbital Energies [Eh]
    ---------------------

    Doubly Occupied:

       1A   -104.857179     2A   -104.856063     3A   -104.856063
       4A    -11.436057     5A    -11.271260     6A    -11.255170
       7A    -11.245445     8A    -11.245445     9A    -11.244760
      10A    -11.243277    11A    -11.242841    12A    -10.581661
      13A    -10.580747    14A    -10.580738    15A     -8.048393
      16A     -8.047494    17A     -8.047494    18A     -8.046350
      19A     -8.046325    20A     -8.045425    21A     -8.045424
      22A     -8.045396    23A     -8.045394    24A     -1.245828
      25A     -1.162921    26A     -1.106819    27A     -1.105264
      28A     -1.066530    29A     -1.022285    30A     -0.974741
      31A     -0.836830    32A     -0.833772    33A     -0.787160
      34A     -0.705238    35A     -0.668182    36A     -0.657035
      37A     -0.643453    38A     -0.623030    39A     -0.614865
      40A     -0.594660    41A     -0.572139    42A     -0.549017
      43A     -0.512410    44A     -0.506384    45A     -0.501712
      46A     -0.494481    47A     -0.489068    48A     -0.460498
      49A     -0.455273    50A     -0.453882    51A     -0.442288
      52A     -0.343275    53A     -0.340851

  @DF-RHF Final Energy: -1685.66519458992911

   => Energetics <=

    Nuclear Repulsion Energy =            878.4058349340486984
    One-Electron Energy =               -4068.7734774161508540
    Two-Electron Energy =                1504.7024478921732680
    Total Energy =                      -1685.6651945899291150
  Basis Set: (AUG-CC-PVTZ AUX)
    Blend: AUG-CC-PVTZ-RI
    Molecular point group: c1

    Geometry (in Angstrom), charge = 0, multiplicity = 1:

       Center              X                  Y                   Z               Mass
    ------------   -----------------  -----------------  -----------------  -----------------
         CL          -2.891261859195    -0.000004009692     0.838687570850    34.968852682000
         CL          -1.138125359195    -1.448472009692    -0.941105029150    34.968852682000
         CL          -1.138130359195     1.448475990308    -0.941101029150    34.968852682000
         C           -0.203207359195    -0.000000009692     1.171967970850    12.000000000000
         C            1.218304640805    -0.000000009692     0.680723970850    12.000000000000
         C           -1.276393359195    -0.000000009692     0.077501970850    12.000000000000
         C            1.896544640805    -1.207333009692     0.466180970850    12.000000000000
         C            1.896545640805     1.207332990308     0.466180970850    12.000000000000
         C            3.218796640805    -1.207660009692     0.021364970850    12.000000000000
         C            3.218796640805     1.207659990308     0.021365970850    12.000000000000
         C            3.882446640805    -0.000000009692    -0.204797029150    12.000000000000
         H           -0.394138359195     0.882953990308     1.791192970850     1.007825032230
         H           -0.394137359195    -0.882953009692     1.791192970850     1.007825032230
         H            1.387473640805    -2.150797009692     0.650304970850     1.007825032230
         H            1.387474640805     2.150797990308     0.650305970850     1.007825032230
         H            3.733583640805    -2.151566009692    -0.140658029150     1.007825032230
         H            3.733584640805     2.151565990308    -0.140657029150     1.007825032230
         H            4.913882640805    -0.000000009692    -0.548630029150     1.007825032230

  Basis Set: AUG-CC-PVTZ
    Blend: AUG-CC-PVTZ
  Basis Set: (AUG-CC-PVTZ AUX)
    Blend: AUG-CC-PVTZ-JKFIT
	 Reference Energy          =   -1685.6651945899291150 [Eh]
	 Singles Energy            =      -0.0000000000000000 [Eh]
	 Same-Spin Energy          =      -0.5396310114509468 [Eh]
	 Opposite-Spin Energy      =      -1.6183832881438815 [Eh]
	 Correlation Energy        =      -2.1580142995948286 [Eh]
	 Total Energy              =   -1687.8232088895240395 [Eh]

	 ================> DF-SCS-MP2 Energies <==================
	-----------------------------------------------------------
	 SCS Same-Spin Scale       =       0.3333333333333333 [-]
	 SCS Opposite-Spin Scale   =       1.2000000000000000 [-]
	 SCS Same-Spin Energy      =      -0.1798770038169823 [Eh]
	 SCS Opposite-Spin Energy  =      -1.9420599457726577 [Eh]
	 SCS Correlation Energy    =      -2.1219369495896401 [Eh]
	 SCS Total Energy          =   -1687.7871315395186684 [Eh]
	-----------------------------------------------------------

  Dipole Moment: [D]
     X:     1.6589      Y:    -0.0000      Z:     0.9453     Total:     1.9093

*** Psi4 exiting successfully. Buy a developer a beer!
