                               Psi4 1.3.2 release

  ==> Input File <==

--------------------------------------------------------------------------
#psi4
#
memory 32 gb

molecule  {
0 1
 Cl       -2.9707590    -0.0000040     0.8385160
 Cl       -1.2311530    -1.4484720    -0.9693440
 Cl       -1.2311580     1.4484760    -0.9693400
  C       -0.2962350     0.0000000     1.1437290
  C        1.1164871     0.0000000     0.6277510
  C       -1.3694210     0.0000000     0.0492630
  C        1.8035170    -1.2073330     0.4379420
  C        1.8035180     1.2073330     0.4379420
  C        3.1257690    -1.2076600    -0.0068740
  C        3.1257690     1.2076600    -0.0068730
  C        3.7894190     0.0000000    -0.2330360
  H       -0.4871660     0.8829540     1.7629540
  H       -0.4871650    -0.8829530     1.7629540
  H        1.2944460    -2.1507970     0.6220660
  H        1.2944470     2.1507980     0.6220670
  H        3.6405560    -2.1515660    -0.1688970
  H        3.6405570     2.1515660    -0.1688960
  H        4.8208550     0.0000000    -0.5768690
units angstrom
no_reorient  #important for SAPT in psi4, default
symmetry c1  #important for SAPT in psi4, default
}

set PROPERTIES_ORIGIN ["COM"]
properties('MP2/aug-cc-pvtz', properties = ['dipole'])
--------------------------------------------------------------------------

    Molecular point group: c1
  Charge       = 0
  Multiplicity = 1
  Basis Set: AUG-CC-PVTZ
    Blend: AUG-CC-PVTZ
  Basis Set: (AUG-CC-PVTZ AUX)
    Blend: AUG-CC-PVTZ-JKFIT

    Orbital Energies [Eh]
    ---------------------

    Doubly Occupied:

       1A   -104.856976     2A   -104.856481     3A   -104.856481
       4A    -11.435668     5A    -11.271030     6A    -11.254979
       7A    -11.245374     8A    -11.245359     9A    -11.244611
      10A    -11.243134    11A    -11.242690    12A    -10.581472
      13A    -10.581129    14A    -10.581120    15A     -8.048204
      16A     -8.047877    17A     -8.047877    18A     -8.046167
      19A     -8.046140    20A     -8.045808    21A     -8.045807
      22A     -8.045779    23A     -8.045777    24A     -1.245833
      25A     -1.162579    26A     -1.107000    27A     -1.105866
      28A     -1.066263    29A     -1.022082    30A     -0.974387
      31A     -0.836545    32A     -0.833284    33A     -0.787117
      34A     -0.705307    35A     -0.668195    36A     -0.657623
      37A     -0.642440    38A     -0.622844    39A     -0.615004
      40A     -0.594473    41A     -0.572573    42A     -0.548661
      43A     -0.512150    44A     -0.506597    45A     -0.501128
      46A     -0.494662    47A     -0.489574    48A     -0.459068
      49A     -0.455767    50A     -0.454655    51A     -0.442834
      52A     -0.343075    53A     -0.340534

  @DF-RHF Final Energy: -1685.66477213719941

   => Energetics <=

    Nuclear Repulsion Energy =            878.6139441448593743
    One-Electron Energy =               -4069.1893178624914071
    Two-Electron Energy =                1504.9106015804325125
    Total Energy =                      -1685.6647721371994066
  Basis Set: (AUG-CC-PVTZ AUX)
    Blend: AUG-CC-PVTZ-RI
    Molecular point group: c1

    Geometry (in Angstrom), charge = 0, multiplicity = 1:

       Center              X                  Y                   Z               Mass
    ------------   -----------------  -----------------  -----------------  -----------------
         CL          -2.879499318918    -0.000004009692     0.863462643546    34.968852682000
         CL          -1.139893318918    -1.448472009692    -0.944397356454    34.968852682000
         CL          -1.139898318918     1.448475990308    -0.944393356454    34.968852682000
         C           -0.204975318918    -0.000000009692     1.168675643546    12.000000000000
         C            1.207746781082    -0.000000009692     0.652697643546    12.000000000000
         C           -1.278161318918    -0.000000009692     0.074209643546    12.000000000000
         C            1.894776681082    -1.207333009692     0.462888643546    12.000000000000
         C            1.894777681082     1.207332990308     0.462888643546    12.000000000000
         C            3.217028681082    -1.207660009692     0.018072643546    12.000000000000
         C            3.217028681082     1.207659990308     0.018073643546    12.000000000000
         C            3.880678681082    -0.000000009692    -0.208089356454    12.000000000000
         H           -0.395906318918     0.882953990308     1.787900643546     1.007825032230
         H           -0.395905318918    -0.882953009692     1.787900643546     1.007825032230
         H            1.385705681082    -2.150797009692     0.647012643546     1.007825032230
         H            1.385706681082     2.150797990308     0.647013643546     1.007825032230
         H            3.731815681082    -2.151566009692    -0.143950356454     1.007825032230
         H            3.731816681082     2.151565990308    -0.143949356454     1.007825032230
         H            4.912114681082    -0.000000009692    -0.551922356454     1.007825032230

  Basis Set: AUG-CC-PVTZ
    Blend: AUG-CC-PVTZ
  Basis Set: (AUG-CC-PVTZ AUX)
    Blend: AUG-CC-PVTZ-JKFIT
	 Reference Energy          =   -1685.6647721371994066 [Eh]
	 Singles Energy            =      -0.0000000000000000 [Eh]
	 Same-Spin Energy          =      -0.5397256217737797 [Eh]
	 Opposite-Spin Energy      =      -1.6185630546316356 [Eh]
	 Correlation Energy        =      -2.1582886764054154 [Eh]
	 Total Energy              =   -1687.8230608136047977 [Eh]

	 ================> DF-SCS-MP2 Energies <==================
	-----------------------------------------------------------
	 SCS Same-Spin Scale       =       0.3333333333333333 [-]
	 SCS Opposite-Spin Scale   =       1.2000000000000000 [-]
	 SCS Same-Spin Energy      =      -0.1799085405912599 [Eh]
	 SCS Opposite-Spin Energy  =      -1.9422756655579627 [Eh]
	 SCS Correlation Energy    =      -2.1221842061492224 [Eh]
	 SCS Total Energy          =   -1687.7869563433487201 [Eh]
	-----------------------------------------------------------

  Dipole Moment: [D]
     X:     1.6535      Y:    -0.0000      Z:     0.9412     Total:     1.9026

*** Psi4 exiting successfully. Buy a developer a beer!
