                               Psi4 1.3.2 release

  ==> Input File <==

--------------------------------------------------------------------------
#psi4
#
memory 32 gb

molecule  {
0 1
 Cl       -2.9707590    -0.0000040     0.8385160
 Cl       -1.2311530    -1.4484720    -0.9693440
 Cl       -1.2311580     1.4484760    -0.9693400
  C       -0.2962350     0.0000000     1.1437290
  C        1.0875468     0.0000000     0.5545220
  C       -1.3694210     0.0000000     0.0492630
  C        1.8035170    -1.2073330     0.4379420
  C        1.8035180     1.2073330     0.4379420
  C        3.1257690    -1.2076600    -0.0068740
  C        3.1257690     1.2076600    -0.0068730
  C        3.7894190     0.0000000    -0.2330360
  H       -0.4871660     0.8829540     1.7629540
  H       -0.4871650    -0.8829530     1.7629540
  H        1.2944460    -2.1507970     0.6220660
  H        1.2944470     2.1507980     0.6220670
  H        3.6405560    -2.1515660    -0.1688970
  H        3.6405570     2.1515660    -0.1688960
  H        4.8208550     0.0000000    -0.5768690
units angstrom
no_reorient  #important for SAPT in psi4, default
symmetry c1  #important for SAPT in psi4, default
}

set PROPERTIES_ORIGIN ["COM"]
properties('MP2/aug-cc-pvtz', properties = ['dipole'])
--------------------------------------------------------------------------

    Molecular point group: c1
  Charge       = 0
  Multiplicity = 1
  Basis Set: AUG-CC-PVTZ
    Blend: AUG-CC-PVTZ
  Basis Set: (AUG-CC-PVTZ AUX)
    Blend: AUG-CC-PVTZ-JKFIT

    Orbital Energies [Eh]
    ---------------------

    Doubly Occupied:

       1A   -104.856243     2A   -104.856243     3A   -104.855927
       4A    -11.434452     5A    -11.271696     6A    -11.256109
       7A    -11.246524     8A    -11.246455     9A    -11.245008
      10A    -11.243031    11A    -11.242669    12A    -10.580904
      13A    -10.580895    14A    -10.580462    15A     -8.047649
      16A     -8.047649    17A     -8.047192    18A     -8.045583
      19A     -8.045582    20A     -8.045555    21A     -8.045553
      22A     -8.045166    23A     -8.045137    24A     -1.245908
      25A     -1.161604    26A     -1.106872    27A     -1.105370
      28A     -1.066353    29A     -1.021697    30A     -0.973976
      31A     -0.835495    32A     -0.832220    33A     -0.786747
      34A     -0.705649    35A     -0.668072    36A     -0.659694
      37A     -0.640905    38A     -0.621941    39A     -0.614548
      40A     -0.594064    41A     -0.573103    42A     -0.548841
      43A     -0.512269    44A     -0.506075    45A     -0.499549
      46A     -0.495090    47A     -0.490608    48A     -0.457052
      49A     -0.455710    50A     -0.454320    51A     -0.442461
      52A     -0.342497    53A     -0.339870

  @DF-RHF Final Energy: -1685.66024051847580

   => Energetics <=

    Nuclear Repulsion Energy =            879.2339677421426813
    One-Electron Energy =               -4070.4479294244329139
    Two-Electron Energy =                1505.5537211638143162
    Total Energy =                      -1685.6602405184758027
  Basis Set: (AUG-CC-PVTZ AUX)
    Blend: AUG-CC-PVTZ-RI
    Molecular point group: c1

    Geometry (in Angstrom), charge = 0, multiplicity = 1:

       Center              X                  Y                   Z               Mass
    ------------   -----------------  -----------------  -----------------  -----------------
         CL          -2.877829375788    -0.000004009692     0.867688179064    34.968852682000
         CL          -1.138223375788    -1.448472009692    -0.940171820936    34.968852682000
         CL          -1.138228375788     1.448475990308    -0.940167820936    34.968852682000
         C           -0.203305375788    -0.000000009692     1.172901179064    12.000000000000
         C            1.180476424212    -0.000000009692     0.583694179064    12.000000000000
         C           -1.276491375788    -0.000000009692     0.078435179064    12.000000000000
         C            1.896446624212    -1.207333009692     0.467114179064    12.000000000000
         C            1.896447624212     1.207332990308     0.467114179064    12.000000000000
         C            3.218698624212    -1.207660009692     0.022298179064    12.000000000000
         C            3.218698624212     1.207659990308     0.022299179064    12.000000000000
         C            3.882348624212    -0.000000009692    -0.203863820936    12.000000000000
         H           -0.394236375788     0.882953990308     1.792126179064     1.007825032230
         H           -0.394235375788    -0.882953009692     1.792126179064     1.007825032230
         H            1.387375624212    -2.150797009692     0.651238179064     1.007825032230
         H            1.387376624212     2.150797990308     0.651239179064     1.007825032230
         H            3.733485624212    -2.151566009692    -0.139724820936     1.007825032230
         H            3.733486624212     2.151565990308    -0.139723820936     1.007825032230
         H            4.913784624212    -0.000000009692    -0.547696820936     1.007825032230

  Basis Set: AUG-CC-PVTZ
    Blend: AUG-CC-PVTZ
  Basis Set: (AUG-CC-PVTZ AUX)
    Blend: AUG-CC-PVTZ-JKFIT
	 Reference Energy          =   -1685.6602405184758027 [Eh]
	 Singles Energy            =      -0.0000000000000000 [Eh]
	 Same-Spin Energy          =      -0.5401658290823033 [Eh]
	 Opposite-Spin Energy      =      -1.6194308674308444 [Eh]
	 Correlation Energy        =      -2.1595966965131477 [Eh]
	 Total Energy              =   -1687.8198372149888655 [Eh]

	 ================> DF-SCS-MP2 Energies <==================
	-----------------------------------------------------------
	 SCS Same-Spin Scale       =       0.3333333333333333 [-]
	 SCS Opposite-Spin Scale   =       1.2000000000000000 [-]
	 SCS Same-Spin Energy      =      -0.1800552763607677 [Eh]
	 SCS Opposite-Spin Energy  =      -1.9433170409170133 [Eh]
	 SCS Correlation Energy    =      -2.1233723172777812 [Eh]
	 SCS Total Energy          =   -1687.7836128357535017 [Eh]
	-----------------------------------------------------------

  Dipole Moment: [D]
     X:     1.6946      Y:    -0.0000      Z:     0.9698     Total:     1.9525

*** Psi4 exiting successfully. Buy a developer a beer!
