                               Psi4 1.3.2 release

  ==> Input File <==

--------------------------------------------------------------------------
#psi4
#
memory 32 gb

molecule  {
0 1
 Cl       -2.9118027    -0.0000041     0.9482971
 Cl       -1.2311530    -1.4484720    -0.9693440
 Cl       -1.2311580     1.4484760    -0.9693400
  C       -0.2962350     0.0000000     1.1437290
  C        1.1252770     0.0000000     0.6524850
  C       -1.3694210     0.0000000     0.0492630
  C        1.8035170    -1.2073330     0.4379420
  C        1.8035180     1.2073330     0.4379420
  C        3.1257690    -1.2076600    -0.0068740
  C        3.1257690     1.2076600    -0.0068730
  C        3.7894190     0.0000000    -0.2330360
  H       -0.4871660     0.8829540     1.7629540
  H       -0.4871650    -0.8829530     1.7629540
  H        1.2944460    -2.1507970     0.6220660
  H        1.2944470     2.1507980     0.6220670
  H        3.6405560    -2.1515660    -0.1688970
  H        3.6405570     2.1515660    -0.1688960
  H        4.8208550     0.0000000    -0.5768690
units angstrom
no_reorient  #important for SAPT in psi4, default
symmetry c1  #important for SAPT in psi4, default
}

set PROPERTIES_ORIGIN ["COM"]
properties('MP2/aug-cc-pvtz', properties = ['dipole'])
--------------------------------------------------------------------------

    Molecular point group: c1
  Charge       = 0
  Multiplicity = 1
  Basis Set: AUG-CC-PVTZ
    Blend: AUG-CC-PVTZ
  Basis Set: (AUG-CC-PVTZ AUX)
    Blend: AUG-CC-PVTZ-JKFIT

    Orbital Energies [Eh]
    ---------------------

    Doubly Occupied:

       1A   -104.858437     2A   -104.858436     3A   -104.857521
       4A    -11.435934     5A    -11.268955     6A    -11.253428
       7A    -11.244608     8A    -11.244561     9A    -11.243969
      10A    -11.242664    11A    -11.242203    12A    -10.582928
      13A    -10.582919    14A    -10.582059    15A     -8.049682
      16A     -8.049682    17A     -8.048789    18A     -8.047609
      19A     -8.047609    20A     -8.047579    21A     -8.047577
      22A     -8.046753    23A     -8.046723    24A     -1.245883
      25A     -1.161876    26A     -1.109074    27A     -1.107883
      28A     -1.064830    29A     -1.021578    30A     -0.972876
      31A     -0.836069    32A     -0.833283    33A     -0.787308
      34A     -0.704886    35A     -0.668325    36A     -0.657377
      37A     -0.640342    38A     -0.622809    39A     -0.616065
      40A     -0.593972    41A     -0.572914    42A     -0.546846
      43A     -0.512721    44A     -0.506139    45A     -0.500507
      46A     -0.494490    47A     -0.489184    48A     -0.458262
      49A     -0.457610    50A     -0.455640    51A     -0.445317
      52A     -0.342709    53A     -0.340012

  @DF-RHF Final Energy: -1685.66364736572064

   => Energetics <=

    Nuclear Repulsion Energy =            878.4288417160330482
    One-Electron Energy =               -4068.7901493450699490
    Two-Electron Energy =                1504.6976602633160383
    Total Energy =                      -1685.6636473657206352
  Basis Set: (AUG-CC-PVTZ AUX)
    Blend: AUG-CC-PVTZ-RI
    Molecular point group: c1

    Geometry (in Angstrom), charge = 0, multiplicity = 1:

       Center              X                  Y                   Z               Mass
    ------------   -----------------  -----------------  -----------------  -----------------
         CL          -2.830963768465    -0.000004092877     0.953356743169    34.968852682000
         CL          -1.150314068465    -1.448471992877    -0.964284356831    34.968852682000
         CL          -1.150319068465     1.448476007123    -0.964280356831    34.968852682000
         C           -0.215396068465     0.000000007123     1.148788643169    12.000000000000
         C            1.206115931535     0.000000007123     0.657544643169    12.000000000000
         C           -1.288582068465     0.000000007123     0.054322643169    12.000000000000
         C            1.884355931535    -1.207332992877     0.443001643169    12.000000000000
         C            1.884356931535     1.207333007123     0.443001643169    12.000000000000
         C            3.206607931535    -1.207659992877    -0.001814356831    12.000000000000
         C            3.206607931535     1.207660007123    -0.001813356831    12.000000000000
         C            3.870257931535     0.000000007123    -0.227976356831    12.000000000000
         H           -0.406327068465     0.882954007123     1.768013643169     1.007825032230
         H           -0.406326068465    -0.882952992877     1.768013643169     1.007825032230
         H            1.375284931535    -2.150796992877     0.627125643169     1.007825032230
         H            1.375285931535     2.150798007123     0.627126643169     1.007825032230
         H            3.721394931535    -2.151565992877    -0.163837356831     1.007825032230
         H            3.721395931535     2.151566007123    -0.163836356831     1.007825032230
         H            4.901693931535     0.000000007123    -0.571809356831     1.007825032230

  Basis Set: AUG-CC-PVTZ
    Blend: AUG-CC-PVTZ
  Basis Set: (AUG-CC-PVTZ AUX)
    Blend: AUG-CC-PVTZ-JKFIT
	 Reference Energy          =   -1685.6636473657206352 [Eh]
	 Singles Energy            =      -0.0000000000000000 [Eh]
	 Same-Spin Energy          =      -0.5397700519293065 [Eh]
	 Opposite-Spin Energy      =      -1.6187444713431747 [Eh]
	 Correlation Energy        =      -2.1585145232724812 [Eh]
	 Total Energy              =   -1687.8221618889931506 [Eh]

	 ================> DF-SCS-MP2 Energies <==================
	-----------------------------------------------------------
	 SCS Same-Spin Scale       =       0.3333333333333333 [-]
	 SCS Opposite-Spin Scale   =       1.2000000000000000 [-]
	 SCS Same-Spin Energy      =      -0.1799233506431022 [Eh]
	 SCS Opposite-Spin Energy  =      -1.9424933656118095 [Eh]
	 SCS Correlation Energy    =      -2.1224167162549117 [Eh]
	 SCS Total Energy          =   -1687.7860640819756100 [Eh]
	-----------------------------------------------------------

  Dipole Moment: [D]
     X:     1.5908      Y:    -0.0000      Z:     0.8688     Total:     1.8126

*** Psi4 exiting successfully. Buy a developer a beer!
