                               Psi4 1.3.2 release

  ==> Input File <==

--------------------------------------------------------------------------
#psi4
#
memory 32 gb

molecule  {
0 1
 Cl       -2.9707590    -0.0000040     0.8385160
 Cl       -1.2311530    -1.4484720    -0.9693440
 Cl       -1.2311580     1.4484760    -0.9693400
  C       -0.2962350     0.0000000     1.1437290
  C        1.1415552     0.0000000     0.7023943
  C       -1.3694210     0.0000000     0.0492630
  C        1.8035170    -1.2073330     0.4379420
  C        1.8035180     1.2073330     0.4379420
  C        3.1257690    -1.2076600    -0.0068740
  C        3.1257690     1.2076600    -0.0068730
  C        3.7894190     0.0000000    -0.2330360
  H       -0.4871660     0.8829540     1.7629540
  H       -0.4871650    -0.8829530     1.7629540
  H        1.2944460    -2.1507970     0.6220660
  H        1.2944470     2.1507980     0.6220670
  H        3.6405560    -2.1515660    -0.1688970
  H        3.6405570     2.1515660    -0.1688960
  H        4.8208550     0.0000000    -0.5768690
units angstrom
no_reorient  #important for SAPT in psi4, default
symmetry c1  #important for SAPT in psi4, default
}

set PROPERTIES_ORIGIN ["COM"]
properties('MP2/aug-cc-pvtz', properties = ['dipole'])
--------------------------------------------------------------------------

    Molecular point group: c1
  Charge       = 0
  Multiplicity = 1
  Basis Set: AUG-CC-PVTZ
    Blend: AUG-CC-PVTZ
  Basis Set: (AUG-CC-PVTZ AUX)
    Blend: AUG-CC-PVTZ-JKFIT

    Orbital Energies [Eh]
    ---------------------

    Doubly Occupied:

       1A   -104.857823     2A   -104.856633     3A   -104.856633
       4A    -11.436752     5A    -11.270314     6A    -11.254925
       7A    -11.245482     8A    -11.245477     9A    -11.244864
      10A    -11.243227    11A    -11.242829    12A    -10.582287
      13A    -10.581272    14A    -10.581263    15A     -8.049020
      16A     -8.048021    17A     -8.048021    18A     -8.046972
      19A     -8.046947    20A     -8.045951    21A     -8.045950
      22A     -8.045921    23A     -8.045920    24A     -1.245697
      25A     -1.162708    26A     -1.107063    27A     -1.106236
      28A     -1.066132    29A     -1.022188    30A     -0.974192
      31A     -0.836634    32A     -0.834518    33A     -0.787180
      34A     -0.704834    35A     -0.668128    36A     -0.656361
      37A     -0.643448    38A     -0.623035    39A     -0.615265
      40A     -0.594518    41A     -0.571512    42A     -0.548361
      43A     -0.513273    44A     -0.505539    45A     -0.501911
      46A     -0.493942    47A     -0.487913    48A     -0.460853
      49A     -0.455692    50A     -0.454877    51A     -0.443093
      52A     -0.343195    53A     -0.340908

  @DF-RHF Final Energy: -1685.66438428343804

   => Energetics <=

    Nuclear Repulsion Energy =            877.8603757459304688
    One-Electron Energy =               -4067.6660932109343776
    Two-Electron Energy =                1504.1413331815658694
    Total Energy =                      -1685.6643842834380393
  Basis Set: (AUG-CC-PVTZ AUX)
    Blend: AUG-CC-PVTZ-RI
    Molecular point group: c1

    Geometry (in Angstrom), charge = 0, multiplicity = 1:

       Center              X                  Y                   Z               Mass
    ------------   -----------------  -----------------  -----------------  -----------------
         CL          -2.880945824359    -0.000004009692     0.859155498627    34.968852682000
         CL          -1.141339824359    -1.448472009692    -0.948704501373    34.968852682000
         CL          -1.141344824359     1.448475990308    -0.948700501373    34.968852682000
         C           -0.206421824359    -0.000000009692     1.164368498627    12.000000000000
         C            1.231368375641    -0.000000009692     0.723033798627    12.000000000000
         C           -1.279607824359    -0.000000009692     0.069902498627    12.000000000000
         C            1.893330175641    -1.207333009692     0.458581498627    12.000000000000
         C            1.893331175641     1.207332990308     0.458581498627    12.000000000000
         C            3.215582175641    -1.207660009692     0.013765498627    12.000000000000
         C            3.215582175641     1.207659990308     0.013766498627    12.000000000000
         C            3.879232175641    -0.000000009692    -0.212396501373    12.000000000000
         H           -0.397352824359     0.882953990308     1.783593498627     1.007825032230
         H           -0.397351824359    -0.882953009692     1.783593498627     1.007825032230
         H            1.384259175641    -2.150797009692     0.642705498627     1.007825032230
         H            1.384260175641     2.150797990308     0.642706498627     1.007825032230
         H            3.730369175641    -2.151566009692    -0.148257501373     1.007825032230
         H            3.730370175641     2.151565990308    -0.148256501373     1.007825032230
         H            4.910668175641    -0.000000009692    -0.556229501373     1.007825032230

  Basis Set: AUG-CC-PVTZ
    Blend: AUG-CC-PVTZ
  Basis Set: (AUG-CC-PVTZ AUX)
    Blend: AUG-CC-PVTZ-JKFIT
	 Reference Energy          =   -1685.6643842834380393 [Eh]
	 Singles Energy            =      -0.0000000000000000 [Eh]
	 Same-Spin Energy          =      -0.5395728312390531 [Eh]
	 Opposite-Spin Energy      =      -1.6183780106704462 [Eh]
	 Correlation Energy        =      -2.1579508419094990 [Eh]
	 Total Energy              =   -1687.8223351253475357 [Eh]

	 ================> DF-SCS-MP2 Energies <==================
	-----------------------------------------------------------
	 SCS Same-Spin Scale       =       0.3333333333333333 [-]
	 SCS Opposite-Spin Scale   =       1.2000000000000000 [-]
	 SCS Same-Spin Energy      =      -0.1798576104130177 [Eh]
	 SCS Opposite-Spin Energy  =      -1.9420536128045354 [Eh]
	 SCS Correlation Energy    =      -2.1219112232175532 [Eh]
	 SCS Total Energy          =   -1687.7862955066555060 [Eh]
	-----------------------------------------------------------

  Dipole Moment: [D]
     X:     1.6383      Y:    -0.0000      Z:     0.9048     Total:     1.8716

*** Psi4 exiting successfully. Buy a developer a beer!
