                               Psi4 1.3.2 release

  ==> Input File <==

--------------------------------------------------------------------------
#psi4
#
memory 32 gb

molecule  {
0 1
 Cl       -2.9707590    -0.0000040     0.8385160
 Cl       -1.2311530    -1.4484720    -0.9693440
 Cl       -1.2311580     1.4484760    -0.9693400
  C       -0.2962350     0.0000000     1.1437290
  C        1.0661408     0.0000000     0.5065876
  C       -1.3694210     0.0000000     0.0492630
  C        1.8035170    -1.2073330     0.4379420
  C        1.8035180     1.2073330     0.4379420
  C        3.1257690    -1.2076600    -0.0068740
  C        3.1257690     1.2076600    -0.0068730
  C        3.7894190     0.0000000    -0.2330360
  H       -0.4871660     0.8829540     1.7629540
  H       -0.4871650    -0.8829530     1.7629540
  H        1.2944460    -2.1507970     0.6220660
  H        1.2944470     2.1507980     0.6220670
  H        3.6405560    -2.1515660    -0.1688970
  H        3.6405570     2.1515660    -0.1688960
  H        4.8208550     0.0000000    -0.5768690
units angstrom
no_reorient  #important for SAPT in psi4, default
symmetry c1  #important for SAPT in psi4, default
}

set PROPERTIES_ORIGIN ["COM"]
properties('MP2/aug-cc-pvtz', properties = ['dipole'])
--------------------------------------------------------------------------

    Molecular point group: c1
  Charge       = 0
  Multiplicity = 1
  Basis Set: AUG-CC-PVTZ
    Blend: AUG-CC-PVTZ
  Basis Set: (AUG-CC-PVTZ AUX)
    Blend: AUG-CC-PVTZ-JKFIT

    Orbital Energies [Eh]
    ---------------------

    Doubly Occupied:

       1A   -104.856024     2A   -104.856024     3A   -104.855107
       4A    -11.433573     5A    -11.272089     6A    -11.257418
       7A    -11.248019     8A    -11.247944     9A    -11.245639
      10A    -11.242921    11A    -11.242650    12A    -10.580696
      13A    -10.580687    14A    -10.579671    15A     -8.047440
      16A     -8.047440    17A     -8.046401    18A     -8.045375
      19A     -8.045375    20A     -8.045348    21A     -8.045347
      22A     -8.044381    23A     -8.044352    24A     -1.245920
      25A     -1.160518    26A     -1.106740    27A     -1.104963
      28A     -1.066386    29A     -1.021320    30A     -0.973359
      31A     -0.834316    32A     -0.831599    33A     -0.786355
      34A     -0.705798    35A     -0.667893    36A     -0.661400
      37A     -0.639716    38A     -0.620992    39A     -0.614126
      40A     -0.593585    41A     -0.573147    42A     -0.548885
      43A     -0.513176    44A     -0.504697    45A     -0.497982
      46A     -0.495244    47A     -0.490994    48A     -0.455594
      49A     -0.455589    50A     -0.454002    51A     -0.442134
      52A     -0.341892    53A     -0.339280

  @DF-RHF Final Energy: -1685.65438959475432

   => Energetics <=

    Nuclear Repulsion Energy =            879.5774863845940672
    One-Electron Energy =               -4071.1487032527375050
    Two-Electron Energy =                1505.9168272733891172
    Total Energy =                      -1685.6543895947543206
  Basis Set: (AUG-CC-PVTZ AUX)
    Blend: AUG-CC-PVTZ-RI
    Molecular point group: c1

    Geometry (in Angstrom), charge = 0, multiplicity = 1:

       Center              X                  Y                   Z               Mass
    ------------   -----------------  -----------------  -----------------  -----------------
         CL          -2.876594184630    -0.000004009692     0.870454139403    34.968852682000
         CL          -1.136988184630    -1.448472009692    -0.937405860597    34.968852682000
         CL          -1.136993184630     1.448475990308    -0.937401860597    34.968852682000
         C           -0.202070184630    -0.000000009692     1.175667139403    12.000000000000
         C            1.160305615370    -0.000000009692     0.538525739403    12.000000000000
         C           -1.275256184630    -0.000000009692     0.081201139403    12.000000000000
         C            1.897681815370    -1.207333009692     0.469880139403    12.000000000000
         C            1.897682815370     1.207332990308     0.469880139403    12.000000000000
         C            3.219933815370    -1.207660009692     0.025064139403    12.000000000000
         C            3.219933815370     1.207659990308     0.025065139403    12.000000000000
         C            3.883583815370    -0.000000009692    -0.201097860597    12.000000000000
         H           -0.393001184630     0.882953990308     1.794892139403     1.007825032230
         H           -0.393000184630    -0.882953009692     1.794892139403     1.007825032230
         H            1.388610815370    -2.150797009692     0.654004139403     1.007825032230
         H            1.388611815370     2.150797990308     0.654005139403     1.007825032230
         H            3.734720815370    -2.151566009692    -0.136958860597     1.007825032230
         H            3.734721815370     2.151565990308    -0.136957860597     1.007825032230
         H            4.915019815370    -0.000000009692    -0.544930860597     1.007825032230

  Basis Set: AUG-CC-PVTZ
    Blend: AUG-CC-PVTZ
  Basis Set: (AUG-CC-PVTZ AUX)
    Blend: AUG-CC-PVTZ-JKFIT
	 Reference Energy          =   -1685.6543895947543206 [Eh]
	 Singles Energy            =      -0.0000000000000000 [Eh]
	 Same-Spin Energy          =      -0.5406254157741970 [Eh]
	 Opposite-Spin Energy      =      -1.6204195246045461 [Eh]
	 Correlation Energy        =      -2.1610449403787433 [Eh]
	 Total Energy              =   -1687.8154345351331358 [Eh]

	 ================> DF-SCS-MP2 Energies <==================
	-----------------------------------------------------------
	 SCS Same-Spin Scale       =       0.3333333333333333 [-]
	 SCS Opposite-Spin Scale   =       1.2000000000000000 [-]
	 SCS Same-Spin Energy      =      -0.1802084719247323 [Eh]
	 SCS Opposite-Spin Energy  =      -1.9445034295254553 [Eh]
	 SCS Correlation Energy    =      -2.1247119014501878 [Eh]
	 SCS Total Energy          =   -1687.7791014962044756 [Eh]
	-----------------------------------------------------------

  Dipole Moment: [D]
     X:     1.7364      Y:    -0.0000      Z:     0.9843     Total:     1.9959

*** Psi4 exiting successfully. Buy a developer a beer!
