                               Psi4 1.3.2 release

  ==> Input File <==

--------------------------------------------------------------------------
#psi4
#
memory 32 gb

molecule  {
0 1
 Cl       -2.9707590    -0.0000040     0.8385160
 Cl       -1.2311530    -1.4484720    -0.9693440
 Cl       -1.2311580     1.4484760    -0.9693400
  C       -0.2962350     0.0000000     1.1437290
  C        1.1252770     0.0000000     0.6524850
  C       -1.3480544    -0.0449468     0.0296196
  C        1.8035170    -1.2073330     0.4379420
  C        1.8035180     1.2073330     0.4379420
  C        3.1257690    -1.2076600    -0.0068740
  C        3.1257690     1.2076600    -0.0068730
  C        3.7894190     0.0000000    -0.2330360
  H       -0.4871660     0.8829540     1.7629540
  H       -0.4871650    -0.8829530     1.7629540
  H        1.2944460    -2.1507970     0.6220660
  H        1.2944470     2.1507980     0.6220670
  H        3.6405560    -2.1515660    -0.1688970
  H        3.6405570     2.1515660    -0.1688960
  H        4.8208550     0.0000000    -0.5768690
units angstrom
no_reorient  #important for SAPT in psi4, default
symmetry c1  #important for SAPT in psi4, default
}

set PROPERTIES_ORIGIN ["COM"]
properties('MP2/aug-cc-pvtz', properties = ['dipole'])
--------------------------------------------------------------------------

    Molecular point group: c1
  Charge       = 0
  Multiplicity = 1
  Basis Set: AUG-CC-PVTZ
    Blend: AUG-CC-PVTZ
  Basis Set: (AUG-CC-PVTZ AUX)
    Blend: AUG-CC-PVTZ-JKFIT

    Orbital Energies [Eh]
    ---------------------

    Doubly Occupied:

       1A   -104.863897     2A   -104.852999     3A   -104.852987
       4A    -11.436493     5A    -11.270976     6A    -11.254860
       7A    -11.245677     8A    -11.245385     9A    -11.244841
      10A    -11.243509    11A    -11.243015    12A    -10.589155
      13A    -10.577384    14A    -10.577230    15A     -8.056017
      16A     -8.053806    17A     -8.053769    18A     -8.044090
      19A     -8.043908    20A     -8.042078    21A     -8.042052
      22A     -8.041934    23A     -8.041911    24A     -1.247375
      25A     -1.163012    26A     -1.113755    27A     -1.098377
      28A     -1.066601    29A     -1.022467    30A     -0.974220
      31A     -0.837046    32A     -0.833435    33A     -0.788045
      34A     -0.705566    35A     -0.668886    36A     -0.656876
      37A     -0.643124    38A     -0.624244    39A     -0.615287
      40A     -0.594840    41A     -0.572240    42A     -0.549301
      43A     -0.512499    44A     -0.506863    45A     -0.501993
      46A     -0.496997    47A     -0.486446    48A     -0.458260
      49A     -0.458236    50A     -0.451870    51A     -0.441846
      52A     -0.343548    53A     -0.340968

  @DF-RHF Final Energy: -1685.66340245164770

   => Energetics <=

    Nuclear Repulsion Energy =            878.5208848667534767
    One-Electron Energy =               -4068.9841793946634425
    Two-Electron Energy =                1504.7998920762622674
    Total Energy =                      -1685.6634024516476984
  Basis Set: (AUG-CC-PVTZ AUX)
    Blend: AUG-CC-PVTZ-RI
    Molecular point group: c1

    Geometry (in Angstrom), charge = 0, multiplicity = 1:

       Center              X                  Y                   Z               Mass
    ------------   -----------------  -----------------  -----------------  -----------------
         CL          -2.881239440480     0.002589557061     0.863168900478    34.968852682000
         CL          -1.141633440480    -1.445878442939    -0.944691099522    34.968852682000
         CL          -1.141638440480     1.451069557061    -0.944687099522    34.968852682000
         C           -0.206715440480     0.002593557061     1.168381900478    12.000000000000
         C            1.214796559520     0.002593557061     0.677137900478    12.000000000000
         C           -1.258534840480    -0.042353242939     0.054272500478    12.000000000000
         C            1.893036559520    -1.204739442939     0.462594900478    12.000000000000
         C            1.893037559520     1.209926557061     0.462594900478    12.000000000000
         C            3.215288559520    -1.205066442939     0.017778900478    12.000000000000
         C            3.215288559520     1.210253557061     0.017779900478    12.000000000000
         C            3.878938559520     0.002593557061    -0.208383099522    12.000000000000
         H           -0.397646440480     0.885547557061     1.787606900478     1.007825032230
         H           -0.397645440480    -0.880359442939     1.787606900478     1.007825032230
         H            1.383965559520    -2.148203442939     0.646718900478     1.007825032230
         H            1.383966559520     2.153391557061     0.646719900478     1.007825032230
         H            3.730075559520    -2.148972442939    -0.144244099522     1.007825032230
         H            3.730076559520     2.154159557061    -0.144243099522     1.007825032230
         H            4.910374559520     0.002593557061    -0.552216099522     1.007825032230

  Basis Set: AUG-CC-PVTZ
    Blend: AUG-CC-PVTZ
  Basis Set: (AUG-CC-PVTZ AUX)
    Blend: AUG-CC-PVTZ-JKFIT
	 Reference Energy          =   -1685.6634024516476984 [Eh]
	 Singles Energy            =      -0.0000000000000000 [Eh]
	 Same-Spin Energy          =      -0.5397706292095916 [Eh]
	 Opposite-Spin Energy      =      -1.6186003005822993 [Eh]
	 Correlation Energy        =      -2.1583709297918912 [Eh]
	 Total Energy              =   -1687.8217733814396979 [Eh]

	 ================> DF-SCS-MP2 Energies <==================
	-----------------------------------------------------------
	 SCS Same-Spin Scale       =       0.3333333333333333 [-]
	 SCS Opposite-Spin Scale   =       1.2000000000000000 [-]
	 SCS Same-Spin Energy      =      -0.1799235430698639 [Eh]
	 SCS Opposite-Spin Energy  =      -1.9423203606987591 [Eh]
	 SCS Correlation Energy    =      -2.1222439037686232 [Eh]
	 SCS Total Energy          =   -1687.7856463554162474 [Eh]
	-----------------------------------------------------------

  Dipole Moment: [D]
     X:     1.7651      Y:    -0.2355      Z:     0.8217     Total:     1.9612

*** Psi4 exiting successfully. Buy a developer a beer!
