                               Psi4 1.3.2 release

  ==> Input File <==

--------------------------------------------------------------------------
#psi4
#
memory 32 gb

molecule  {
0 1
 Cl       -2.9707590    -0.0000040     0.8385160
 Cl       -1.2311530    -1.4484720    -0.9693440
 Cl       -1.2311580     1.4484760    -0.9693400
  C       -0.2962350     0.0000000     1.1437290
  C        1.1252770     0.0000000     0.6524850
  C       -1.3796156     0.0224768     0.0595863
  C        1.8035170    -1.2073330     0.4379420
  C        1.8035180     1.2073330     0.4379420
  C        3.1257690    -1.2076600    -0.0068740
  C        3.1257690     1.2076600    -0.0068730
  C        3.7894190     0.0000000    -0.2330360
  H       -0.4871660     0.8829540     1.7629540
  H       -0.4871650    -0.8829530     1.7629540
  H        1.2944460    -2.1507970     0.6220660
  H        1.2944470     2.1507980     0.6220670
  H        3.6405560    -2.1515660    -0.1688970
  H        3.6405570     2.1515660    -0.1688960
  H        4.8208550     0.0000000    -0.5768690
units angstrom
no_reorient  #important for SAPT in psi4, default
symmetry c1  #important for SAPT in psi4, default
}

set PROPERTIES_ORIGIN ["COM"]
properties('MP2/aug-cc-pvtz', properties = ['dipole'])
--------------------------------------------------------------------------

    Molecular point group: c1
  Charge       = 0
  Multiplicity = 1
  Basis Set: AUG-CC-PVTZ
    Blend: AUG-CC-PVTZ
  Basis Set: (AUG-CC-PVTZ AUX)
    Blend: AUG-CC-PVTZ-JKFIT

    Orbital Energies [Eh]
    ---------------------

    Doubly Occupied:

       1A   -104.859369     2A   -104.858294     3A   -104.852669
       4A    -11.436097     5A    -11.270856     6A    -11.254875
       7A    -11.245258     8A    -11.245111     9A    -11.244515
      10A    -11.243023    11A    -11.242584    12A    -10.583993
      13A    -10.583058    14A    -10.577073    15A     -8.050754
      16A     -8.049834    17A     -8.048678    18A     -8.048649
      19A     -8.047734    20A     -8.047702    21A     -8.043776
      22A     -8.041770    23A     -8.041742    24A     -1.246087
      25A     -1.162685    26A     -1.110210    27A     -1.102718
      28A     -1.065969    29A     -1.022017    30A     -0.974552
      31A     -0.836558    32A     -0.833851    33A     -0.786924
      34A     -0.705046    35A     -0.667924    36A     -0.657335
      37A     -0.643383    38A     -0.622719    39A     -0.614947
      40A     -0.594382    41A     -0.572466    42A     -0.548383
      43A     -0.512606    44A     -0.506309    45A     -0.501202
      46A     -0.494082    47A     -0.488951    48A     -0.459841
      49A     -0.456849    50A     -0.453708    51A     -0.442660
      52A     -0.343010    53A     -0.340558

  @DF-RHF Final Energy: -1685.66479706886480

   => Energetics <=

    Nuclear Repulsion Energy =            878.3084934712097720
    One-Electron Energy =               -4068.5758845629648022
    Two-Electron Energy =                1504.6025940228903437
    Total Energy =                      -1685.6647970688648002
  Basis Set: (AUG-CC-PVTZ AUX)
    Blend: AUG-CC-PVTZ-RI
    Molecular point group: c1

    Geometry (in Angstrom), charge = 0, multiplicity = 1:

       Center              X                  Y                   Z               Mass
    ------------   -----------------  -----------------  -----------------  -----------------
         CL          -2.879418263466    -0.001300989260     0.861439730953    34.968852682000
         CL          -1.139812263466    -1.449768989260    -0.946420269047    34.968852682000
         CL          -1.139817263466     1.447179010740    -0.946416269047    34.968852682000
         C           -0.204894263466    -0.001296989260     1.166652730953    12.000000000000
         C            1.216617736534    -0.001296989260     0.675408730953    12.000000000000
         C           -1.288274863466     0.021179810740     0.082510030953    12.000000000000
         C            1.894857736534    -1.208629989260     0.460865730953    12.000000000000
         C            1.894858736534     1.206036010740     0.460865730953    12.000000000000
         C            3.217109736534    -1.208956989260     0.016049730953    12.000000000000
         C            3.217109736534     1.206363010740     0.016050730953    12.000000000000
         C            3.880759736534    -0.001296989260    -0.210112269047    12.000000000000
         H           -0.395825263466     0.881657010740     1.785877730953     1.007825032230
         H           -0.395824263466    -0.884249989260     1.785877730953     1.007825032230
         H            1.385786736534    -2.152093989260     0.644989730953     1.007825032230
         H            1.385787736534     2.149501010740     0.644990730953     1.007825032230
         H            3.731896736534    -2.152862989260    -0.145973269047     1.007825032230
         H            3.731897736534     2.150269010740    -0.145972269047     1.007825032230
         H            4.912195736534    -0.001296989260    -0.553945269047     1.007825032230

  Basis Set: AUG-CC-PVTZ
    Blend: AUG-CC-PVTZ
  Basis Set: (AUG-CC-PVTZ AUX)
    Blend: AUG-CC-PVTZ-JKFIT
	 Reference Energy          =   -1685.6647970688648002 [Eh]
	 Singles Energy            =      -0.0000000000000000 [Eh]
	 Same-Spin Energy          =      -0.5396586452078984 [Eh]
	 Opposite-Spin Energy      =      -1.6184508605553272 [Eh]
	 Correlation Energy        =      -2.1581095057632256 [Eh]
	 Total Energy              =   -1687.8229065746279502 [Eh]

	 ================> DF-SCS-MP2 Energies <==================
	-----------------------------------------------------------
	 SCS Same-Spin Scale       =       0.3333333333333333 [-]
	 SCS Opposite-Spin Scale   =       1.2000000000000000 [-]
	 SCS Same-Spin Energy      =      -0.1798862150692995 [Eh]
	 SCS Opposite-Spin Energy  =      -1.9421410326663926 [Eh]
	 SCS Correlation Energy    =      -2.1220272477356921 [Eh]
	 SCS Total Energy          =   -1687.7868243166005868 [Eh]
	-----------------------------------------------------------

  Dipole Moment: [D]
     X:     1.5885      Y:     0.1160      Z:     0.9846     Total:     1.8725

*** Psi4 exiting successfully. Buy a developer a beer!
