                               Psi4 1.3.2 release

  ==> Input File <==

--------------------------------------------------------------------------
#psi4
#
memory 32 gb

molecule  {
0 1
 Cl       -2.9707590    -0.0000040     0.8385160
 Cl       -1.2311530    -1.4484720    -0.9693440
 Cl       -1.2311580     1.4484760    -0.9693400
  C       -0.2962350     0.0000000     1.1437290
  C        1.1252770     0.0000000     0.6524850
  C       -1.3894801     0.0449468     0.0702398
  C        1.8035170    -1.2073330     0.4379420
  C        1.8035180     1.2073330     0.4379420
  C        3.1257690    -1.2076600    -0.0068740
  C        3.1257690     1.2076600    -0.0068730
  C        3.7894190     0.0000000    -0.2330360
  H       -0.4871660     0.8829540     1.7629540
  H       -0.4871650    -0.8829530     1.7629540
  H        1.2944460    -2.1507970     0.6220660
  H        1.2944470     2.1507980     0.6220670
  H        3.6405560    -2.1515660    -0.1688970
  H        3.6405570     2.1515660    -0.1688960
  H        4.8208550     0.0000000    -0.5768690
units angstrom
no_reorient  #important for SAPT in psi4, default
symmetry c1  #important for SAPT in psi4, default
}

set PROPERTIES_ORIGIN ["COM"]
properties('MP2/aug-cc-pvtz', properties = ['dipole'])
--------------------------------------------------------------------------

    Molecular point group: c1
  Charge       = 0
  Multiplicity = 1
  Basis Set: AUG-CC-PVTZ
    Blend: AUG-CC-PVTZ
  Basis Set: (AUG-CC-PVTZ AUX)
    Blend: AUG-CC-PVTZ-JKFIT

    Orbital Energies [Eh]
    ---------------------

    Doubly Occupied:

       1A   -104.861450     2A   -104.860052     3A   -104.848636
       4A    -11.436347     5A    -11.271018     6A    -11.254939
       7A    -11.245259     8A    -11.244964     9A    -11.244435
      10A    -11.242908    11A    -11.242456    12A    -10.586217
      13A    -10.584938    14A    -10.572849    15A     -8.053004
      16A     -8.051737    17A     -8.050893    18A     -8.050861
      19A     -8.049608    20A     -8.049572    21A     -8.039507
      22A     -8.037559    23A     -8.037533    24A     -1.246976
      25A     -1.162707    26A     -1.114157    27A     -1.098451
      28A     -1.065634    29A     -1.021900    30A     -0.974770
      31A     -0.836473    32A     -0.834056    33A     -0.786790
      34A     -0.704985    35A     -0.667734    36A     -0.657652
      37A     -0.644232    38A     -0.622798    39A     -0.614690
      40A     -0.594245    41A     -0.572756    42A     -0.548294
      43A     -0.512840    44A     -0.506396    45A     -0.500963
      46A     -0.494646    47A     -0.487756    48A     -0.459795
      49A     -0.458369    50A     -0.451728    51A     -0.441924
      52A     -0.342873    53A     -0.340428

  @DF-RHF Final Energy: -1685.66362733675760

   => Energetics <=

    Nuclear Repulsion Energy =            878.2393041117696839
    One-Electron Energy =               -4068.4383404980112573
    Two-Electron Energy =                1504.5354090494838601
    Total Energy =                      -1685.6636273367575996
  Basis Set: (AUG-CC-PVTZ AUX)
    Blend: AUG-CC-PVTZ-RI
    Molecular point group: c1

    Geometry (in Angstrom), charge = 0, multiplicity = 1:

       Center              X                  Y                   Z               Mass
    ------------   -----------------  -----------------  -----------------  -----------------
         CL          -2.878849051881    -0.002597576446     0.860824991674    34.968852682000
         CL          -1.139243051881    -1.451065576446    -0.947035008326    34.968852682000
         CL          -1.139248051881     1.445882423554    -0.947031008326    34.968852682000
         C           -0.204325051881    -0.002593576446     1.166037991674    12.000000000000
         C            1.217186948119    -0.002593576446     0.674793991674    12.000000000000
         C           -1.297570151881     0.042353223554     0.092548791674    12.000000000000
         C            1.895426948119    -1.209926576446     0.460250991674    12.000000000000
         C            1.895427948119     1.204739423554     0.460250991674    12.000000000000
         C            3.217678948119    -1.210253576446     0.015434991674    12.000000000000
         C            3.217678948119     1.205066423554     0.015435991674    12.000000000000
         C            3.881328948119    -0.002593576446    -0.210727008326    12.000000000000
         H           -0.395256051881     0.880360423554     1.785262991674     1.007825032230
         H           -0.395255051881    -0.885546576446     1.785262991674     1.007825032230
         H            1.386355948119    -2.153390576446     0.644374991674     1.007825032230
         H            1.386356948119     2.148204423554     0.644375991674     1.007825032230
         H            3.732465948119    -2.154159576446    -0.146588008326     1.007825032230
         H            3.732466948119     2.148972423554    -0.146587008326     1.007825032230
         H            4.912764948119    -0.002593576446    -0.554560008326     1.007825032230

  Basis Set: AUG-CC-PVTZ
    Blend: AUG-CC-PVTZ
  Basis Set: (AUG-CC-PVTZ AUX)
    Blend: AUG-CC-PVTZ-JKFIT
	 Reference Energy          =   -1685.6636273367575996 [Eh]
	 Singles Energy            =      -0.0000000000000000 [Eh]
	 Same-Spin Energy          =      -0.5397243905813385 [Eh]
	 Opposite-Spin Energy      =      -1.6185407798171974 [Eh]
	 Correlation Energy        =      -2.1582651703985358 [Eh]
	 Total Energy              =   -1687.8218925071562353 [Eh]

	 ================> DF-SCS-MP2 Energies <==================
	-----------------------------------------------------------
	 SCS Same-Spin Scale       =       0.3333333333333333 [-]
	 SCS Opposite-Spin Scale   =       1.2000000000000000 [-]
	 SCS Same-Spin Energy      =      -0.1799081301937795 [Eh]
	 SCS Opposite-Spin Energy  =      -1.9422489357806367 [Eh]
	 SCS Correlation Energy    =      -2.1221570659744162 [Eh]
	 SCS Total Energy          =   -1687.7857844027319061 [Eh]
	-----------------------------------------------------------

  Dipole Moment: [D]
     X:     1.5331      Y:     0.2317      Z:     1.0400     Total:     1.8670

*** Psi4 exiting successfully. Buy a developer a beer!
