                               Psi4 1.3.2 release

  ==> Input File <==

--------------------------------------------------------------------------
#psi4
#
memory 32 gb

molecule  {
0 1
 Cl       -2.9567407    -0.0000040     0.8663430
 Cl       -1.2311530    -1.4484720    -0.9693440
 Cl       -1.2311580     1.4484760    -0.9693400
  C       -0.2962350     0.0000000     1.1437290
  C        1.1252770     0.0000000     0.6524850
  C       -1.3694210     0.0000000     0.0492630
  C        1.8035170    -1.2073330     0.4379420
  C        1.8035180     1.2073330     0.4379420
  C        3.1257690    -1.2076600    -0.0068740
  C        3.1257690     1.2076600    -0.0068730
  C        3.7894190     0.0000000    -0.2330360
  H       -0.4871660     0.8829540     1.7629540
  H       -0.4871650    -0.8829530     1.7629540
  H        1.2944460    -2.1507970     0.6220660
  H        1.2944470     2.1507980     0.6220670
  H        3.6405560    -2.1515660    -0.1688970
  H        3.6405570     2.1515660    -0.1688960
  H        4.8208550     0.0000000    -0.5768690
units angstrom
no_reorient  #important for SAPT in psi4, default
symmetry c1  #important for SAPT in psi4, default
}

set PROPERTIES_ORIGIN ["COM"]
properties('MP2/aug-cc-pvtz', properties = ['dipole'])
--------------------------------------------------------------------------

    Molecular point group: c1
  Charge       = 0
  Multiplicity = 1
  Basis Set: AUG-CC-PVTZ
    Blend: AUG-CC-PVTZ
  Basis Set: (AUG-CC-PVTZ AUX)
    Blend: AUG-CC-PVTZ-JKFIT

    Orbital Energies [Eh]
    ---------------------

    Doubly Occupied:

       1A   -104.857362     2A   -104.857016     3A   -104.857016
       4A    -11.436026     5A    -11.270333     6A    -11.254501
       7A    -11.245117     8A    -11.245100     9A    -11.244456
      10A    -11.243042    11A    -11.242596    12A    -10.581856
      13A    -10.581622    14A    -10.581613    15A     -8.048589
      16A     -8.048372    17A     -8.048371    18A     -8.046550
      19A     -8.046522    20A     -8.046301    21A     -8.046301
      22A     -8.046272    23A     -8.046270    24A     -1.245783
      25A     -1.162512    26A     -1.107238    27A     -1.106752
      28A     -1.065901    29A     -1.022012    30A     -0.974026
      31A     -0.836535    32A     -0.833579    33A     -0.787197
      34A     -0.705090    35A     -0.668214    36A     -0.657163
      37A     -0.642236    38A     -0.622945    39A     -0.615357
      40A     -0.594393    41A     -0.572421    42A     -0.548133
      43A     -0.512504    44A     -0.506310    45A     -0.501230
      46A     -0.494450    47A     -0.489119    48A     -0.458873
      49A     -0.456233    50A     -0.455537    51A     -0.443555
      52A     -0.343058    53A     -0.340527

  @DF-RHF Final Energy: -1685.66502517940648

   => Energetics <=

    Nuclear Repulsion Energy =            878.3660723546316831
    One-Electron Energy =               -4068.6820224869993581
    Two-Electron Energy =                1504.6509249529610770
    Total Energy =                      -1685.6650251794064843
  Basis Set: (AUG-CC-PVTZ AUX)
    Blend: AUG-CC-PVTZ-RI
    Molecular point group: c1

    Geometry (in Angstrom), charge = 0, multiplicity = 1:

       Center              X                  Y                   Z               Mass
    ------------   -----------------  -----------------  -----------------  -----------------
         CL          -2.868345410381    -0.000004009692     0.885183285967    34.968852682000
         CL          -1.142757710381    -1.448472009692    -0.950503714033    34.968852682000
         CL          -1.142762710381     1.448475990308    -0.950499714033    34.968852682000
         C           -0.207839710381    -0.000000009692     1.162569285967    12.000000000000
         C            1.213672289619    -0.000000009692     0.671325285967    12.000000000000
         C           -1.281025710381    -0.000000009692     0.068103285967    12.000000000000
         C            1.891912289619    -1.207333009692     0.456782285967    12.000000000000
         C            1.891913289619     1.207332990308     0.456782285967    12.000000000000
         C            3.214164289619    -1.207660009692     0.011966285967    12.000000000000
         C            3.214164289619     1.207659990308     0.011967285967    12.000000000000
         C            3.877814289619    -0.000000009692    -0.214195714033    12.000000000000
         H           -0.398770710381     0.882953990308     1.781794285967     1.007825032230
         H           -0.398769710381    -0.882953009692     1.781794285967     1.007825032230
         H            1.382841289619    -2.150797009692     0.640906285967     1.007825032230
         H            1.382842289619     2.150797990308     0.640907285967     1.007825032230
         H            3.728951289619    -2.151566009692    -0.150056714033     1.007825032230
         H            3.728952289619     2.151565990308    -0.150055714033     1.007825032230
         H            4.909250289619    -0.000000009692    -0.558028714033     1.007825032230

  Basis Set: AUG-CC-PVTZ
    Blend: AUG-CC-PVTZ
  Basis Set: (AUG-CC-PVTZ AUX)
    Blend: AUG-CC-PVTZ-JKFIT
	 Reference Energy          =   -1685.6650251794064843 [Eh]
	 Singles Energy            =      -0.0000000000000000 [Eh]
	 Same-Spin Energy          =      -0.5396619038003083 [Eh]
	 Opposite-Spin Energy      =      -1.6184853045055991 [Eh]
	 Correlation Energy        =      -2.1581472083059072 [Eh]
	 Total Energy              =   -1687.8231723877124750 [Eh]

	 ================> DF-SCS-MP2 Energies <==================
	-----------------------------------------------------------
	 SCS Same-Spin Scale       =       0.3333333333333333 [-]
	 SCS Opposite-Spin Scale   =       1.2000000000000000 [-]
	 SCS Same-Spin Energy      =      -0.1798873012667694 [Eh]
	 SCS Opposite-Spin Energy  =      -1.9421823654067190 [Eh]
	 SCS Correlation Energy    =      -2.1220696666734886 [Eh]
	 SCS Total Energy          =   -1687.7870948460799809 [Eh]
	-----------------------------------------------------------

  Dipole Moment: [D]
     X:     1.6321      Y:    -0.0000      Z:     0.9146     Total:     1.8709

*** Psi4 exiting successfully. Buy a developer a beer!
