                               Psi4 1.3.2 release

  ==> Input File <==

--------------------------------------------------------------------------
#psi4
#
memory 32 gb

molecule  {
0 1
 Cl       -2.9707590    -0.0000040     0.8385160
 Cl       -1.2311530    -1.4484720    -0.9693440
 Cl       -1.2311580     1.4484760    -0.9693400
  C       -0.2962350     0.0000000     1.1437290
  C        1.1252770     0.0000000     0.6524850
  C       -1.4082072     0.0898387     0.0925246
  C        1.8035170    -1.2073330     0.4379420
  C        1.8035180     1.2073330     0.4379420
  C        3.1257690    -1.2076600    -0.0068740
  C        3.1257690     1.2076600    -0.0068730
  C        3.7894190     0.0000000    -0.2330360
  H       -0.4871660     0.8829540     1.7629540
  H       -0.4871650    -0.8829530     1.7629540
  H        1.2944460    -2.1507970     0.6220660
  H        1.2944470     2.1507980     0.6220670
  H        3.6405560    -2.1515660    -0.1688970
  H        3.6405570     2.1515660    -0.1688960
  H        4.8208550     0.0000000    -0.5768690
units angstrom
no_reorient  #important for SAPT in psi4, default
symmetry c1  #important for SAPT in psi4, default
}

set PROPERTIES_ORIGIN ["COM"]
properties('MP2/aug-cc-pvtz', properties = ['dipole'])
--------------------------------------------------------------------------

    Molecular point group: c1
  Charge       = 0
  Multiplicity = 1
  Basis Set: AUG-CC-PVTZ
    Blend: AUG-CC-PVTZ
  Basis Set: (AUG-CC-PVTZ AUX)
    Blend: AUG-CC-PVTZ-JKFIT

    Orbital Energies [Eh]
    ---------------------

    Doubly Occupied:

       1A   -104.865642     2A   -104.863632     3A   -104.839992
       4A    -11.437464     5A    -11.271658     6A    -11.255155
       7A    -11.245326     8A    -11.244731     9A    -11.244314
      10A    -11.242743    11A    -11.242219    12A    -10.590701
      13A    -10.588753    14A    -10.563958    15A     -8.057543
      16A     -8.055595    17A     -8.055358    18A     -8.055319
      19A     -8.053406    20A     -8.053362    21A     -8.030533
      22A     -8.028694    23A     -8.028670    24A     -1.250199
      25A     -1.162864    26A     -1.122109    27A     -1.089736
      28A     -1.064482    29A     -1.021712    30A     -0.975376
      31A     -0.836471    32A     -0.834518    33A     -0.786860
      34A     -0.705033    35A     -0.667740    36A     -0.658484
      37A     -0.646555    38A     -0.623895    39A     -0.614050
      40A     -0.594003    41A     -0.573586    42A     -0.548391
      43A     -0.513487    44A     -0.506953    45A     -0.500596
      46A     -0.496387    47A     -0.485295    48A     -0.463308
      49A     -0.455773    50A     -0.446880    51A     -0.439255
      52A     -0.342659    53A     -0.340180

  @DF-RHF Final Energy: -1685.65914498096163

   => Energetics <=

    Nuclear Repulsion Energy =            878.0973391856358603
    One-Electron Energy =               -4068.1497596699227870
    Two-Electron Energy =                1504.3932755033251851
    Total Energy =                      -1685.6591449809616279
  Basis Set: (AUG-CC-PVTZ AUX)
    Blend: AUG-CC-PVTZ-RI
    Molecular point group: c1

    Geometry (in Angstrom), charge = 0, multiplicity = 1:

       Center              X                  Y                   Z               Mass
    ------------   -----------------  -----------------  -----------------  -----------------
         CL          -2.877768441383    -0.005187975303     0.859539091090    34.968852682000
         CL          -1.138162441383    -1.453655975303    -0.948320908910    34.968852682000
         CL          -1.138167441383     1.443292024697    -0.948316908910    34.968852682000
         C           -0.203244441383    -0.005183975303     1.164752091090    12.000000000000
         C            1.218267558617    -0.005183975303     0.673508091090    12.000000000000
         C           -1.315216641383     0.084654724697     0.113547691090    12.000000000000
         C            1.896507558617    -1.212516975303     0.458965091090    12.000000000000
         C            1.896508558617     1.202149024697     0.458965091090    12.000000000000
         C            3.218759558617    -1.212843975303     0.014149091090    12.000000000000
         C            3.218759558617     1.202476024697     0.014150091090    12.000000000000
         C            3.882409558617    -0.005183975303    -0.212012908910    12.000000000000
         H           -0.394175441383     0.877770024697     1.783977091090     1.007825032230
         H           -0.394174441383    -0.888136975303     1.783977091090     1.007825032230
         H            1.387436558617    -2.155980975303     0.643089091090     1.007825032230
         H            1.387437558617     2.145614024697     0.643090091090     1.007825032230
         H            3.733546558617    -2.156749975303    -0.147873908910     1.007825032230
         H            3.733547558617     2.146382024697    -0.147872908910     1.007825032230
         H            4.913845558617    -0.005183975303    -0.555845908910     1.007825032230

  Basis Set: AUG-CC-PVTZ
    Blend: AUG-CC-PVTZ
  Basis Set: (AUG-CC-PVTZ AUX)
    Blend: AUG-CC-PVTZ-JKFIT
	 Reference Energy          =   -1685.6591449809616279 [Eh]
	 Singles Energy            =      -0.0000000000000000 [Eh]
	 Same-Spin Energy          =      -0.5399900877513355 [Eh]
	 Opposite-Spin Energy      =      -1.6188945991500967 [Eh]
	 Correlation Energy        =      -2.1588846869014322 [Eh]
	 Total Energy              =   -1687.8180296678631294 [Eh]

	 ================> DF-SCS-MP2 Energies <==================
	-----------------------------------------------------------
	 SCS Same-Spin Scale       =       0.3333333333333333 [-]
	 SCS Opposite-Spin Scale   =       1.2000000000000000 [-]
	 SCS Same-Spin Energy      =      -0.1799966959171118 [Eh]
	 SCS Opposite-Spin Energy  =      -1.9426735189801159 [Eh]
	 SCS Correlation Energy    =      -2.1226702148972278 [Eh]
	 SCS Total Energy          =   -1687.7818151958588260 [Eh]
	-----------------------------------------------------------

  Dipole Moment: [D]
     X:     1.4260      Y:     0.4635      Z:     1.1542     Total:     1.8922

*** Psi4 exiting successfully. Buy a developer a beer!
