                               Psi4 1.3.2 release

  ==> Input File <==

--------------------------------------------------------------------------
#psi4
#
memory 32 gb

molecule  {
0 1
 Cl       -2.9707590    -0.0000040     0.8385160
 Cl       -1.2311530    -1.4484720    -0.9693440
 Cl       -1.2311580     1.4484760    -0.9693400
  C       -0.2962350     0.0000000     1.1437290
  C        1.1336339     0.0000000     0.6773686
  C       -1.3694210     0.0000000     0.0492630
  C        1.8035170    -1.2073330     0.4379420
  C        1.8035180     1.2073330     0.4379420
  C        3.1257690    -1.2076600    -0.0068740
  C        3.1257690     1.2076600    -0.0068730
  C        3.7894190     0.0000000    -0.2330360
  H       -0.4871660     0.8829540     1.7629540
  H       -0.4871650    -0.8829530     1.7629540
  H        1.2944460    -2.1507970     0.6220660
  H        1.2944470     2.1507980     0.6220670
  H        3.6405560    -2.1515660    -0.1688970
  H        3.6405570     2.1515660    -0.1688960
  H        4.8208550     0.0000000    -0.5768690
units angstrom
no_reorient  #important for SAPT in psi4, default
symmetry c1  #important for SAPT in psi4, default
}

set PROPERTIES_ORIGIN ["COM"]
properties('MP2/aug-cc-pvtz', properties = ['dipole'])
--------------------------------------------------------------------------

    Molecular point group: c1
  Charge       = 0
  Multiplicity = 1
  Basis Set: AUG-CC-PVTZ
    Blend: AUG-CC-PVTZ
  Basis Set: (AUG-CC-PVTZ AUX)
    Blend: AUG-CC-PVTZ-JKFIT

    Orbital Energies [Eh]
    ---------------------

    Doubly Occupied:

       1A   -104.857560     2A   -104.856590     3A   -104.856590
       4A    -11.436406     5A    -11.270557     6A    -11.254822
       7A    -11.245325     8A    -11.245308     9A    -11.244691
      10A    -11.243192    11A    -11.242767    12A    -10.582036
      13A    -10.581232    14A    -10.581223    15A     -8.048769
      16A     -8.047981    17A     -8.047981    18A     -8.046724
      19A     -8.046698    20A     -8.045911    21A     -8.045911
      22A     -8.045882    23A     -8.045880    24A     -1.245749
      25A     -1.162761    26A     -1.107048    27A     -1.106126
      28A     -1.066180    29A     -1.022185    30A     -0.974323
      31A     -0.836713    32A     -0.834087    33A     -0.787196
      34A     -0.705004    35A     -0.668172    36A     -0.656673
      37A     -0.643189    38A     -0.623052    39A     -0.615199
      40A     -0.594543    41A     -0.571923    42A     -0.548473
      43A     -0.512842    44A     -0.505981    45A     -0.501730
      46A     -0.494221    47A     -0.488543    48A     -0.460283
      49A     -0.455731    50A     -0.454815    51A     -0.443018
      52A     -0.343208    53A     -0.340815

  @DF-RHF Final Energy: -1685.66505251174635

   => Energetics <=

    Nuclear Repulsion Energy =            878.1266945106991670
    One-Electron Energy =               -4068.2038536732529792
    Two-Electron Energy =                1504.4121066508075728
    Total Energy =                      -1685.6650525117463530
  Basis Set: (AUG-CC-PVTZ AUX)
    Blend: AUG-CC-PVTZ-RI
    Molecular point group: c1

    Geometry (in Angstrom), charge = 0, multiplicity = 1:

       Center              X                  Y                   Z               Mass
    ------------   -----------------  -----------------  -----------------  -----------------
         CL          -2.880488741311    -0.000004009692     0.860599557459    34.968852682000
         CL          -1.140882741311    -1.448472009692    -0.947260442541    34.968852682000
         CL          -1.140887741311     1.448475990308    -0.947256442541    34.968852682000
         C           -0.205964741311    -0.000000009692     1.165812557459    12.000000000000
         C            1.223904158689    -0.000000009692     0.699452157459    12.000000000000
         C           -1.279150741311    -0.000000009692     0.071346557459    12.000000000000
         C            1.893787258689    -1.207333009692     0.460025557459    12.000000000000
         C            1.893788258689     1.207332990308     0.460025557459    12.000000000000
         C            3.216039258689    -1.207660009692     0.015209557459    12.000000000000
         C            3.216039258689     1.207659990308     0.015210557459    12.000000000000
         C            3.879689258689    -0.000000009692    -0.210952442541    12.000000000000
         H           -0.396895741311     0.882953990308     1.785037557459     1.007825032230
         H           -0.396894741311    -0.882953009692     1.785037557459     1.007825032230
         H            1.384716258689    -2.150797009692     0.644149557459     1.007825032230
         H            1.384717258689     2.150797990308     0.644150557459     1.007825032230
         H            3.730826258689    -2.151566009692    -0.146813442541     1.007825032230
         H            3.730827258689     2.151565990308    -0.146812442541     1.007825032230
         H            4.911125258689    -0.000000009692    -0.554785442541     1.007825032230

  Basis Set: AUG-CC-PVTZ
    Blend: AUG-CC-PVTZ
  Basis Set: (AUG-CC-PVTZ AUX)
    Blend: AUG-CC-PVTZ-JKFIT
	 Reference Energy          =   -1685.6650525117463530 [Eh]
	 Singles Energy            =      -0.0000000000000000 [Eh]
	 Same-Spin Energy          =      -0.5395912256626064 [Eh]
	 Opposite-Spin Energy      =      -1.6183631020796931 [Eh]
	 Correlation Energy        =      -2.1579543277422997 [Eh]
	 Total Energy              =   -1687.8230068394886985 [Eh]

	 ================> DF-SCS-MP2 Energies <==================
	-----------------------------------------------------------
	 SCS Same-Spin Scale       =       0.3333333333333333 [-]
	 SCS Opposite-Spin Scale   =       1.2000000000000000 [-]
	 SCS Same-Spin Energy      =      -0.1798637418875355 [Eh]
	 SCS Opposite-Spin Energy  =      -1.9420357224956317 [Eh]
	 SCS Correlation Energy    =      -2.1218994643831670 [Eh]
	 SCS Total Energy          =   -1687.7869519761295578 [Eh]
	-----------------------------------------------------------

  Dipole Moment: [D]
     X:     1.6405      Y:    -0.0000      Z:     0.9178     Total:     1.8798

*** Psi4 exiting successfully. Buy a developer a beer!
