                               Psi4 1.3.2 release

  ==> Input File <==

--------------------------------------------------------------------------
#psi4
#
memory 32 gb

molecule  {
0 1
 Cl       -2.9707590    -0.0000040     0.8385160
 Cl       -1.2311530    -1.4484720    -0.9693440
 Cl       -1.2311580     1.4484760    -0.9693400
  C       -0.2962350     0.0000000     1.1437290
  C        1.1072669     0.0000000     0.6031742
  C       -1.3694210     0.0000000     0.0492630
  C        1.8035170    -1.2073330     0.4379420
  C        1.8035180     1.2073330     0.4379420
  C        3.1257690    -1.2076600    -0.0068740
  C        3.1257690     1.2076600    -0.0068730
  C        3.7894190     0.0000000    -0.2330360
  H       -0.4871660     0.8829540     1.7629540
  H       -0.4871650    -0.8829530     1.7629540
  H        1.2944460    -2.1507970     0.6220660
  H        1.2944470     2.1507980     0.6220670
  H        3.6405560    -2.1515660    -0.1688970
  H        3.6405570     2.1515660    -0.1688960
  H        4.8208550     0.0000000    -0.5768690
units angstrom
no_reorient  #important for SAPT in psi4, default
symmetry c1  #important for SAPT in psi4, default
}

set PROPERTIES_ORIGIN ["COM"]
properties('MP2/aug-cc-pvtz', properties = ['dipole'])
--------------------------------------------------------------------------

    Molecular point group: c1
  Charge       = 0
  Multiplicity = 1
  Basis Set: AUG-CC-PVTZ
    Blend: AUG-CC-PVTZ
  Basis Set: (AUG-CC-PVTZ AUX)
    Blend: AUG-CC-PVTZ-JKFIT

    Orbital Energies [Eh]
    ---------------------

    Doubly Occupied:

       1A   -104.856650     2A   -104.856412     3A   -104.856412
       4A    -11.435276     5A    -11.271259     6A    -11.255238
       7A    -11.245612     8A    -11.245571     9A    -11.244681
      10A    -11.243107    11A    -11.242676    12A    -10.581159
      13A    -10.581064    14A    -10.581055    15A     -8.047889
      16A     -8.047811    17A     -8.047811    18A     -8.045856
      19A     -8.045828    20A     -8.045743    21A     -8.045743
      22A     -8.045714    23A     -8.045713    24A     -1.245865
      25A     -1.162345    26A     -1.106965    27A     -1.105715
      28A     -1.066297    29A     -1.021982    30A     -0.974317
      31A     -0.836298    32A     -0.832911    33A     -0.787025
      34A     -0.705437    35A     -0.668174    36A     -0.658237
      37A     -0.641972    38A     -0.622619    39A     -0.614875
      40A     -0.594377    41A     -0.572810    42A     -0.548735
      43A     -0.511996    44A     -0.506658    45A     -0.500697
      46A     -0.494833    47A     -0.489983    48A     -0.458422
      49A     -0.455763    50A     -0.454558    51A     -0.442724
      52A     -0.342931    53A     -0.340344

  @DF-RHF Final Energy: -1685.66381625060626

   => Energetics <=

    Nuclear Repulsion Energy =            878.8351350963711184
    One-Electron Energy =               -4069.6376169179225144
    Two-Electron Energy =                1505.1386655709450224
    Total Energy =                      -1685.6638162506062599
  Basis Set: (AUG-CC-PVTZ AUX)
    Blend: AUG-CC-PVTZ-RI
    Molecular point group: c1

    Geometry (in Angstrom), charge = 0, multiplicity = 1:

       Center              X                  Y                   Z               Mass
    ------------   -----------------  -----------------  -----------------  -----------------
         CL          -2.878967285399    -0.000004009692     0.864880799486    34.968852682000
         CL          -1.139361285399    -1.448472009692    -0.942979200514    34.968852682000
         CL          -1.139366285399     1.448475990308    -0.942975200514    34.968852682000
         C           -0.204443285399    -0.000000009692     1.170093799486    12.000000000000
         C            1.199058614601    -0.000000009692     0.629538999486    12.000000000000
         C           -1.277629285399    -0.000000009692     0.075627799486    12.000000000000
         C            1.895308714601    -1.207333009692     0.464306799486    12.000000000000
         C            1.895309714601     1.207332990308     0.464306799486    12.000000000000
         C            3.217560714601    -1.207660009692     0.019490799486    12.000000000000
         C            3.217560714601     1.207659990308     0.019491799486    12.000000000000
         C            3.881210714601    -0.000000009692    -0.206671200514    12.000000000000
         H           -0.395374285399     0.882953990308     1.789318799486     1.007825032230
         H           -0.395373285399    -0.882953009692     1.789318799486     1.007825032230
         H            1.386237714601    -2.150797009692     0.648430799486     1.007825032230
         H            1.386238714601     2.150797990308     0.648431799486     1.007825032230
         H            3.732347714601    -2.151566009692    -0.142532200514     1.007825032230
         H            3.732348714601     2.151565990308    -0.142531200514     1.007825032230
         H            4.912646714601    -0.000000009692    -0.550504200514     1.007825032230

  Basis Set: AUG-CC-PVTZ
    Blend: AUG-CC-PVTZ
  Basis Set: (AUG-CC-PVTZ AUX)
    Blend: AUG-CC-PVTZ-JKFIT
	 Reference Energy          =   -1685.6638162506062599 [Eh]
	 Singles Energy            =      -0.0000000000000000 [Eh]
	 Same-Spin Energy          =      -0.5398401370576690 [Eh]
	 Opposite-Spin Energy      =      -1.6187715663432949 [Eh]
	 Correlation Energy        =      -2.1586117034009638 [Eh]
	 Total Energy              =   -1687.8224279540072530 [Eh]

	 ================> DF-SCS-MP2 Energies <==================
	-----------------------------------------------------------
	 SCS Same-Spin Scale       =       0.3333333333333333 [-]
	 SCS Opposite-Spin Scale   =       1.2000000000000000 [-]
	 SCS Same-Spin Energy      =      -0.1799467123525563 [Eh]
	 SCS Opposite-Spin Energy  =      -1.9425258796119538 [Eh]
	 SCS Correlation Energy    =      -2.1224725919645100 [Eh]
	 SCS Total Energy          =   -1687.7862888425706842 [Eh]
	-----------------------------------------------------------

  Dipole Moment: [D]
     X:     1.6643      Y:    -0.0000      Z:     0.9517     Total:     1.9172

*** Psi4 exiting successfully. Buy a developer a beer!
