                               Psi4 1.3.2 release

  ==> Input File <==

--------------------------------------------------------------------------
#psi4
#
memory 32 gb

molecule  {
0 1
 Cl       -2.9707590    -0.0000040     0.8385160
 Cl       -1.2311530    -1.4484720    -0.9693440
 Cl       -1.2311580     1.4484760    -0.9693400
  C       -0.2962350     0.0000000     1.1437290
  C        1.1252770     0.0000000     0.6524850
  C       -1.3015043    -0.1346213    -0.0055728
  C        1.8035170    -1.2073330     0.4379420
  C        1.8035180     1.2073330     0.4379420
  C        3.1257690    -1.2076600    -0.0068740
  C        3.1257690     1.2076600    -0.0068730
  C        3.7894190     0.0000000    -0.2330360
  H       -0.4871660     0.8829540     1.7629540
  H       -0.4871650    -0.8829530     1.7629540
  H        1.2944460    -2.1507970     0.6220660
  H        1.2944470     2.1507980     0.6220670
  H        3.6405560    -2.1515660    -0.1688970
  H        3.6405570     2.1515660    -0.1688960
  H        4.8208550     0.0000000    -0.5768690
units angstrom
no_reorient  #important for SAPT in psi4, default
symmetry c1  #important for SAPT in psi4, default
}

set PROPERTIES_ORIGIN ["COM"]
properties('MP2/aug-cc-pvtz', properties = ['dipole'])
--------------------------------------------------------------------------

    Molecular point group: c1
  Charge       = 0
  Multiplicity = 1
  Basis Set: AUG-CC-PVTZ
    Blend: AUG-CC-PVTZ
  Basis Set: (AUG-CC-PVTZ AUX)
    Blend: AUG-CC-PVTZ-JKFIT

    Orbital Energies [Eh]
    ---------------------

    Doubly Occupied:

       1A   -104.877917     2A   -104.845270     3A   -104.843558
       4A    -11.439339     5A    -11.272500     6A    -11.255273
       7A    -11.246766     8A    -11.245895     9A    -11.245488
      10A    -11.244469    11A    -11.243751    12A    -10.605009
      13A    -10.569249    14A    -10.567407    15A     -8.072130
      16A     -8.069553    17A     -8.069493    18A     -8.035858
      19A     -8.033978    20A     -8.033955    21A     -8.033931
      22A     -8.032125    23A     -8.032110    24A     -1.261429
      25A     -1.164843    26A     -1.120803    27A     -1.082767
      28A     -1.067036    29A     -1.023331    30A     -0.974468
      31A     -0.838185    32A     -0.833488    33A     -0.791396
      34A     -0.707042    35A     -0.670529    36A     -0.657681
      37A     -0.650771    38A     -0.626666    39A     -0.616688
      40A     -0.595590    41A     -0.573815    42A     -0.552581
      43A     -0.514941    44A     -0.508407    45A     -0.501674
      46A     -0.499961    47A     -0.477079    48A     -0.460480
      49A     -0.452557    50A     -0.447381    51A     -0.433853
      52A     -0.344586    53A     -0.341584

  @DF-RHF Final Energy: -1685.64837903242824

   => Energetics <=

    Nuclear Repulsion Energy =            878.8467813939196276
    One-Electron Energy =               -4069.5770509412877800
    Two-Electron Energy =                1505.0818905149399143
    Total Energy =                      -1685.6483790324282381
  Basis Set: (AUG-CC-PVTZ AUX)
    Blend: AUG-CC-PVTZ-RI
    Molecular point group: c1

    Geometry (in Angstrom), charge = 0, multiplicity = 1:

       Center              X                  Y                   Z               Mass
    ------------   -----------------  -----------------  -----------------  -----------------
         CL          -2.883925522509     0.007764047833     0.865199608752    34.968852682000
         CL          -1.144319522509    -1.440703952167    -0.942660391248    34.968852682000
         CL          -1.144324522509     1.456244047833    -0.942656391248    34.968852682000
         C           -0.209401522509     0.007768047833     1.170412608752    12.000000000000
         C            1.212110477491     0.007768047833     0.679168608752    12.000000000000
         C           -1.214670822509    -0.126853252167     0.021110808752    12.000000000000
         C            1.890350477491    -1.199564952167     0.464625608752    12.000000000000
         C            1.890351477491     1.215101047833     0.464625608752    12.000000000000
         C            3.212602477491    -1.199891952167     0.019809608752    12.000000000000
         C            3.212602477491     1.215428047833     0.019810608752    12.000000000000
         C            3.876252477491     0.007768047833    -0.206352391248    12.000000000000
         H           -0.400332522509     0.890722047833     1.789637608752     1.007825032230
         H           -0.400331522509    -0.875184952167     1.789637608752     1.007825032230
         H            1.381279477491    -2.143028952167     0.648749608752     1.007825032230
         H            1.381280477491     2.158566047833     0.648750608752     1.007825032230
         H            3.727389477491    -2.143797952167    -0.142213391248     1.007825032230
         H            3.727390477491     2.159334047833    -0.142212391248     1.007825032230
         H            4.907688477491     0.007768047833    -0.550185391248     1.007825032230

  Basis Set: AUG-CC-PVTZ
    Blend: AUG-CC-PVTZ
  Basis Set: (AUG-CC-PVTZ AUX)
    Blend: AUG-CC-PVTZ-JKFIT
	 Reference Energy          =   -1685.6483790324282381 [Eh]
	 Singles Energy            =      -0.0000000000000000 [Eh]
	 Same-Spin Energy          =      -0.5407243590007138 [Eh]
	 Opposite-Spin Energy      =      -1.6199108289469419 [Eh]
	 Correlation Energy        =      -2.1606351879476557 [Eh]
	 Total Energy              =   -1687.8090142203759569 [Eh]

	 ================> DF-SCS-MP2 Energies <==================
	-----------------------------------------------------------
	 SCS Same-Spin Scale       =       0.3333333333333333 [-]
	 SCS Opposite-Spin Scale   =       1.2000000000000000 [-]
	 SCS Same-Spin Energy      =      -0.1802414530002379 [Eh]
	 SCS Opposite-Spin Energy  =      -1.9438929947363301 [Eh]
	 SCS Correlation Energy    =      -2.1241344477365680 [Eh]
	 SCS Total Energy          =   -1687.7725134801648892 [Eh]
	-----------------------------------------------------------

  Dipole Moment: [D]
     X:     2.0339      Y:    -0.7357      Z:     0.6010     Total:     2.2448

*** Psi4 exiting successfully. Buy a developer a beer!
