                               Psi4 1.3.2 release

  ==> Input File <==

--------------------------------------------------------------------------
#psi4
#
memory 32 gb

molecule  {
0 1
 Cl       -2.9707590    -0.0000040     0.8385160
 Cl       -1.2311530    -1.4484720    -0.9693440
 Cl       -1.2311580     1.4484760    -0.9693400
  C       -0.2962350     0.0000000     1.1437290
  C        1.1252770     0.0000000     0.6524850
  C       -1.3254063    -0.0898387     0.0113336
  C        1.8035170    -1.2073330     0.4379420
  C        1.8035180     1.2073330     0.4379420
  C        3.1257690    -1.2076600    -0.0068740
  C        3.1257690     1.2076600    -0.0068730
  C        3.7894190     0.0000000    -0.2330360
  H       -0.4871660     0.8829540     1.7629540
  H       -0.4871650    -0.8829530     1.7629540
  H        1.2944460    -2.1507970     0.6220660
  H        1.2944470     2.1507980     0.6220670
  H        3.6405560    -2.1515660    -0.1688970
  H        3.6405570     2.1515660    -0.1688960
  H        4.8208550     0.0000000    -0.5768690
units angstrom
no_reorient  #important for SAPT in psi4, default
symmetry c1  #important for SAPT in psi4, default
}

set PROPERTIES_ORIGIN ["COM"]
properties('MP2/aug-cc-pvtz', properties = ['dipole'])
--------------------------------------------------------------------------

    Molecular point group: c1
  Charge       = 0
  Multiplicity = 1
  Basis Set: AUG-CC-PVTZ
    Blend: AUG-CC-PVTZ
  Basis Set: (AUG-CC-PVTZ AUX)
    Blend: AUG-CC-PVTZ-JKFIT

    Orbital Energies [Eh]
    ---------------------

    Doubly Occupied:

       1A   -104.870938     2A   -104.849272     3A   -104.848473
       4A    -11.437620     5A    -11.271546     6A    -11.255002
       7A    -11.246169     8A    -11.245586     9A    -11.245133
      10A    -11.243946    11A    -11.243354    12A    -10.597012
      13A    -10.573445    14A    -10.572488    15A     -8.063997
      16A     -8.061619    17A     -8.061572    18A     -8.040102
      19A     -8.039111    20A     -8.038145    21A     -8.038122
      22A     -8.037200    23A     -8.037181    24A     -1.252427
      25A     -1.163713    26A     -1.118550    27A     -1.090572
      28A     -1.066871    29A     -1.022858    30A     -0.974251
      31A     -0.837544    32A     -0.833363    33A     -0.789438
      34A     -0.706194    35A     -0.669681    36A     -0.657023
      37A     -0.645774    38A     -0.625621    39A     -0.615676
      40A     -0.595187    41A     -0.572728    42A     -0.550594
      43A     -0.513318    44A     -0.507750    45A     -0.502143
      46A     -0.498946    47A     -0.482236    48A     -0.459885
      49A     -0.455768    50A     -0.449579    51A     -0.438596
      52A     -0.344019    53A     -0.341264

  @DF-RHF Final Energy: -1685.65791209075996

   => Energetics <=

    Nuclear Repulsion Energy =            878.6753068635766795
    One-Electron Energy =               -4069.2692373308705100
    Two-Electron Energy =                1504.9360183765338661
    Total Energy =                      -1685.6579120907599645
  Basis Set: (AUG-CC-PVTZ AUX)
    Blend: AUG-CC-PVTZ-RI
    Molecular point group: c1

    Geometry (in Angstrom), charge = 0, multiplicity = 1:

       Center              X                  Y                   Z               Mass
    ------------   -----------------  -----------------  -----------------  -----------------
         CL          -2.882546304577     0.005179955918     0.864224058168    34.968852682000
         CL          -1.142940304577    -1.443288044082    -0.943635941832    34.968852682000
         CL          -1.142945304577     1.453659955918    -0.943631941832    34.968852682000
         C           -0.208022304577     0.005183955918     1.169437058168    12.000000000000
         C            1.213489695423     0.005183955918     0.678193058168    12.000000000000
         C           -1.237193604577    -0.084654744082     0.037041658168    12.000000000000
         C            1.891729695423    -1.202149044082     0.463650058168    12.000000000000
         C            1.891730695423     1.212516955918     0.463650058168    12.000000000000
         C            3.213981695423    -1.202476044082     0.018834058168    12.000000000000
         C            3.213981695423     1.212843955918     0.018835058168    12.000000000000
         C            3.877631695423     0.005183955918    -0.207327941832    12.000000000000
         H           -0.398953304577     0.888137955918     1.788662058168     1.007825032230
         H           -0.398952304577    -0.877769044082     1.788662058168     1.007825032230
         H            1.382658695423    -2.145613044082     0.647774058168     1.007825032230
         H            1.382659695423     2.155981955918     0.647775058168     1.007825032230
         H            3.728768695423    -2.146382044082    -0.143188941832     1.007825032230
         H            3.728769695423     2.156749955918    -0.143187941832     1.007825032230
         H            4.909067695423     0.005183955918    -0.551160941832     1.007825032230

  Basis Set: AUG-CC-PVTZ
    Blend: AUG-CC-PVTZ
  Basis Set: (AUG-CC-PVTZ AUX)
    Blend: AUG-CC-PVTZ-JKFIT
	 Reference Energy          =   -1685.6579120907599645 [Eh]
	 Singles Energy            =      -0.0000000000000000 [Eh]
	 Same-Spin Energy          =      -0.5401278779049827 [Eh]
	 Opposite-Spin Energy      =      -1.6190897454069242 [Eh]
	 Correlation Energy        =      -2.1592176233119069 [Eh]
	 Total Energy              =   -1687.8171297140718252 [Eh]

	 ================> DF-SCS-MP2 Energies <==================
	-----------------------------------------------------------
	 SCS Same-Spin Scale       =       0.3333333333333333 [-]
	 SCS Opposite-Spin Scale   =       1.2000000000000000 [-]
	 SCS Same-Spin Energy      =      -0.1800426259683276 [Eh]
	 SCS Opposite-Spin Energy  =      -1.9429076944883090 [Eh]
	 SCS Correlation Energy    =      -2.1229503204566367 [Eh]
	 SCS Total Energy          =   -1687.7808624112165035 [Eh]
	-----------------------------------------------------------

  Dipole Moment: [D]
     X:     1.8938      Y:    -0.4792      Z:     0.7128     Total:     2.0795

*** Psi4 exiting successfully. Buy a developer a beer!
