                               Psi4 1.3.2 release

  ==> Input File <==

--------------------------------------------------------------------------
#psi4
#
memory 32 gb

molecule  {
0 1
 Cl       -2.9707590    -0.0000040     0.8385160
 Cl       -1.2311530    -1.4484720    -0.9693440
 Cl       -1.2311580     1.4484760    -0.9693400
  C       -0.2962350     0.0000000     1.1437290
  C        1.1688388     0.0000000     0.8037646
  C       -1.3694210     0.0000000     0.0492630
  C        1.8035170    -1.2073330     0.4379420
  C        1.8035180     1.2073330     0.4379420
  C        3.1257690    -1.2076600    -0.0068740
  C        3.1257690     1.2076600    -0.0068730
  C        3.7894190     0.0000000    -0.2330360
  H       -0.4871660     0.8829540     1.7629540
  H       -0.4871650    -0.8829530     1.7629540
  H        1.2944460    -2.1507970     0.6220660
  H        1.2944470     2.1507980     0.6220670
  H        3.6405560    -2.1515660    -0.1688970
  H        3.6405570     2.1515660    -0.1688960
  H        4.8208550     0.0000000    -0.5768690
units angstrom
no_reorient  #important for SAPT in psi4, default
symmetry c1  #important for SAPT in psi4, default
}

set PROPERTIES_ORIGIN ["COM"]
properties('MP2/aug-cc-pvtz', properties = ['dipole'])
--------------------------------------------------------------------------

    Molecular point group: c1
  Charge       = 0
  Multiplicity = 1
  Basis Set: AUG-CC-PVTZ
    Blend: AUG-CC-PVTZ
  Basis Set: (AUG-CC-PVTZ AUX)
    Blend: AUG-CC-PVTZ-JKFIT

    Orbital Energies [Eh]
    ---------------------

    Doubly Occupied:

       1A   -104.858672     2A   -104.856736     3A   -104.856736
       4A    -11.437966     5A    -11.269292     6A    -11.256505
       7A    -11.247589     8A    -11.247516     9A    -11.246407
      10A    -11.243327    11A    -11.243089    12A    -10.583085
      13A    -10.581364    14A    -10.581355    15A     -8.049819
      16A     -8.048114    17A     -8.048114    18A     -8.047761
      19A     -8.047737    20A     -8.046043    21A     -8.046043
      22A     -8.046013    23A     -8.046012    24A     -1.245419
      25A     -1.161587    26A     -1.107070    27A     -1.106546
      28A     -1.065896    29A     -1.021919    30A     -0.973021
      31A     -0.836436    32A     -0.835284    33A     -0.786697
      34A     -0.704111    35A     -0.667743    36A     -0.656362
      37A     -0.643538    38A     -0.622247    39A     -0.615329
      40A     -0.594031    41A     -0.569344    42A     -0.547810
      43A     -0.514993    44A     -0.503569    45A     -0.501966
      46A     -0.492282    47A     -0.484556    48A     -0.462895
      49A     -0.455386    50A     -0.455005    51A     -0.443294
      52A     -0.342649    53A     -0.341029

  @DF-RHF Final Energy: -1685.65631095849494

   => Energetics <=

    Nuclear Repulsion Energy =            876.6449322408689113
    One-Electron Energy =               -4065.2158763816573810
    Two-Electron Energy =                1502.9146331822935281
    Total Energy =                      -1685.6563109584949416
  Basis Set: (AUG-CC-PVTZ AUX)
    Blend: AUG-CC-PVTZ-RI
    Molecular point group: c1

    Geometry (in Angstrom), charge = 0, multiplicity = 1:

       Center              X                  Y                   Z               Mass
    ------------   -----------------  -----------------  -----------------  -----------------
         CL          -2.882520170873    -0.000004009692     0.853306124703    34.968852682000
         CL          -1.142914170873    -1.448472009692    -0.954553875297    34.968852682000
         CL          -1.142919170873     1.448475990308    -0.954549875297    34.968852682000
         C           -0.207996170873    -0.000000009692     1.158519124703    12.000000000000
         C            1.257077629127    -0.000000009692     0.818554724703    12.000000000000
         C           -1.281182170873    -0.000000009692     0.064053124703    12.000000000000
         C            1.891755829127    -1.207333009692     0.452732124703    12.000000000000
         C            1.891756829127     1.207332990308     0.452732124703    12.000000000000
         C            3.214007829127    -1.207660009692     0.007916124703    12.000000000000
         C            3.214007829127     1.207659990308     0.007917124703    12.000000000000
         C            3.877657829127    -0.000000009692    -0.218245875297    12.000000000000
         H           -0.398927170873     0.882953990308     1.777744124703     1.007825032230
         H           -0.398926170873    -0.882953009692     1.777744124703     1.007825032230
         H            1.382684829127    -2.150797009692     0.636856124703     1.007825032230
         H            1.382685829127     2.150797990308     0.636857124703     1.007825032230
         H            3.728794829127    -2.151566009692    -0.154106875297     1.007825032230
         H            3.728795829127     2.151565990308    -0.154105875297     1.007825032230
         H            4.909093829127    -0.000000009692    -0.562078875297     1.007825032230

  Basis Set: AUG-CC-PVTZ
    Blend: AUG-CC-PVTZ
  Basis Set: (AUG-CC-PVTZ AUX)
    Blend: AUG-CC-PVTZ-JKFIT
	 Reference Energy          =   -1685.6563109584949416 [Eh]
	 Singles Energy            =      -0.0000000000000000 [Eh]
	 Same-Spin Energy          =      -0.5398127305335063 [Eh]
	 Opposite-Spin Energy      =      -1.6193042621818039 [Eh]
	 Correlation Energy        =      -2.1591169927153100 [Eh]
	 Total Energy              =   -1687.8154279512102676 [Eh]

	 ================> DF-SCS-MP2 Energies <==================
	-----------------------------------------------------------
	 SCS Same-Spin Scale       =       0.3333333333333333 [-]
	 SCS Opposite-Spin Scale   =       1.2000000000000000 [-]
	 SCS Same-Spin Energy      =      -0.1799375768445021 [Eh]
	 SCS Opposite-Spin Energy  =      -1.9431651146181645 [Eh]
	 SCS Correlation Energy    =      -2.1231026914626665 [Eh]
	 SCS Total Energy          =   -1687.7794136499576325 [Eh]
	-----------------------------------------------------------

  Dipole Moment: [D]
     X:     1.6580      Y:    -0.0000      Z:     0.8441     Total:     1.8605

*** Psi4 exiting successfully. Buy a developer a beer!
