                               Psi4 1.3.2 release

  ==> Input File <==

--------------------------------------------------------------------------
#psi4
#
memory 32 gb

molecule  {
0 1
 Cl       -3.0444861    -0.0000038     0.6668070
 Cl       -1.2311530    -1.4484720    -0.9693440
 Cl       -1.2311580     1.4484760    -0.9693400
  C       -0.2962350     0.0000000     1.1437290
  C        1.1252770     0.0000000     0.6524850
  C       -1.3694210     0.0000000     0.0492630
  C        1.8035170    -1.2073330     0.4379420
  C        1.8035180     1.2073330     0.4379420
  C        3.1257690    -1.2076600    -0.0068740
  C        3.1257690     1.2076600    -0.0068730
  C        3.7894190     0.0000000    -0.2330360
  H       -0.4871660     0.8829540     1.7629540
  H       -0.4871650    -0.8829530     1.7629540
  H        1.2944460    -2.1507970     0.6220660
  H        1.2944470     2.1507980     0.6220670
  H        3.6405560    -2.1515660    -0.1688970
  H        3.6405570     2.1515660    -0.1688960
  H        4.8208550     0.0000000    -0.5768690
units angstrom
no_reorient  #important for SAPT in psi4, default
symmetry c1  #important for SAPT in psi4, default
}

set PROPERTIES_ORIGIN ["COM"]
properties('MP2/aug-cc-pvtz', properties = ['dipole'])
--------------------------------------------------------------------------

    Molecular point group: c1
  Charge       = 0
  Multiplicity = 1
  Basis Set: AUG-CC-PVTZ
    Blend: AUG-CC-PVTZ
  Basis Set: (AUG-CC-PVTZ AUX)
    Blend: AUG-CC-PVTZ-JKFIT

    Orbital Energies [Eh]
    ---------------------

    Doubly Occupied:

       1A   -104.856464     2A   -104.853659     3A   -104.853659
       4A    -11.436041     5A    -11.273589     6A    -11.256703
       7A    -11.246256     8A    -11.246230     9A    -11.245458
      10A    -11.243811    11A    -11.243402    12A    -10.580969
      13A    -10.578546    14A    -10.578537    15A     -8.047694
      16A     -8.045633    17A     -8.045615    18A     -8.045284
      19A     -8.045284    20A     -8.043217    21A     -8.043217
      22A     -8.043190    23A     -8.043189    24A     -1.246315
      25A     -1.163899    26A     -1.105824    27A     -1.101721
      28A     -1.067788    29A     -1.022917    30A     -0.976368
      31A     -0.837514    32A     -0.834238    33A     -0.787166
      34A     -0.705638    35A     -0.668209    36A     -0.656760
      37A     -0.646335    38A     -0.623230    39A     -0.613587
      40A     -0.595281    41A     -0.571504    42A     -0.551291
      43A     -0.512348    44A     -0.506466    45A     -0.502939
      46A     -0.494756    47A     -0.488854    48A     -0.464184
      49A     -0.452820    50A     -0.448997    51A     -0.438719
      52A     -0.343765    53A     -0.341594

  @DF-RHF Final Energy: -1685.66315246058025

   => Energetics <=

    Nuclear Repulsion Energy =            878.7859096650381616
    One-Electron Energy =               -4069.5647791214910285
    Two-Electron Energy =                1505.1157169958726172
    Total Energy =                      -1685.6631524605802497
  Basis Set: (AUG-CC-PVTZ AUX)
    Blend: AUG-CC-PVTZ-RI
    Molecular point group: c1

    Geometry (in Angstrom), charge = 0, multiplicity = 1:

       Center              X                  Y                   Z               Mass
    ------------   -----------------  -----------------  -----------------  -----------------
         CL          -2.941336356186    -0.000003843323     0.719199412600    34.968852682000
         CL          -1.128003256186    -1.448472043323    -0.916951587400    34.968852682000
         CL          -1.128008256186     1.448475956677    -0.916947587400    34.968852682000
         C           -0.193085256186    -0.000000043323     1.196121412600    12.000000000000
         C            1.228426743814    -0.000000043323     0.704877412600    12.000000000000
         C           -1.266271256186    -0.000000043323     0.101655412600    12.000000000000
         C            1.906666743814    -1.207333043323     0.490334412600    12.000000000000
         C            1.906667743814     1.207332956677     0.490334412600    12.000000000000
         C            3.228918743814    -1.207660043323     0.045518412600    12.000000000000
         C            3.228918743814     1.207659956677     0.045519412600    12.000000000000
         C            3.892568743814    -0.000000043323    -0.180643587400    12.000000000000
         H           -0.384016256186     0.882953956677     1.815346412600     1.007825032230
         H           -0.384015256186    -0.882953043323     1.815346412600     1.007825032230
         H            1.397595743814    -2.150797043323     0.674458412600     1.007825032230
         H            1.397596743814     2.150797956677     0.674459412600     1.007825032230
         H            3.743705743814    -2.151566043323    -0.116504587400     1.007825032230
         H            3.743706743814     2.151565956677    -0.116503587400     1.007825032230
         H            4.924004743814    -0.000000043323    -0.524476587400     1.007825032230

  Basis Set: AUG-CC-PVTZ
    Blend: AUG-CC-PVTZ
  Basis Set: (AUG-CC-PVTZ AUX)
    Blend: AUG-CC-PVTZ-JKFIT
	 Reference Energy          =   -1685.6631524605802497 [Eh]
	 Singles Energy            =      -0.0000000000000000 [Eh]
	 Same-Spin Energy          =      -0.5396889518366534 [Eh]
	 Opposite-Spin Energy      =      -1.6183553809201541 [Eh]
	 Correlation Energy        =      -2.1580443327568073 [Eh]
	 Total Energy              =   -1687.8211967933370943 [Eh]

	 ================> DF-SCS-MP2 Energies <==================
	-----------------------------------------------------------
	 SCS Same-Spin Scale       =       0.3333333333333333 [-]
	 SCS Opposite-Spin Scale   =       1.2000000000000000 [-]
	 SCS Same-Spin Energy      =      -0.1798963172788845 [Eh]
	 SCS Opposite-Spin Energy  =      -1.9420264571041848 [Eh]
	 SCS Correlation Energy    =      -2.1219227743830693 [Eh]
	 SCS Total Energy          =   -1687.7850752349634149 [Eh]
	-----------------------------------------------------------

  Dipole Moment: [D]
     X:     1.7232      Y:    -0.0000      Z:     1.0218     Total:     2.0034

*** Psi4 exiting successfully. Buy a developer a beer!
