                               Psi4 1.3.2 release

  ==> Input File <==

--------------------------------------------------------------------------
#psi4
#
memory 32 gb

molecule  {
0 1
 Cl       -2.9707590    -0.0000040     0.8385160
 Cl       -1.2311530    -1.4484720    -0.9693440
 Cl       -1.2311580     1.4484760    -0.9693400
  C       -0.2962350     0.0000000     1.1437290
  C        1.1560817     0.0000000     0.7528413
  C       -1.3694210     0.0000000     0.0492630
  C        1.8035170    -1.2073330     0.4379420
  C        1.8035180     1.2073330     0.4379420
  C        3.1257690    -1.2076600    -0.0068740
  C        3.1257690     1.2076600    -0.0068730
  C        3.7894190     0.0000000    -0.2330360
  H       -0.4871660     0.8829540     1.7629540
  H       -0.4871650    -0.8829530     1.7629540
  H        1.2944460    -2.1507970     0.6220660
  H        1.2944470     2.1507980     0.6220670
  H        3.6405560    -2.1515660    -0.1688970
  H        3.6405570     2.1515660    -0.1688960
  H        4.8208550     0.0000000    -0.5768690
units angstrom
no_reorient  #important for SAPT in psi4, default
symmetry c1  #important for SAPT in psi4, default
}

set PROPERTIES_ORIGIN ["COM"]
properties('MP2/aug-cc-pvtz', properties = ['dipole'])
--------------------------------------------------------------------------

    Molecular point group: c1
  Charge       = 0
  Multiplicity = 1
  Basis Set: AUG-CC-PVTZ
    Blend: AUG-CC-PVTZ
  Basis Set: (AUG-CC-PVTZ AUX)
    Blend: AUG-CC-PVTZ-JKFIT

    Orbital Energies [Eh]
    ---------------------

    Doubly Occupied:

       1A   -104.858289     2A   -104.856697     3A   -104.856697
       4A    -11.437395     5A    -11.269815     6A    -11.255489
       7A    -11.246239     8A    -11.246193     9A    -11.245473
      10A    -11.243292    11A    -11.242972    12A    -10.582728
      13A    -10.581331    14A    -10.581322    15A     -8.049462
      16A     -8.048081    17A     -8.048080    18A     -8.047408
      19A     -8.047383    20A     -8.046010    21A     -8.046010
      22A     -8.045980    23A     -8.045979    24A     -1.245573
      25A     -1.162324    26A     -1.107077    27A     -1.106417
      28A     -1.066024    29A     -1.022104    30A     -0.973734
      31A     -0.836156    32A     -0.835438    33A     -0.787026
      34A     -0.704474    35A     -0.667977    36A     -0.656108
      37A     -0.643687    38A     -0.622776    39A     -0.615338
      40A     -0.594351    41A     -0.570530    42A     -0.548104
      43A     -0.514157    44A     -0.504562    45A     -0.502062
      46A     -0.493237    47A     -0.486408    48A     -0.461922
      49A     -0.455571    50A     -0.454967    51A     -0.443213
      52A     -0.343017    53A     -0.341013

  @DF-RHF Final Energy: -1685.66143222218170

   => Energetics <=

    Nuclear Repulsion Energy =            877.2823722629386793
    One-Electron Energy =               -4066.5002574887803348
    Two-Electron Energy =                1503.5564530036599535
    Total Energy =                      -1685.6614322221817019
  Basis Set: (AUG-CC-PVTZ AUX)
    Blend: AUG-CC-PVTZ-RI
    Molecular point group: c1

    Geometry (in Angstrom), charge = 0, multiplicity = 1:

       Center              X                  Y                   Z               Mass
    ------------   -----------------  -----------------  -----------------  -----------------
         CL          -2.881784047490    -0.000004009692     0.856244553643    34.968852682000
         CL          -1.142178047490    -1.448472009692    -0.951615446357    34.968852682000
         CL          -1.142183047490     1.448475990308    -0.951611446357    34.968852682000
         C           -0.207260047490    -0.000000009692     1.161457553643    12.000000000000
         C            1.245056652510    -0.000000009692     0.770569853643    12.000000000000
         C           -1.280446047490    -0.000000009692     0.066991553643    12.000000000000
         C            1.892491952510    -1.207333009692     0.455670553643    12.000000000000
         C            1.892492952510     1.207332990308     0.455670553643    12.000000000000
         C            3.214743952510    -1.207660009692     0.010854553643    12.000000000000
         C            3.214743952510     1.207659990308     0.010855553643    12.000000000000
         C            3.878393952510    -0.000000009692    -0.215307446357    12.000000000000
         H           -0.398191047490     0.882953990308     1.780682553643     1.007825032230
         H           -0.398190047490    -0.882953009692     1.780682553643     1.007825032230
         H            1.383420952510    -2.150797009692     0.639794553643     1.007825032230
         H            1.383421952510     2.150797990308     0.639795553643     1.007825032230
         H            3.729530952510    -2.151566009692    -0.151168446357     1.007825032230
         H            3.729531952510     2.151565990308    -0.151167446357     1.007825032230
         H            4.909829952510    -0.000000009692    -0.559140446357     1.007825032230

  Basis Set: AUG-CC-PVTZ
    Blend: AUG-CC-PVTZ
  Basis Set: (AUG-CC-PVTZ AUX)
    Blend: AUG-CC-PVTZ-JKFIT
	 Reference Energy          =   -1685.6614322221817019 [Eh]
	 Singles Energy            =      -0.0000000000000000 [Eh]
	 Same-Spin Energy          =      -0.5396326812826766 [Eh]
	 Opposite-Spin Energy      =      -1.6186708631794586 [Eh]
	 Correlation Energy        =      -2.1583035444621350 [Eh]
	 Total Energy              =   -1687.8197357666438165 [Eh]

	 ================> DF-SCS-MP2 Energies <==================
	-----------------------------------------------------------
	 SCS Same-Spin Scale       =       0.3333333333333333 [-]
	 SCS Opposite-Spin Scale   =       1.2000000000000000 [-]
	 SCS Same-Spin Energy      =      -0.1798775604275589 [Eh]
	 SCS Opposite-Spin Energy  =      -1.9424050358153502 [Eh]
	 SCS Correlation Energy    =      -2.1222825962429090 [Eh]
	 SCS Total Energy          =   -1687.7837148184246416 [Eh]
	-----------------------------------------------------------

  Dipole Moment: [D]
     X:     1.6425      Y:    -0.0000      Z:     0.8763     Total:     1.8616

*** Psi4 exiting successfully. Buy a developer a beer!
