                               Psi4 1.3.2 release

  ==> Input File <==

--------------------------------------------------------------------------
#psi4
#
memory 32 gb

molecule  {
0 1
 Cl       -3.0219137    -0.0000039     0.7248897
 Cl       -1.2311530    -1.4484720    -0.9693440
 Cl       -1.2311580     1.4484760    -0.9693400
  C       -0.2962350     0.0000000     1.1437290
  C        1.1252770     0.0000000     0.6524850
  C       -1.3694210     0.0000000     0.0492630
  C        1.8035170    -1.2073330     0.4379420
  C        1.8035180     1.2073330     0.4379420
  C        3.1257690    -1.2076600    -0.0068740
  C        3.1257690     1.2076600    -0.0068730
  C        3.7894190     0.0000000    -0.2330360
  H       -0.4871660     0.8829540     1.7629540
  H       -0.4871650    -0.8829530     1.7629540
  H        1.2944460    -2.1507970     0.6220660
  H        1.2944470     2.1507980     0.6220670
  H        3.6405560    -2.1515660    -0.1688970
  H        3.6405570     2.1515660    -0.1688960
  H        4.8208550     0.0000000    -0.5768690
units angstrom
no_reorient  #important for SAPT in psi4, default
symmetry c1  #important for SAPT in psi4, default
}

set PROPERTIES_ORIGIN ["COM"]
properties('MP2/aug-cc-pvtz', properties = ['dipole'])
--------------------------------------------------------------------------

    Molecular point group: c1
  Charge       = 0
  Multiplicity = 1
  Basis Set: AUG-CC-PVTZ
    Blend: AUG-CC-PVTZ
  Basis Set: (AUG-CC-PVTZ AUX)
    Blend: AUG-CC-PVTZ-JKFIT

    Orbital Energies [Eh]
    ---------------------

    Doubly Occupied:

       1A   -104.856794     2A   -104.854624     3A   -104.854624
       4A    -11.436063     5A    -11.272656     6A    -11.256113
       7A    -11.245940     8A    -11.245923     9A    -11.245188
      10A    -11.243606    11A    -11.243187    12A    -10.581280
      13A    -10.579428    14A    -10.579420    15A     -8.048009
      16A     -8.046171    17A     -8.046170    18A     -8.045956
      19A     -8.045935    20A     -8.044103    21A     -8.044102
      22A     -8.044075    23A     -8.044073    24A     -1.246057
      25A     -1.163515    26A     -1.106212    27A     -1.103110
      28A     -1.067341    29A     -1.022673    30A     -0.975742
      31A     -0.837249    32A     -0.834054    33A     -0.787149
      34A     -0.705473    35A     -0.668183    36A     -0.656862
      37A     -0.645210    38A     -0.623152    39A     -0.614104
      40A     -0.595040    41A     -0.571753    42A     -0.550372
      43A     -0.512345    44A     -0.506447    45A     -0.502442
      46A     -0.494613    47A     -0.488957    48A     -0.462788
      49A     -0.453803    50A     -0.451055    51A     -0.440222
      52A     -0.343578    53A     -0.341308

  @DF-RHF Final Energy: -1685.66438243530501

   => Energetics <=

    Nuclear Repulsion Energy =            878.5861362241003008
    One-Electron Energy =               -4069.1525376396252796
    Two-Electron Energy =                1504.9020189802199639
    Total Energy =                      -1685.6643824353050150
  Basis Set: (AUG-CC-PVTZ AUX)
    Blend: AUG-CC-PVTZ-RI
    Molecular point group: c1

    Geometry (in Angstrom), charge = 0, multiplicity = 1:

       Center              X                  Y                   Z               Mass
    ------------   -----------------  -----------------  -----------------  -----------------
         CL          -2.922559522015    -0.000003926508     0.767515463446    34.968852682000
         CL          -1.131798822015    -1.448472026508    -0.926718236554    34.968852682000
         CL          -1.131803822015     1.448475973492    -0.926714236554    34.968852682000
         C           -0.196880822015    -0.000000026508     1.186354763446    12.000000000000
         C            1.224631177985    -0.000000026508     0.695110763446    12.000000000000
         C           -1.270066822015    -0.000000026508     0.091888763446    12.000000000000
         C            1.902871177985    -1.207333026508     0.480567763446    12.000000000000
         C            1.902872177985     1.207332973492     0.480567763446    12.000000000000
         C            3.225123177985    -1.207660026508     0.035751763446    12.000000000000
         C            3.225123177985     1.207659973492     0.035752763446    12.000000000000
         C            3.888773177985    -0.000000026508    -0.190410236554    12.000000000000
         H           -0.387811822015     0.882953973492     1.805579763446     1.007825032230
         H           -0.387810822015    -0.882953026508     1.805579763446     1.007825032230
         H            1.393800177985    -2.150797026508     0.664691763446     1.007825032230
         H            1.393801177985     2.150797973492     0.664692763446     1.007825032230
         H            3.739910177985    -2.151566026508    -0.126271236554     1.007825032230
         H            3.739911177985     2.151565973492    -0.126270236554     1.007825032230
         H            4.920209177985    -0.000000026508    -0.534243236554     1.007825032230

  Basis Set: AUG-CC-PVTZ
    Blend: AUG-CC-PVTZ
  Basis Set: (AUG-CC-PVTZ AUX)
    Blend: AUG-CC-PVTZ-JKFIT
	 Reference Energy          =   -1685.6643824353050150 [Eh]
	 Singles Energy            =      -0.0000000000000000 [Eh]
	 Same-Spin Energy          =      -0.5396432030548781 [Eh]
	 Opposite-Spin Energy      =      -1.6183290916139021 [Eh]
	 Correlation Energy        =      -2.1579722946687800 [Eh]
	 Total Energy              =   -1687.8223547299737675 [Eh]

	 ================> DF-SCS-MP2 Energies <==================
	-----------------------------------------------------------
	 SCS Same-Spin Scale       =       0.3333333333333333 [-]
	 SCS Opposite-Spin Scale   =       1.2000000000000000 [-]
	 SCS Same-Spin Energy      =      -0.1798810676849594 [Eh]
	 SCS Opposite-Spin Energy  =      -1.9419949099366824 [Eh]
	 SCS Correlation Energy    =      -2.1218759776216416 [Eh]
	 SCS Total Energy          =   -1687.7862584129265997 [Eh]
	-----------------------------------------------------------

  Dipole Moment: [D]
     X:     1.6979      Y:    -0.0000      Z:     0.9913     Total:     1.9661

*** Psi4 exiting successfully. Buy a developer a beer!
