                               Psi4 1.4a2.dev612

  ==> Input File <==

--------------------------------------------------------------------------
#psi4
#
memory 32 gb

molecule  {
0 1
  O        0.0723890     1.0222580     0.5077940
  C       -0.7418240    -1.0387750     0.1269710
  C        0.6883760    -1.0936210     0.0623120
  C       -1.0714850     0.2632460     0.3951280
  C        1.1400710     0.1773790     0.3033030
  C       -2.3562760     1.0018630     0.5198060
  C        2.4849120     0.8120840     0.3409220
  C       -1.6785020    -2.2121280     0.0582694
  C        1.5125100    -2.3214750    -0.1762480
  C       -2.8486430     1.5569180    -0.8246800
  C        2.8130920     1.5744450    -0.9510270
  H        3.2336060     0.0303330     0.5193890
  H        2.5305840     1.4962520     1.1974230
  H       -2.2159340     1.8224920     1.2344330
  H       -3.1130010     0.3316860     0.9491040
  H       -1.4229750    -3.0387300     0.5441040
  H       -2.7119990    -1.8902510     0.1457090
  H       -1.6650160    -2.5262940    -1.1310850
  H        2.5139960    -2.0634500    -0.5387900
  H        1.6307130    -2.9166200     0.7385330
  H        1.0429930    -2.9642660    -0.9286680
  H        2.8128660     0.8932150    -1.8063400
  H        3.7971100     2.0487280    -0.8855010
  H        2.0638530     2.3513280    -1.1313670
  H       -2.0994070     2.2298930    -1.2537260
  H       -3.7828960     2.1123340    -0.7007770
  H       -3.0218850     0.7415120    -1.5334270
units angstrom
no_reorient  #important for SAPT in psi4, default
symmetry c1  #important for SAPT in psi4, default
}

set PROPERTIES_ORIGIN ["COM"]
properties('MP2/aug-cc-pvtz', properties = ['dipole'])
--------------------------------------------------------------------------

    Molecular point group: c1
  Charge       = 0
  Multiplicity = 1
  Basis Set: AUG-CC-PVTZ
    Blend: AUG-CC-PVTZ
  Basis Set: (AUG-CC-PVTZ AUX)
    Blend: AUG-CC-PVTZ-JKFIT

    Orbital Energies [Eh]
    ---------------------

    Doubly Occupied:

       1A    -20.598909     2A    -11.269911     3A    -11.269770
       4A    -11.230403     5A    -11.230226     6A    -11.227036
       7A    -11.223048     8A    -11.217830     9A    -11.216132
      10A    -11.215653    11A    -11.214754    12A     -1.429999
      13A     -1.099129    14A     -1.079125    15A     -1.036470
      16A     -0.990798    17A     -0.934208    18A     -0.928221
      19A     -0.870373    20A     -0.816234    21A     -0.751318
      22A     -0.722354    23A     -0.660004    24A     -0.626716
      25A     -0.616910    26A     -0.610349    27A     -0.597147
      28A     -0.586898    29A     -0.565012    30A     -0.561686
      31A     -0.546774    32A     -0.533753    33A     -0.525372
      34A     -0.522489    35A     -0.507726    36A     -0.505374
      37A     -0.494402    38A     -0.491682    39A     -0.484100
      40A     -0.468461    41A     -0.358042    42A     -0.278530

  @DF-RHF Final Energy:  -462.99058657114017

   => Energetics <=

    Nuclear Repulsion Energy =            629.3532640758592152
    One-Electron Energy =               -1876.4610437333953996
    Two-Electron Energy =                 784.1171930863960142
    Total Energy =                       -462.9905865711401702
  Basis Set: (AUG-CC-PVTZ AUX)
    Blend: AUG-CC-PVTZ-RI
    Molecular point group: c1

    Geometry (in Angstrom), charge = 0, multiplicity = 1:

       Center              X                  Y                   Z               Mass
    ------------   -----------------  -----------------  -----------------  -----------------
         O            0.072033701696     1.024638858679     0.496208641222    15.994914619570
         C           -0.742179298304    -1.036394141321     0.115385641222    12.000000000000
         C            0.688020701696    -1.091240141321     0.050726641222    12.000000000000
         C           -1.071840298304     0.265626858679     0.383542641222    12.000000000000
         C            1.139715701696     0.179759858679     0.291717641222    12.000000000000
         C           -2.356631298304     1.004243858679     0.508220641222    12.000000000000
         C            2.484556701696     0.814464858679     0.329336641222    12.000000000000
         C           -1.678857298304    -2.209747141321     0.046684041222    12.000000000000
         C            1.512154701696    -2.319094141321    -0.187833358778    12.000000000000
         C           -2.848998298304     1.559298858679    -0.836265358778    12.000000000000
         C            2.812736701696     1.576825858679    -0.962612358778    12.000000000000
         H            3.233250701696     0.032713858679     0.507803641222     1.007825032230
         H            2.530228701696     1.498632858679     1.185837641222     1.007825032230
         H           -2.216289298304     1.824872858679     1.222847641222     1.007825032230
         H           -3.113356298304     0.334066858679     0.937518641222     1.007825032230
         H           -1.423330298304    -3.036349141321     0.532518641222     1.007825032230
         H           -2.712354298304    -1.887870141321     0.134123641222     1.007825032230
         H           -1.665371298304    -2.523913141321    -1.142670358778     1.007825032230
         H            2.513640701696    -2.061069141321    -0.550375358778     1.007825032230
         H            1.630357701696    -2.914239141321     0.726947641222     1.007825032230
         H            1.042637701696    -2.961885141321    -0.940253358778     1.007825032230
         H            2.812510701696     0.895595858679    -1.817925358778     1.007825032230
         H            3.796754701696     2.051108858679    -0.897086358778     1.007825032230
         H            2.063497701696     2.353708858679    -1.142952358778     1.007825032230
         H           -2.099762298304     2.232273858679    -1.265311358778     1.007825032230
         H           -3.783251298304     2.114714858679    -0.712362358778     1.007825032230
         H           -3.022240298304     0.743892858679    -1.545012358778     1.007825032230

  Basis Set: AUG-CC-PVTZ
    Blend: AUG-CC-PVTZ
  Basis Set: (AUG-CC-PVTZ AUX)
    Blend: AUG-CC-PVTZ-JKFIT
	 Reference Energy          =    -462.9905865711401702 [Eh]
	 Singles Energy            =      -0.0000000000000000 [Eh]
	 Same-Spin Energy          =      -0.4973536813196572 [Eh]
	 Opposite-Spin Energy      =      -1.6680103466894036 [Eh]
	 Correlation Energy        =      -2.1653640280090607 [Eh]
	 Total Energy              =    -465.1559505991492074 [Eh]

	 ================> DF-SCS-MP2 Energies <==================
	-----------------------------------------------------------
	 SCS Same-Spin Scale       =       0.3333333333333333 [-]
	 SCS Opposite-Spin Scale   =       1.2000000000000000 [-]
	 SCS Same-Spin Energy      =      -0.1657845604398857 [Eh]
	 SCS Opposite-Spin Energy  =      -2.0016124160272843 [Eh]
	 SCS Correlation Energy    =      -2.1673969764671699 [Eh]
	 SCS Total Energy          =    -465.1579835476073299 [Eh]
	-----------------------------------------------------------

  Dipole Moment: [D]
     X:    -0.0162      Y:    -0.6421      Z:    -0.1139     Total:     0.6523

*** Psi4 exiting successfully. Buy a developer a beer!
