                               Psi4 1.4a2.dev612

  ==> Input File <==

--------------------------------------------------------------------------
#psi4
#
memory 32 gb

molecule  {
0 1
  O        0.0723890     1.0222580     0.5077940
  C       -0.7418240    -1.0387750     0.1269710
  C        0.6883760    -1.0936210     0.0623120
  C       -1.0714850     0.2632460     0.3951280
  C        1.1400710     0.1773790     0.3033030
  C       -2.3562760     1.0018630     0.5198060
  C        2.4849120     0.8120840     0.3409220
  C       -1.6754986    -2.2322480     0.1561784
  C        1.5125100    -2.3214750    -0.1762480
  C       -2.8486430     1.5569180    -0.8246800
  C        2.8130920     1.5744450    -0.9510270
  H        3.2336060     0.0303330     0.5193890
  H        2.5305840     1.4962520     1.1974230
  H       -2.2159340     1.8224920     1.2344330
  H       -3.1130010     0.3316860     0.9491040
  H       -1.4229750    -3.0387300     0.5441040
  H       -2.7119990    -1.8902510     0.1457090
  H       -1.6650160    -2.5262940    -1.1310850
  H        2.5139960    -2.0634500    -0.5387900
  H        1.6307130    -2.9166200     0.7385330
  H        1.0429930    -2.9642660    -0.9286680
  H        2.8128660     0.8932150    -1.8063400
  H        3.7971100     2.0487280    -0.8855010
  H        2.0638530     2.3513280    -1.1313670
  H       -2.0994070     2.2298930    -1.2537260
  H       -3.7828960     2.1123340    -0.7007770
  H       -3.0218850     0.7415120    -1.5334270
units angstrom
no_reorient  #important for SAPT in psi4, default
symmetry c1  #important for SAPT in psi4, default
}

set PROPERTIES_ORIGIN ["COM"]
properties('MP2/aug-cc-pvtz', properties = ['dipole'])
--------------------------------------------------------------------------

    Molecular point group: c1
  Charge       = 0
  Multiplicity = 1
  Basis Set: AUG-CC-PVTZ
    Blend: AUG-CC-PVTZ
  Basis Set: (AUG-CC-PVTZ AUX)
    Blend: AUG-CC-PVTZ-JKFIT

    Orbital Energies [Eh]
    ---------------------

    Doubly Occupied:

       1A    -20.599560     2A    -11.270552     3A    -11.270507
       4A    -11.233284     5A    -11.230936     6A    -11.230580
       7A    -11.223162     8A    -11.221077     9A    -11.216724
      10A    -11.216016    11A    -11.214977    12A     -1.430656
      13A     -1.099530    14A     -1.079577    15A     -1.036913
      16A     -0.991807    17A     -0.937567    18A     -0.928957
      19A     -0.870786    20A     -0.817319    21A     -0.754504
      22A     -0.722769    23A     -0.663455    24A     -0.633610
      25A     -0.622521    26A     -0.610706    27A     -0.602461
      28A     -0.587198    29A     -0.566808    30A     -0.562856
      31A     -0.545035    32A     -0.533559    33A     -0.525613
      34A     -0.523006    35A     -0.505854    36A     -0.499254
      37A     -0.493933    38A     -0.484568    39A     -0.481180
      40A     -0.467419    41A     -0.354499    42A     -0.278153

  @DF-RHF Final Energy:  -462.95441754638739

   => Energetics <=

    Nuclear Repulsion Energy =            629.0852218914574223
    One-Electron Energy =               -1875.8003815690351530
    Two-Electron Energy =                 783.7607421311903408
    Total Energy =                       -462.9544175463873898
  Basis Set: (AUG-CC-PVTZ AUX)
    Blend: AUG-CC-PVTZ-RI
    Molecular point group: c1

    Geometry (in Angstrom), charge = 0, multiplicity = 1:

       Center              X                  Y                   Z               Mass
    ------------   -----------------  -----------------  -----------------  -----------------
         O            0.071796778394     1.026226025503     0.488485086720    15.994914619570
         C           -0.742416221606    -1.034806974497     0.107662086720    12.000000000000
         C            0.687783778394    -1.089652974497     0.043003086720    12.000000000000
         C           -1.072077221606     0.267214025503     0.375819086720    12.000000000000
         C            1.139478778394     0.181347025503     0.283994086720    12.000000000000
         C           -2.356868221606     1.005831025503     0.500497086720    12.000000000000
         C            2.484319778394     0.816052025503     0.321613086720    12.000000000000
         C           -1.676090821606    -2.228279974497     0.136869486720    12.000000000000
         C            1.511917778394    -2.317506974497    -0.195556913280    12.000000000000
         C           -2.849235221606     1.560886025503    -0.843988913280    12.000000000000
         C            2.812499778394     1.578413025503    -0.970335913280    12.000000000000
         H            3.233013778394     0.034301025503     0.500080086720     1.007825032230
         H            2.529991778394     1.500220025503     1.178114086720     1.007825032230
         H           -2.216526221606     1.826460025503     1.215124086720     1.007825032230
         H           -3.113593221606     0.335654025503     0.929795086720     1.007825032230
         H           -1.423567221606    -3.034761974497     0.524795086720     1.007825032230
         H           -2.712591221606    -1.886282974497     0.126400086720     1.007825032230
         H           -1.665608221606    -2.522325974497    -1.150393913280     1.007825032230
         H            2.513403778394    -2.059481974497    -0.558098913280     1.007825032230
         H            1.630120778394    -2.912651974497     0.719224086720     1.007825032230
         H            1.042400778394    -2.960297974497    -0.947976913280     1.007825032230
         H            2.812273778394     0.897183025503    -1.825648913280     1.007825032230
         H            3.796517778394     2.052696025503    -0.904809913280     1.007825032230
         H            2.063260778394     2.355296025503    -1.150675913280     1.007825032230
         H           -2.099999221606     2.233861025503    -1.273034913280     1.007825032230
         H           -3.783488221606     2.116302025503    -0.720085913280     1.007825032230
         H           -3.022477221606     0.745480025503    -1.552735913280     1.007825032230

  Basis Set: AUG-CC-PVTZ
    Blend: AUG-CC-PVTZ
  Basis Set: (AUG-CC-PVTZ AUX)
    Blend: AUG-CC-PVTZ-JKFIT
	 Reference Energy          =    -462.9544175463873898 [Eh]
	 Singles Energy            =      -0.0000000000000000 [Eh]
	 Same-Spin Energy          =      -0.4978180725796216 [Eh]
	 Opposite-Spin Energy      =      -1.6697180120408244 [Eh]
	 Correlation Energy        =      -2.1675360846204459 [Eh]
	 Total Energy              =    -465.1219536310078411 [Eh]

	 ================> DF-SCS-MP2 Energies <==================
	-----------------------------------------------------------
	 SCS Same-Spin Scale       =       0.3333333333333333 [-]
	 SCS Opposite-Spin Scale   =       1.2000000000000000 [-]
	 SCS Same-Spin Energy      =      -0.1659393575265405 [Eh]
	 SCS Opposite-Spin Energy  =      -2.0036616144489892 [Eh]
	 SCS Correlation Energy    =      -2.1696009719755298 [Eh]
	 SCS Total Energy          =    -465.1240185183629023 [Eh]
	-----------------------------------------------------------

  Dipole Moment: [D]
     X:     0.0091      Y:    -0.5948      Z:    -0.0460     Total:     0.5966

*** Psi4 exiting successfully. Buy a developer a beer!
