                               Psi4 1.4a2.dev612

  ==> Input File <==

--------------------------------------------------------------------------
#psi4
#
memory 32 gb

molecule  {
0 1
  O        0.0723890     1.0222580     0.5077940
  C       -0.7418240    -1.0387750     0.1269710
  C        0.6883760    -1.0936210     0.0623120
  C       -1.0714850     0.2632460     0.3951280
  C        1.1400710     0.1773790     0.3033030
  C       -2.3569168     1.0202771     0.4215181
  C        2.4849120     0.8120840     0.3409220
  C       -1.6830070    -2.1819480    -0.0885940
  C        1.5125100    -2.3214750    -0.1762480
  C       -2.8486430     1.5569180    -0.8246800
  C        2.8130920     1.5744450    -0.9510270
  H        3.2336060     0.0303330     0.5193890
  H        2.5305840     1.4962520     1.1974230
  H       -2.2159340     1.8224920     1.2344330
  H       -3.1130010     0.3316860     0.9491040
  H       -1.4229750    -3.0387300     0.5441040
  H       -2.7119990    -1.8902510     0.1457090
  H       -1.6650160    -2.5262940    -1.1310850
  H        2.5139960    -2.0634500    -0.5387900
  H        1.6307130    -2.9166200     0.7385330
  H        1.0429930    -2.9642660    -0.9286680
  H        2.8128660     0.8932150    -1.8063400
  H        3.7971100     2.0487280    -0.8855010
  H        2.0638530     2.3513280    -1.1313670
  H       -2.0994070     2.2298930    -1.2537260
  H       -3.7828960     2.1123340    -0.7007770
  H       -3.0218850     0.7415120    -1.5334270
units angstrom
no_reorient  #important for SAPT in psi4, default
symmetry c1  #important for SAPT in psi4, default
}

set PROPERTIES_ORIGIN ["COM"]
properties('MP2/aug-cc-pvtz', properties = ['dipole'])
--------------------------------------------------------------------------

    Molecular point group: c1
  Charge       = 0
  Multiplicity = 1
  Basis Set: AUG-CC-PVTZ
    Blend: AUG-CC-PVTZ
  Basis Set: (AUG-CC-PVTZ AUX)
    Blend: AUG-CC-PVTZ-JKFIT

    Orbital Energies [Eh]
    ---------------------

    Doubly Occupied:

       1A    -20.598700     2A    -11.270431     3A    -11.269622
       4A    -11.234757     5A    -11.230400     6A    -11.223222
       7A    -11.223173     8A    -11.217028     9A    -11.215960
      10A    -11.215090    11A    -11.211639    12A     -1.429872
      13A     -1.099557    14A     -1.083478    15A     -1.044054
      16A     -0.992829    17A     -0.932827    18A     -0.930680
      19A     -0.868487    20A     -0.810169    21A     -0.748818
      22A     -0.720918    23A     -0.658084    24A     -0.628661
      25A     -0.612061    26A     -0.608244    27A     -0.590116
      28A     -0.584599    29A     -0.568440    30A     -0.557198
      31A     -0.551886    32A     -0.545191    33A     -0.531709
      34A     -0.525541    35A     -0.523716    36A     -0.508736
      37A     -0.492265    38A     -0.487062    39A     -0.469299
      40A     -0.458513    41A     -0.361202    42A     -0.280810

  @DF-RHF Final Energy:  -463.00064070855080

   => Energetics <=

    Nuclear Repulsion Energy =            630.2442026833034561
    One-Electron Energy =               -1878.2595995542280889
    Two-Electron Energy =                 785.0147561623738284
    Total Energy =                       -463.0006407085508044
  Basis Set: (AUG-CC-PVTZ AUX)
    Blend: AUG-CC-PVTZ-RI
    Molecular point group: c1

    Geometry (in Angstrom), charge = 0, multiplicity = 1:

       Center              X                  Y                   Z               Mass
    ------------   -----------------  -----------------  -----------------  -----------------
         O            0.072439628289     1.020805511594     0.515547409125    15.994914619570
         C           -0.741773371711    -1.040227488406     0.134724409125    12.000000000000
         C            0.688426628289    -1.095073488406     0.070065409125    12.000000000000
         C           -1.071434371711     0.261793511594     0.402881409125    12.000000000000
         C            1.140121628289     0.175926511594     0.311056409125    12.000000000000
         C           -2.356866171711     1.018824611594     0.429271509125    12.000000000000
         C            2.484962628289     0.810631511594     0.348675409125    12.000000000000
         C           -1.682956371711    -2.183400488406    -0.080840590875    12.000000000000
         C            1.512560628289    -2.322927488406    -0.168494590875    12.000000000000
         C           -2.848592371711     1.555465511594    -0.816926590875    12.000000000000
         C            2.813142628289     1.572992511594    -0.943273590875    12.000000000000
         H            3.233656628289     0.028880511594     0.527142409125     1.007825032230
         H            2.530634628289     1.494799511594     1.205176409125     1.007825032230
         H           -2.215883371711     1.821039511594     1.242186409125     1.007825032230
         H           -3.112950371711     0.330233511594     0.956857409125     1.007825032230
         H           -1.422924371711    -3.040182488406     0.551857409125     1.007825032230
         H           -2.711948371711    -1.891703488406     0.153462409125     1.007825032230
         H           -1.664965371711    -2.527746488406    -1.123331590875     1.007825032230
         H            2.514046628289    -2.064902488406    -0.531036590875     1.007825032230
         H            1.630763628289    -2.918072488406     0.746286409125     1.007825032230
         H            1.043043628289    -2.965718488406    -0.920914590875     1.007825032230
         H            2.812916628289     0.891762511594    -1.798586590875     1.007825032230
         H            3.797160628289     2.047275511594    -0.877747590875     1.007825032230
         H            2.063903628289     2.349875511594    -1.123613590875     1.007825032230
         H           -2.099356371711     2.228440511594    -1.245972590875     1.007825032230
         H           -3.782845371711     2.110881511594    -0.693023590875     1.007825032230
         H           -3.021834371711     0.740059511594    -1.525673590875     1.007825032230

  Basis Set: AUG-CC-PVTZ
    Blend: AUG-CC-PVTZ
  Basis Set: (AUG-CC-PVTZ AUX)
    Blend: AUG-CC-PVTZ-JKFIT
	 Reference Energy          =    -463.0006407085508044 [Eh]
	 Singles Energy            =      -0.0000000000000000 [Eh]
	 Same-Spin Energy          =      -0.4979796230597513 [Eh]
	 Opposite-Spin Energy      =      -1.6683318570813941 [Eh]
	 Correlation Energy        =      -2.1663114801411454 [Eh]
	 Total Energy              =    -465.1669521886919370 [Eh]

	 ================> DF-SCS-MP2 Energies <==================
	-----------------------------------------------------------
	 SCS Same-Spin Scale       =       0.3333333333333333 [-]
	 SCS Opposite-Spin Scale   =       1.2000000000000000 [-]
	 SCS Same-Spin Energy      =      -0.1659932076865838 [Eh]
	 SCS Opposite-Spin Energy  =      -2.0019982284976727 [Eh]
	 SCS Correlation Energy    =      -2.1679914361842565 [Eh]
	 SCS Total Energy          =    -465.1686321447350565 [Eh]
	-----------------------------------------------------------

  Dipole Moment: [D]
     X:     0.0057      Y:    -0.6531      Z:    -0.3088     Total:     0.7224

*** Psi4 exiting successfully. Buy a developer a beer!
