                               Psi4 1.4a2.dev612

  ==> Input File <==

--------------------------------------------------------------------------
#psi4
#
memory 32 gb

molecule  {
0 1
  O        0.0723890     1.0222580     0.5077940
  C       -0.7418240    -1.0387750     0.1269710
  C        0.6883760    -1.0936210     0.0623120
  C       -1.0714850     0.2632460     0.3951280
  C        1.1400710     0.1773790     0.3033030
  C       -2.3578779     1.0478982     0.2740862
  C        2.4849120     0.8120840     0.3409220
  C       -1.6830070    -2.1819480    -0.0885940
  C        1.5125100    -2.3214750    -0.1762480
  C       -2.8486430     1.5569180    -0.8246800
  C        2.8130920     1.5744450    -0.9510270
  H        3.2336060     0.0303330     0.5193890
  H        2.5305840     1.4962520     1.1974230
  H       -2.2159340     1.8224920     1.2344330
  H       -3.1130010     0.3316860     0.9491040
  H       -1.4229750    -3.0387300     0.5441040
  H       -2.7119990    -1.8902510     0.1457090
  H       -1.6650160    -2.5262940    -1.1310850
  H        2.5139960    -2.0634500    -0.5387900
  H        1.6307130    -2.9166200     0.7385330
  H        1.0429930    -2.9642660    -0.9286680
  H        2.8128660     0.8932150    -1.8063400
  H        3.7971100     2.0487280    -0.8855010
  H        2.0638530     2.3513280    -1.1313670
  H       -2.0994070     2.2298930    -1.2537260
  H       -3.7828960     2.1123340    -0.7007770
  H       -3.0218850     0.7415120    -1.5334270
units angstrom
no_reorient  #important for SAPT in psi4, default
symmetry c1  #important for SAPT in psi4, default
}

set PROPERTIES_ORIGIN ["COM"]
properties('MP2/aug-cc-pvtz', properties = ['dipole'])
--------------------------------------------------------------------------

    Molecular point group: c1
  Charge       = 0
  Multiplicity = 1
  Basis Set: AUG-CC-PVTZ
    Blend: AUG-CC-PVTZ
  Basis Set: (AUG-CC-PVTZ AUX)
    Blend: AUG-CC-PVTZ-JKFIT

    Orbital Energies [Eh]
    ---------------------

    Doubly Occupied:

       1A    -20.598879     2A    -11.272209     3A    -11.271992
       4A    -11.245337     5A    -11.231185     6A    -11.223767
       7A    -11.223275     8A    -11.218935     9A    -11.217003
      10A    -11.215892    11A    -11.205874    12A     -1.430308
      13A     -1.106095    14A     -1.096948    15A     -1.056731
      16A     -0.996592    17A     -0.935025    18A     -0.932943
      19A     -0.865947    20A     -0.801051    21A     -0.748213
      22A     -0.719975    23A     -0.659367    24A     -0.635075
      25A     -0.616516    26A     -0.613123    27A     -0.600267
      28A     -0.587631    29A     -0.580769    30A     -0.566628
      31A     -0.555745    32A     -0.550391    33A     -0.532506
      34A     -0.525672    35A     -0.524077    36A     -0.510140
      37A     -0.492063    38A     -0.480747    39A     -0.453601
      40A     -0.419435    41A     -0.361824    42A     -0.282400

  @DF-RHF Final Energy:  -462.93833748653259

   => Energetics <=

    Nuclear Repulsion Energy =            631.2536223087854523
    One-Electron Energy =               -1880.0596130105093380
    Two-Electron Energy =                 785.8676532151912397
    Total Energy =                       -462.9383374865326459
  Basis Set: (AUG-CC-PVTZ AUX)
    Blend: AUG-CC-PVTZ-RI
    Molecular point group: c1

    Geometry (in Angstrom), charge = 0, multiplicity = 1:

       Center              X                  Y                   Z               Mass
    ------------   -----------------  -----------------  -----------------  -----------------
         O            0.072515444692     1.018626620264     0.527177579129    15.994914619570
         C           -0.741697555308    -1.042406379736     0.146354579129    12.000000000000
         C            0.688502444692    -1.097252379736     0.081695579129    12.000000000000
         C           -1.071358555308     0.259614620264     0.414511579129    12.000000000000
         C            1.140197444692     0.173747620264     0.322686579129    12.000000000000
         C           -2.357751455308     1.044266820264     0.293469779129    12.000000000000
         C            2.485038444692     0.808452620264     0.360305579129    12.000000000000
         C           -1.682880555308    -2.185579379736    -0.069210420871    12.000000000000
         C            1.512636444692    -2.325106379736    -0.156864420871    12.000000000000
         C           -2.848516555308     1.553286620264    -0.805296420871    12.000000000000
         C            2.813218444692     1.570813620264    -0.931643420871    12.000000000000
         H            3.233732444692     0.026701620264     0.538772579129     1.007825032230
         H            2.530710444692     1.492620620264     1.216806579129     1.007825032230
         H           -2.215807555308     1.818860620264     1.253816579129     1.007825032230
         H           -3.112874555308     0.328054620264     0.968487579129     1.007825032230
         H           -1.422848555308    -3.042361379736     0.563487579129     1.007825032230
         H           -2.711872555308    -1.893882379736     0.165092579129     1.007825032230
         H           -1.664889555308    -2.529925379736    -1.111701420871     1.007825032230
         H            2.514122444692    -2.067081379736    -0.519406420871     1.007825032230
         H            1.630839444692    -2.920251379736     0.757916579129     1.007825032230
         H            1.043119444692    -2.967897379736    -0.909284420871     1.007825032230
         H            2.812992444692     0.889583620264    -1.786956420871     1.007825032230
         H            3.797236444692     2.045096620264    -0.866117420871     1.007825032230
         H            2.063979444692     2.347696620264    -1.111983420871     1.007825032230
         H           -2.099280555308     2.226261620264    -1.234342420871     1.007825032230
         H           -3.782769555308     2.108702620264    -0.681393420871     1.007825032230
         H           -3.021758555308     0.737880620264    -1.514043420871     1.007825032230

  Basis Set: AUG-CC-PVTZ
    Blend: AUG-CC-PVTZ
  Basis Set: (AUG-CC-PVTZ AUX)
    Blend: AUG-CC-PVTZ-JKFIT
	 Reference Energy          =    -462.9383374865325891 [Eh]
	 Singles Energy            =      -0.0000000000000000 [Eh]
	 Same-Spin Energy          =      -0.5005852098671888 [Eh]
	 Opposite-Spin Energy      =      -1.6725553847643453 [Eh]
	 Correlation Energy        =      -2.1731405946315343 [Eh]
	 Total Energy              =    -465.1114780811641367 [Eh]

	 ================> DF-SCS-MP2 Energies <==================
	-----------------------------------------------------------
	 SCS Same-Spin Scale       =       0.3333333333333333 [-]
	 SCS Opposite-Spin Scale   =       1.2000000000000000 [-]
	 SCS Same-Spin Energy      =      -0.1668617366223963 [Eh]
	 SCS Opposite-Spin Energy  =      -2.0070664617172143 [Eh]
	 SCS Correlation Energy    =      -2.1739281983396106 [Eh]
	 SCS Total Energy          =    -465.1122656848722272 [Eh]
	-----------------------------------------------------------

  Dipole Moment: [D]
     X:     0.0794      Y:    -0.6480      Z:    -0.5222     Total:     0.8360

*** Psi4 exiting successfully. Buy a developer a beer!
