                               Psi4 1.4a2.dev612

  ==> Input File <==

--------------------------------------------------------------------------
#psi4
#
memory 32 gb

molecule  {
0 1
  O        0.0723890     1.0222580     0.5077940
  C       -0.7418240    -1.0387750     0.1269710
  C        0.6883760    -1.0936210     0.0623120
  C       -1.0714850     0.2632460     0.3951280
  C        1.1400710     0.1773790     0.3033030
  C       -2.3565964     1.0110700     0.4706620
  C        2.4849120     0.8120840     0.3409220
  C       -1.6830070    -2.1819480    -0.0885940
  C        1.5125100    -2.3214750    -0.1762480
  C       -2.8486430     1.5569180    -0.8246800
  C        2.8130920     1.5744450    -0.9510270
  H        3.2336060     0.0303330     0.5193890
  H        2.5305840     1.4962520     1.1974230
  H       -2.2159340     1.8224920     1.2344330
  H       -3.1130010     0.3316860     0.9491040
  H       -1.4229750    -3.0387300     0.5441040
  H       -2.7119990    -1.8902510     0.1457090
  H       -1.6650160    -2.5262940    -1.1310850
  H        2.5139960    -2.0634500    -0.5387900
  H        1.6307130    -2.9166200     0.7385330
  H        1.0429930    -2.9642660    -0.9286680
  H        2.8128660     0.8932150    -1.8063400
  H        3.7971100     2.0487280    -0.8855010
  H        2.0638530     2.3513280    -1.1313670
  H       -2.0994070     2.2298930    -1.2537260
  H       -3.7828960     2.1123340    -0.7007770
  H       -3.0218850     0.7415120    -1.5334270
units angstrom
no_reorient  #important for SAPT in psi4, default
symmetry c1  #important for SAPT in psi4, default
}

set PROPERTIES_ORIGIN ["COM"]
properties('MP2/aug-cc-pvtz', properties = ['dipole'])
--------------------------------------------------------------------------

    Molecular point group: c1
  Charge       = 0
  Multiplicity = 1
  Basis Set: AUG-CC-PVTZ
    Blend: AUG-CC-PVTZ
  Basis Set: (AUG-CC-PVTZ AUX)
    Blend: AUG-CC-PVTZ-JKFIT

    Orbital Energies [Eh]
    ---------------------

    Doubly Occupied:

       1A    -20.598667     2A    -11.269927     3A    -11.269468
       4A    -11.232156     5A    -11.230183     6A    -11.223208
       7A    -11.223018     8A    -11.216564     9A    -11.215583
      10A    -11.214869    11A    -11.213601    12A     -1.429781
      13A     -1.099108    14A     -1.080798    15A     -1.039861
      16A     -0.991436    17A     -0.932539    18A     -0.929197
      19A     -0.869317    20A     -0.812944    21A     -0.749098
      22A     -0.721326    23A     -0.658030    24A     -0.627780
      25A     -0.611434    26A     -0.608486    27A     -0.588194
      28A     -0.584037    29A     -0.567968    30A     -0.556171
      31A     -0.550307    32A     -0.537363    33A     -0.530609
      34A     -0.525127    35A     -0.523534    36A     -0.507726
      37A     -0.493046    38A     -0.489851    39A     -0.476376
      40A     -0.464919    41A     -0.360971    42A     -0.279965

  @DF-RHF Final Energy:  -463.00893614788674

   => Energetics <=

    Nuclear Repulsion Energy =            629.9129778264082233
    One-Electron Energy =               -1877.6347440330225709
    Two-Electron Energy =                 784.7128300587276044
    Total Energy =                       -463.0089361478867431
  Basis Set: (AUG-CC-PVTZ AUX)
    Blend: AUG-CC-PVTZ-RI
    Molecular point group: c1

    Geometry (in Angstrom), charge = 0, multiplicity = 1:

       Center              X                  Y                   Z               Mass
    ------------   -----------------  -----------------  -----------------  -----------------
         O            0.072414353525     1.021531813963     0.511670691049    15.994914619570
         C           -0.741798646475    -1.039501186037     0.130847691049    12.000000000000
         C            0.688401353525    -1.094347186037     0.066188691049    12.000000000000
         C           -1.071459646475     0.262519813963     0.399004691049    12.000000000000
         C            1.140096353525     0.176652813963     0.307179691049    12.000000000000
         C           -2.356571046475     1.010343813963     0.474538691049    12.000000000000
         C            2.484937353525     0.811357813963     0.344798691049    12.000000000000
         C           -1.682981646475    -2.182674186037    -0.084717308951    12.000000000000
         C            1.512535353525    -2.322201186037    -0.172371308951    12.000000000000
         C           -2.848617646475     1.556191813963    -0.820803308951    12.000000000000
         C            2.813117353525     1.573718813963    -0.947150308951    12.000000000000
         H            3.233631353525     0.029606813963     0.523265691049     1.007825032230
         H            2.530609353525     1.495525813963     1.201299691049     1.007825032230
         H           -2.215908646475     1.821765813963     1.238309691049     1.007825032230
         H           -3.112975646475     0.330959813963     0.952980691049     1.007825032230
         H           -1.422949646475    -3.039456186037     0.547980691049     1.007825032230
         H           -2.711973646475    -1.890977186037     0.149585691049     1.007825032230
         H           -1.664990646475    -2.527020186037    -1.127208308951     1.007825032230
         H            2.514021353525    -2.064176186037    -0.534913308951     1.007825032230
         H            1.630738353525    -2.917346186037     0.742409691049     1.007825032230
         H            1.043018353525    -2.964992186037    -0.924791308951     1.007825032230
         H            2.812891353525     0.892488813963    -1.802463308951     1.007825032230
         H            3.797135353525     2.048001813963    -0.881624308951     1.007825032230
         H            2.063878353525     2.350601813963    -1.127490308951     1.007825032230
         H           -2.099381646475     2.229166813963    -1.249849308951     1.007825032230
         H           -3.782870646475     2.111607813963    -0.696900308951     1.007825032230
         H           -3.021859646475     0.740785813963    -1.529550308951     1.007825032230

  Basis Set: AUG-CC-PVTZ
    Blend: AUG-CC-PVTZ
  Basis Set: (AUG-CC-PVTZ AUX)
    Blend: AUG-CC-PVTZ-JKFIT
	 Reference Energy          =    -463.0089361478867431 [Eh]
	 Singles Energy            =      -0.0000000000000000 [Eh]
	 Same-Spin Energy          =      -0.4974608212424871 [Eh]
	 Opposite-Spin Energy      =      -1.6675744091900573 [Eh]
	 Correlation Energy        =      -2.1650352304325446 [Eh]
	 Total Energy              =    -465.1739713783192656 [Eh]

	 ================> DF-SCS-MP2 Energies <==================
	-----------------------------------------------------------
	 SCS Same-Spin Scale       =       0.3333333333333333 [-]
	 SCS Opposite-Spin Scale   =       1.2000000000000000 [-]
	 SCS Same-Spin Energy      =      -0.1658202737474957 [Eh]
	 SCS Opposite-Spin Energy  =      -2.0010892910280687 [Eh]
	 SCS Correlation Energy    =      -2.1669095647755645 [Eh]
	 SCS Total Energy          =    -465.1758457126622943 [Eh]
	-----------------------------------------------------------

  Dipole Moment: [D]
     X:    -0.0138      Y:    -0.6530      Z:    -0.2588     Total:     0.7026

*** Psi4 exiting successfully. Buy a developer a beer!
