                               Psi4 1.4a2.dev612

  ==> Input File <==

--------------------------------------------------------------------------
#psi4
#
memory 32 gb

molecule  {
0 1
  O        0.0723890     1.0222580     0.5077940
  C       -0.7418240    -1.0387750     0.1269710
  C        0.6883760    -1.0936210     0.0623120
  C       -1.0714850     0.2632460     0.3951280
  C        1.1400710     0.1773790     0.3033030
  C       -2.3562760     1.0018630     0.5198060
  C        2.4849120     0.8120840     0.3409220
  C       -1.6815053    -2.1920080    -0.0396395
  C        1.5125100    -2.3214750    -0.1762480
  C       -2.8486430     1.5569180    -0.8246800
  C        2.8130920     1.5744450    -0.9510270
  H        3.2336060     0.0303330     0.5193890
  H        2.5305840     1.4962520     1.1974230
  H       -2.2159340     1.8224920     1.2344330
  H       -3.1130010     0.3316860     0.9491040
  H       -1.4229750    -3.0387300     0.5441040
  H       -2.7119990    -1.8902510     0.1457090
  H       -1.6650160    -2.5262940    -1.1310850
  H        2.5139960    -2.0634500    -0.5387900
  H        1.6307130    -2.9166200     0.7385330
  H        1.0429930    -2.9642660    -0.9286680
  H        2.8128660     0.8932150    -1.8063400
  H        3.7971100     2.0487280    -0.8855010
  H        2.0638530     2.3513280    -1.1313670
  H       -2.0994070     2.2298930    -1.2537260
  H       -3.7828960     2.1123340    -0.7007770
  H       -3.0218850     0.7415120    -1.5334270
units angstrom
no_reorient  #important for SAPT in psi4, default
symmetry c1  #important for SAPT in psi4, default
}

set PROPERTIES_ORIGIN ["COM"]
properties('MP2/aug-cc-pvtz', properties = ['dipole'])
--------------------------------------------------------------------------

    Molecular point group: c1
  Charge       = 0
  Multiplicity = 1
  Basis Set: AUG-CC-PVTZ
    Blend: AUG-CC-PVTZ
  Basis Set: (AUG-CC-PVTZ AUX)
    Blend: AUG-CC-PVTZ-JKFIT

    Orbital Energies [Eh]
    ---------------------

    Doubly Occupied:

       1A    -20.598628     2A    -11.269559     3A    -11.269514
       4A    -11.230142     5A    -11.230025     6A    -11.223725
       7A    -11.222938     8A    -11.216388     9A    -11.215490
      10A    -11.215389    11A    -11.214660    12A     -1.429707
      13A     -1.098850    14A     -1.078898    15A     -1.036239
      16A     -0.990218    17A     -0.932584    18A     -0.927661
      19A     -0.870166    20A     -0.815651    21A     -0.749635
      22A     -0.721930    23A     -0.658401    24A     -0.626502
      25A     -0.611711    26A     -0.610005    27A     -0.587628
      28A     -0.586437    29A     -0.565510    30A     -0.556163
      31A     -0.550080    32A     -0.533716    33A     -0.525600
      34A     -0.523150    35A     -0.521893    36A     -0.505334
      37A     -0.495176    38A     -0.492538    39A     -0.483896
      40A     -0.467829    41A     -0.360176    42A     -0.278814

  @DF-RHF Final Energy:  -463.00954455026533

   => Energetics <=

    Nuclear Repulsion Energy =            629.5261369464894869
    One-Electron Energy =               -1876.8742493064009977
    Two-Electron Energy =                 784.3385678096461788
    Total Energy =                       -463.0095445502653320
  Basis Set: (AUG-CC-PVTZ AUX)
    Blend: AUG-CC-PVTZ-RI
    Molecular point group: c1

    Geometry (in Angstrom), charge = 0, multiplicity = 1:

       Center              X                  Y                   Z               Mass
    ------------   -----------------  -----------------  -----------------  -----------------
         O            0.072270617110     1.023051691855     0.503932187835    15.994914619570
         C           -0.741942382890    -1.037981308145     0.123109187835    12.000000000000
         C            0.688257617110    -1.092827308145     0.058450187835    12.000000000000
         C           -1.071603382890     0.264039691855     0.391266187835    12.000000000000
         C            1.139952617110     0.178172691855     0.299441187835    12.000000000000
         C           -2.356394382890     1.002656691855     0.515944187835    12.000000000000
         C            2.484793617110     0.812877691855     0.337060187835    12.000000000000
         C           -1.681623682890    -2.191214308145    -0.043501312165    12.000000000000
         C            1.512391617110    -2.320681308145    -0.180109812165    12.000000000000
         C           -2.848761382890     1.557711691855    -0.828541812165    12.000000000000
         C            2.812973617110     1.575238691855    -0.954888812165    12.000000000000
         H            3.233487617110     0.031126691855     0.515527187835     1.007825032230
         H            2.530465617110     1.497045691855     1.193561187835     1.007825032230
         H           -2.216052382890     1.823285691855     1.230571187835     1.007825032230
         H           -3.113119382890     0.332479691855     0.945242187835     1.007825032230
         H           -1.423093382890    -3.037936308145     0.540242187835     1.007825032230
         H           -2.712117382890    -1.889457308145     0.141847187835     1.007825032230
         H           -1.665134382890    -2.525500308145    -1.134946812165     1.007825032230
         H            2.513877617110    -2.062656308145    -0.542651812165     1.007825032230
         H            1.630594617110    -2.915826308145     0.734671187835     1.007825032230
         H            1.042874617110    -2.963472308145    -0.932529812165     1.007825032230
         H            2.812747617110     0.894008691855    -1.810201812165     1.007825032230
         H            3.796991617110     2.049521691855    -0.889362812165     1.007825032230
         H            2.063734617110     2.352121691855    -1.135228812165     1.007825032230
         H           -2.099525382890     2.230686691855    -1.257587812165     1.007825032230
         H           -3.783014382890     2.113127691855    -0.704638812165     1.007825032230
         H           -3.022003382890     0.742305691855    -1.537288812165     1.007825032230

  Basis Set: AUG-CC-PVTZ
    Blend: AUG-CC-PVTZ
  Basis Set: (AUG-CC-PVTZ AUX)
    Blend: AUG-CC-PVTZ-JKFIT
	 Reference Energy          =    -463.0095445502653320 [Eh]
	 Singles Energy            =      -0.0000000000000000 [Eh]
	 Same-Spin Energy          =      -0.4971257490222697 [Eh]
	 Opposite-Spin Energy      =      -1.6672073617853105 [Eh]
	 Correlation Energy        =      -2.1643331108075801 [Eh]
	 Total Energy              =    -465.1738776610729360 [Eh]

	 ================> DF-SCS-MP2 Energies <==================
	-----------------------------------------------------------
	 SCS Same-Spin Scale       =       0.3333333333333333 [-]
	 SCS Opposite-Spin Scale   =       1.2000000000000000 [-]
	 SCS Same-Spin Energy      =      -0.1657085830074232 [Eh]
	 SCS Opposite-Spin Energy  =      -2.0006488341423725 [Eh]
	 SCS Correlation Energy    =      -2.1663574171497957 [Eh]
	 SCS Total Energy          =    -465.1759019674151432 [Eh]
	-----------------------------------------------------------

  Dipole Moment: [D]
     X:    -0.0293      Y:    -0.6586      Z:    -0.1839     Total:     0.6844

*** Psi4 exiting successfully. Buy a developer a beer!
