                               Psi4 1.4a2.dev612

  ==> Input File <==

--------------------------------------------------------------------------
#psi4
#
memory 32 gb

molecule  {
0 1
  O        0.0723890     1.0222580     0.5077940
  C       -0.7418240    -1.0387750     0.1269710
  C        0.6883760    -1.0936210     0.0623120
  C       -1.0714850     0.2632460     0.3951280
  C        1.1400710     0.1773790     0.3033030
  C       -2.3562760     1.0018630     0.5198060
  C        2.4849120     0.8120840     0.3409220
  C       -1.6739969    -2.2423080     0.2051329
  C        1.5125100    -2.3214750    -0.1762480
  C       -2.8486430     1.5569180    -0.8246800
  C        2.8130920     1.5744450    -0.9510270
  H        3.2336060     0.0303330     0.5193890
  H        2.5305840     1.4962520     1.1974230
  H       -2.2159340     1.8224920     1.2344330
  H       -3.1130010     0.3316860     0.9491040
  H       -1.4229750    -3.0387300     0.5441040
  H       -2.7119990    -1.8902510     0.1457090
  H       -1.6650160    -2.5262940    -1.1310850
  H        2.5139960    -2.0634500    -0.5387900
  H        1.6307130    -2.9166200     0.7385330
  H        1.0429930    -2.9642660    -0.9286680
  H        2.8128660     0.8932150    -1.8063400
  H        3.7971100     2.0487280    -0.8855010
  H        2.0638530     2.3513280    -1.1313670
  H       -2.0994070     2.2298930    -1.2537260
  H       -3.7828960     2.1123340    -0.7007770
  H       -3.0218850     0.7415120    -1.5334270
units angstrom
no_reorient  #important for SAPT in psi4, default
symmetry c1  #important for SAPT in psi4, default
}

set PROPERTIES_ORIGIN ["COM"]
properties('MP2/aug-cc-pvtz', properties = ['dipole'])
--------------------------------------------------------------------------

    Molecular point group: c1
  Charge       = 0
  Multiplicity = 1
  Basis Set: AUG-CC-PVTZ
    Blend: AUG-CC-PVTZ
  Basis Set: (AUG-CC-PVTZ AUX)
    Blend: AUG-CC-PVTZ-JKFIT

    Orbital Energies [Eh]
    ---------------------

    Doubly Occupied:

       1A    -20.599999     2A    -11.271067     3A    -11.270914
       4A    -11.237417     5A    -11.231283     6A    -11.230803
       7A    -11.223234     8A    -11.223180     9A    -11.217042
      10A    -11.216257    11A    -11.215128    12A     -1.431096
      13A     -1.099754    14A     -1.079870    15A     -1.037199
      16A     -0.992504    17A     -0.939898    18A     -0.929316
      19A     -0.871054    20A     -0.818017    21A     -0.756562
      22A     -0.722965    23A     -0.666236    24A     -0.638777
      25A     -0.623300    26A     -0.610884    27A     -0.603621
      28A     -0.587382    29A     -0.567581    30A     -0.563037
      31A     -0.544241    32A     -0.533378    33A     -0.525556
      34A     -0.523301    35A     -0.506074    36A     -0.498652
      37A     -0.494066    38A     -0.484762    39A     -0.475702
      40A     -0.464196    41A     -0.352231    42A     -0.277887

  @DF-RHF Final Energy:  -462.93045155452393

   => Energetics <=

    Nuclear Repulsion Energy =            628.9140524103987673
    One-Electron Energy =               -1875.3781605566598500
    Two-Electron Energy =                 783.5336565917370990
    Total Energy =                       -462.9304515545238701
  Basis Set: (AUG-CC-PVTZ AUX)
    Blend: AUG-CC-PVTZ-RI
    Molecular point group: c1

    Geometry (in Angstrom), charge = 0, multiplicity = 1:

       Center              X                  Y                   Z               Mass
    ------------   -----------------  -----------------  -----------------  -----------------
         O            0.071678316743     1.027019608915     0.484623309470    15.994914619570
         C           -0.742534683257    -1.034013391085     0.103800309470    12.000000000000
         C            0.687665316743    -1.088859391085     0.039141309470    12.000000000000
         C           -1.072195683257     0.268007608915     0.371957309470    12.000000000000
         C            1.139360316743     0.182140608915     0.280132309470    12.000000000000
         C           -2.356986683257     1.006624608915     0.496635309470    12.000000000000
         C            2.484201316743     0.816845608915     0.317751309470    12.000000000000
         C           -1.674707583257    -2.237546391085     0.181962209470    12.000000000000
         C            1.511799316743    -2.316713391085    -0.199418690530    12.000000000000
         C           -2.849353683257     1.561679608915    -0.847850690530    12.000000000000
         C            2.812381316743     1.579206608915    -0.974197690530    12.000000000000
         H            3.232895316743     0.035094608915     0.496218309470     1.007825032230
         H            2.529873316743     1.501013608915     1.174252309470     1.007825032230
         H           -2.216644683257     1.827253608915     1.211262309470     1.007825032230
         H           -3.113711683257     0.336447608915     0.925933309470     1.007825032230
         H           -1.423685683257    -3.033968391085     0.520933309470     1.007825032230
         H           -2.712709683257    -1.885489391085     0.122538309470     1.007825032230
         H           -1.665726683257    -2.521532391085    -1.154255690530     1.007825032230
         H            2.513285316743    -2.058688391085    -0.561960690530     1.007825032230
         H            1.630002316743    -2.911858391085     0.715362309470     1.007825032230
         H            1.042282316743    -2.959504391085    -0.951838690530     1.007825032230
         H            2.812155316743     0.897976608915    -1.829510690530     1.007825032230
         H            3.796399316743     2.053489608915    -0.908671690530     1.007825032230
         H            2.063142316743     2.356089608915    -1.154537690530     1.007825032230
         H           -2.100117683257     2.234654608915    -1.276896690530     1.007825032230
         H           -3.783606683257     2.117095608915    -0.723947690530     1.007825032230
         H           -3.022595683257     0.746273608915    -1.556597690530     1.007825032230

  Basis Set: AUG-CC-PVTZ
    Blend: AUG-CC-PVTZ
  Basis Set: (AUG-CC-PVTZ AUX)
    Blend: AUG-CC-PVTZ-JKFIT
	 Reference Energy          =    -462.9304515545239269 [Eh]
	 Singles Energy            =      -0.0000000000000000 [Eh]
	 Same-Spin Energy          =      -0.4981442750429704 [Eh]
	 Opposite-Spin Energy      =      -1.6709323455957845 [Eh]
	 Correlation Energy        =      -2.1690766206387551 [Eh]
	 Total Energy              =    -465.0995281751626749 [Eh]

	 ================> DF-SCS-MP2 Energies <==================
	-----------------------------------------------------------
	 SCS Same-Spin Scale       =       0.3333333333333333 [-]
	 SCS Opposite-Spin Scale   =       1.2000000000000000 [-]
	 SCS Same-Spin Energy      =      -0.1660480916809901 [Eh]
	 SCS Opposite-Spin Energy  =      -2.0051188147149412 [Eh]
	 SCS Correlation Energy    =      -2.1711669063959311 [Eh]
	 SCS Total Energy          =    -465.1016184609198376 [Eh]
	-----------------------------------------------------------

  Dipole Moment: [D]
     X:     0.0257      Y:    -0.5635      Z:    -0.0177     Total:     0.5643

*** Psi4 exiting successfully. Buy a developer a beer!
