                               Psi4 1.4a2.dev612

  ==> Input File <==

--------------------------------------------------------------------------
#psi4
#
memory 32 gb

molecule  {
0 1
  O        0.0723890     1.0222580     0.5077940
  C       -0.7418240    -1.0387750     0.1269710
  C        0.6883760    -1.0936210     0.0623120
  C       -1.0714850     0.2632460     0.3951280
  C        1.1400710     0.1773790     0.3033030
  C       -2.3562760     1.0018630     0.5198060
  C        2.4849120     0.8120840     0.3409220
  C       -1.6770003    -2.2221880     0.1072239
  C        1.5125100    -2.3214750    -0.1762480
  C       -2.8486430     1.5569180    -0.8246800
  C        2.8130920     1.5744450    -0.9510270
  H        3.2336060     0.0303330     0.5193890
  H        2.5305840     1.4962520     1.1974230
  H       -2.2159340     1.8224920     1.2344330
  H       -3.1130010     0.3316860     0.9491040
  H       -1.4229750    -3.0387300     0.5441040
  H       -2.7119990    -1.8902510     0.1457090
  H       -1.6650160    -2.5262940    -1.1310850
  H        2.5139960    -2.0634500    -0.5387900
  H        1.6307130    -2.9166200     0.7385330
  H        1.0429930    -2.9642660    -0.9286680
  H        2.8128660     0.8932150    -1.8063400
  H        3.7971100     2.0487280    -0.8855010
  H        2.0638530     2.3513280    -1.1313670
  H       -2.0994070     2.2298930    -1.2537260
  H       -3.7828960     2.1123340    -0.7007770
  H       -3.0218850     0.7415120    -1.5334270
units angstrom
no_reorient  #important for SAPT in psi4, default
symmetry c1  #important for SAPT in psi4, default
}

set PROPERTIES_ORIGIN ["COM"]
properties('MP2/aug-cc-pvtz', properties = ['dipole'])
--------------------------------------------------------------------------

    Molecular point group: c1
  Charge       = 0
  Multiplicity = 1
  Basis Set: AUG-CC-PVTZ
    Blend: AUG-CC-PVTZ
  Basis Set: (AUG-CC-PVTZ AUX)
    Blend: AUG-CC-PVTZ-JKFIT

    Orbital Energies [Eh]
    ---------------------

    Doubly Occupied:

       1A    -20.599193     2A    -11.270195     3A    -11.270088
       4A    -11.230639     5A    -11.230386     6A    -11.229806
       7A    -11.223104     8A    -11.219268     9A    -11.216426
      10A    -11.215812    11A    -11.214850    12A     -1.430286
      13A     -1.099318    14A     -1.079326    15A     -1.036668
      16A     -0.991244    17A     -0.935662    18A     -0.928588
      19A     -0.870556    20A     -0.816719    21A     -0.752737
      22A     -0.722566    23A     -0.661418    24A     -0.628918
      25A     -0.620573    26A     -0.610526    27A     -0.600496
      28A     -0.587036    29A     -0.565874    30A     -0.562545
      31A     -0.545849    32A     -0.533680    33A     -0.525534
      34A     -0.522735    35A     -0.505691    36A     -0.501442
      37A     -0.493967    38A     -0.488094    39A     -0.484238
      40A     -0.468346    41A     -0.356445    42A     -0.278361

  @DF-RHF Final Energy:  -462.97454704892704

   => Energetics <=

    Nuclear Repulsion Energy =            629.2314438915178698
    One-Electron Energy =               -1876.1615714619154005
    Two-Electron Energy =                 783.9555805214703241
    Total Energy =                       -462.9745470489270929
  Basis Set: (AUG-CC-PVTZ AUX)
    Blend: AUG-CC-PVTZ-RI
    Molecular point group: c1

    Geometry (in Angstrom), charge = 0, multiplicity = 1:

       Center              X                  Y                   Z               Mass
    ------------   -----------------  -----------------  -----------------  -----------------
         O            0.071915240045     1.025432442091     0.492346863971    15.994914619570
         C           -0.742297759955    -1.035600557909     0.111523863971    12.000000000000
         C            0.687902240045    -1.090446557909     0.046864863971    12.000000000000
         C           -1.071958759955     0.266420442091     0.379680863971    12.000000000000
         C            1.139597240045     0.180553442091     0.287855863971    12.000000000000
         C           -2.356749759955     1.005037442091     0.504358863971    12.000000000000
         C            2.484438240045     0.815258442091     0.325474863971    12.000000000000
         C           -1.677474059955    -2.219013557909     0.091776763971    12.000000000000
         C            1.512036240045    -2.318300557909    -0.191695136029    12.000000000000
         C           -2.849116759955     1.560092442091    -0.840127136029    12.000000000000
         C            2.812618240045     1.577619442091    -0.966474136029    12.000000000000
         H            3.233132240045     0.033507442091     0.503941863971     1.007825032230
         H            2.530110240045     1.499426442091     1.181975863971     1.007825032230
         H           -2.216407759955     1.825666442091     1.218985863971     1.007825032230
         H           -3.113474759955     0.334860442091     0.933656863971     1.007825032230
         H           -1.423448759955    -3.035555557909     0.528656863971     1.007825032230
         H           -2.712472759955    -1.887076557909     0.130261863971     1.007825032230
         H           -1.665489759955    -2.523119557909    -1.146532136029     1.007825032230
         H            2.513522240045    -2.060275557909    -0.554237136029     1.007825032230
         H            1.630239240045    -2.913445557909     0.723085863971     1.007825032230
         H            1.042519240045    -2.961091557909    -0.944115136029     1.007825032230
         H            2.812392240045     0.896389442091    -1.821787136029     1.007825032230
         H            3.796636240045     2.051902442091    -0.900948136029     1.007825032230
         H            2.063379240045     2.354502442091    -1.146814136029     1.007825032230
         H           -2.099880759955     2.233067442091    -1.269173136029     1.007825032230
         H           -3.783369759955     2.115508442091    -0.716224136029     1.007825032230
         H           -3.022358759955     0.744686442091    -1.548874136029     1.007825032230

  Basis Set: AUG-CC-PVTZ
    Blend: AUG-CC-PVTZ
  Basis Set: (AUG-CC-PVTZ AUX)
    Blend: AUG-CC-PVTZ-JKFIT
	 Reference Energy          =    -462.9745470489270360 [Eh]
	 Singles Energy            =      -0.0000000000000000 [Eh]
	 Same-Spin Energy          =      -0.4975554840701456 [Eh]
	 Opposite-Spin Energy      =      -1.6687465872550318 [Eh]
	 Correlation Energy        =      -2.1663020713251773 [Eh]
	 Total Energy              =    -465.1408491202521986 [Eh]

	 ================> DF-SCS-MP2 Energies <==================
	-----------------------------------------------------------
	 SCS Same-Spin Scale       =       0.3333333333333333 [-]
	 SCS Opposite-Spin Scale   =       1.2000000000000000 [-]
	 SCS Same-Spin Energy      =      -0.1658518280233819 [Eh]
	 SCS Opposite-Spin Energy  =      -2.0024959047060382 [Eh]
	 SCS Correlation Energy    =      -2.1683477327294201 [Eh]
	 SCS Total Energy          =    -465.1428947816564801 [Eh]
	-----------------------------------------------------------

  Dipole Moment: [D]
     X:    -0.0050      Y:    -0.6216      Z:    -0.0788     Total:     0.6266

*** Psi4 exiting successfully. Buy a developer a beer!
