                               Psi4 1.4a2.dev612

  ==> Input File <==

--------------------------------------------------------------------------
#psi4
#
memory 32 gb

molecule  {
0 1
  O        0.0723890     1.0222580     0.5077940
  C       -0.7418240    -1.0387750     0.1269710
  C        0.6883760    -1.0936210     0.0623120
  C       -1.0714850     0.2632460     0.3951280
  C        1.1400710     0.1773790     0.3033030
  C       -2.3562760     1.0018630     0.5198060
  C        2.4849120     0.8120840     0.3409220
  C       -1.6800036    -2.2020680     0.0093150
  C        1.5125100    -2.3214750    -0.1762480
  C       -2.8486430     1.5569180    -0.8246800
  C        2.8130920     1.5744450    -0.9510270
  H        3.2336060     0.0303330     0.5193890
  H        2.5305840     1.4962520     1.1974230
  H       -2.2159340     1.8224920     1.2344330
  H       -3.1130010     0.3316860     0.9491040
  H       -1.4229750    -3.0387300     0.5441040
  H       -2.7119990    -1.8902510     0.1457090
  H       -1.6650160    -2.5262940    -1.1310850
  H        2.5139960    -2.0634500    -0.5387900
  H        1.6307130    -2.9166200     0.7385330
  H        1.0429930    -2.9642660    -0.9286680
  H        2.8128660     0.8932150    -1.8063400
  H        3.7971100     2.0487280    -0.8855010
  H        2.0638530     2.3513280    -1.1313670
  H       -2.0994070     2.2298930    -1.2537260
  H       -3.7828960     2.1123340    -0.7007770
  H       -3.0218850     0.7415120    -1.5334270
units angstrom
no_reorient  #important for SAPT in psi4, default
symmetry c1  #important for SAPT in psi4, default
}

set PROPERTIES_ORIGIN ["COM"]
properties('MP2/aug-cc-pvtz', properties = ['dipole'])
--------------------------------------------------------------------------

    Molecular point group: c1
  Charge       = 0
  Multiplicity = 1
  Basis Set: AUG-CC-PVTZ
    Blend: AUG-CC-PVTZ
  Basis Set: (AUG-CC-PVTZ AUX)
    Blend: AUG-CC-PVTZ-JKFIT

    Orbital Energies [Eh]
    ---------------------

    Doubly Occupied:

       1A    -20.598719     2A    -11.269693     3A    -11.269579
       4A    -11.230235     5A    -11.230105     6A    -11.225004
       7A    -11.222993     8A    -11.216858     9A    -11.215788
      10A    -11.215544    11A    -11.214689    12A     -1.429803
      13A     -1.098971    14A     -1.078980    15A     -1.036326
      16A     -0.990458    17A     -0.933195    18A     -0.927893
      19A     -0.870241    20A     -0.815875    21A     -0.750277
      22A     -0.722138    23A     -0.659040    24A     -0.626235
      25A     -0.613604    26A     -0.610180    27A     -0.592347
      28A     -0.586774    29A     -0.564797    30A     -0.559510
      31A     -0.548077    32A     -0.533781    33A     -0.525193
      34A     -0.522258    35A     -0.516252    36A     -0.505369
      37A     -0.494927    38A     -0.492426    39A     -0.483977
      40A     -0.468248    41A     -0.359284    42A     -0.278676

  @DF-RHF Final Energy:  -463.00232262558063

   => Energetics <=

    Nuclear Repulsion Energy =            629.4512704673393273
    One-Electron Energy =               -1876.6985444437029855
    Two-Electron Energy =                 784.2449513507830261
    Total Energy =                       -463.0023226255806321
  Basis Set: (AUG-CC-PVTZ AUX)
    Blend: AUG-CC-PVTZ-RI
    Molecular point group: c1

    Geometry (in Angstrom), charge = 0, multiplicity = 1:

       Center              X                  Y                   Z               Mass
    ------------   -----------------  -----------------  -----------------  -----------------
         O            0.072152155459     1.023845275267     0.500070410584    15.994914619570
         C           -0.742060844541    -1.037187724733     0.119247410584    12.000000000000
         C            0.688139155459    -1.092033724733     0.054588410584    12.000000000000
         C           -1.071721844541     0.264833275267     0.387404410584    12.000000000000
         C            1.139834155459     0.178966275267     0.295579410584    12.000000000000
         C           -2.356512844541     1.003450275267     0.512082410584    12.000000000000
         C            2.484675155459     0.813671275267     0.333198410584    12.000000000000
         C           -1.680240444541    -2.200480724733     0.001591410584    12.000000000000
         C            1.512273155459    -2.319887724733    -0.183971589416    12.000000000000
         C           -2.848879844541     1.558505275267    -0.832403589416    12.000000000000
         C            2.812855155459     1.576032275267    -0.958750589416    12.000000000000
         H            3.233369155459     0.031920275267     0.511665410584     1.007825032230
         H            2.530347155459     1.497839275267     1.189699410584     1.007825032230
         H           -2.216170844541     1.824079275267     1.226709410584     1.007825032230
         H           -3.113237844541     0.333273275267     0.941380410584     1.007825032230
         H           -1.423211844541    -3.037142724733     0.536380410584     1.007825032230
         H           -2.712235844541    -1.888663724733     0.137985410584     1.007825032230
         H           -1.665252844541    -2.524706724733    -1.138808589416     1.007825032230
         H            2.513759155459    -2.061862724733    -0.546513589416     1.007825032230
         H            1.630476155459    -2.915032724733     0.730809410584     1.007825032230
         H            1.042756155459    -2.962678724733    -0.936391589416     1.007825032230
         H            2.812629155459     0.894802275267    -1.814063589416     1.007825032230
         H            3.796873155459     2.050315275267    -0.893224589416     1.007825032230
         H            2.063616155459     2.352915275267    -1.139090589416     1.007825032230
         H           -2.099643844541     2.231480275267    -1.261449589416     1.007825032230
         H           -3.783132844541     2.113921275267    -0.708500589416     1.007825032230
         H           -3.022121844541     0.743099275267    -1.541150589416     1.007825032230

  Basis Set: AUG-CC-PVTZ
    Blend: AUG-CC-PVTZ
  Basis Set: (AUG-CC-PVTZ AUX)
    Blend: AUG-CC-PVTZ-JKFIT
	 Reference Energy          =    -463.0023226255806321 [Eh]
	 Singles Energy            =      -0.0000000000000000 [Eh]
	 Same-Spin Energy          =      -0.4972107498358930 [Eh]
	 Opposite-Spin Energy      =      -1.6675004250582428 [Eh]
	 Correlation Energy        =      -2.1647111748941357 [Eh]
	 Total Energy              =    -465.1670338004747691 [Eh]

	 ================> DF-SCS-MP2 Energies <==================
	-----------------------------------------------------------
	 SCS Same-Spin Scale       =       0.3333333333333333 [-]
	 SCS Opposite-Spin Scale   =       1.2000000000000000 [-]
	 SCS Same-Spin Energy      =      -0.1657369166119643 [Eh]
	 SCS Opposite-Spin Energy  =      -2.0010005100698911 [Eh]
	 SCS Correlation Energy    =      -2.1667374266818555 [Eh]
	 SCS Total Energy          =    -465.1690600522624663 [Eh]
	-----------------------------------------------------------

  Dipole Moment: [D]
     X:    -0.0244      Y:    -0.6548      Z:    -0.1494     Total:     0.6720

*** Psi4 exiting successfully. Buy a developer a beer!
