                               Psi4 1.4a2.dev612

  ==> Input File <==

--------------------------------------------------------------------------
#psi4
#
memory 32 gb

molecule  {
0 1
  O        0.0723890     1.0222580     0.5077940
  C       -0.7418240    -1.0387750     0.1269710
  C        0.6883760    -1.0936210     0.0623120
  C       -1.0714850     0.2632460     0.3951280
  C        1.1400710     0.1773790     0.3033030
  C       -2.3575575     1.0386911     0.3232302
  C        2.4849120     0.8120840     0.3409220
  C       -1.6830070    -2.1819480    -0.0885940
  C        1.5125100    -2.3214750    -0.1762480
  C       -2.8486430     1.5569180    -0.8246800
  C        2.8130920     1.5744450    -0.9510270
  H        3.2336060     0.0303330     0.5193890
  H        2.5305840     1.4962520     1.1974230
  H       -2.2159340     1.8224920     1.2344330
  H       -3.1130010     0.3316860     0.9491040
  H       -1.4229750    -3.0387300     0.5441040
  H       -2.7119990    -1.8902510     0.1457090
  H       -1.6650160    -2.5262940    -1.1310850
  H        2.5139960    -2.0634500    -0.5387900
  H        1.6307130    -2.9166200     0.7385330
  H        1.0429930    -2.9642660    -0.9286680
  H        2.8128660     0.8932150    -1.8063400
  H        3.7971100     2.0487280    -0.8855010
  H        2.0638530     2.3513280    -1.1313670
  H       -2.0994070     2.2298930    -1.2537260
  H       -3.7828960     2.1123340    -0.7007770
  H       -3.0218850     0.7415120    -1.5334270
units angstrom
no_reorient  #important for SAPT in psi4, default
symmetry c1  #important for SAPT in psi4, default
}

set PROPERTIES_ORIGIN ["COM"]
properties('MP2/aug-cc-pvtz', properties = ['dipole'])
--------------------------------------------------------------------------

    Molecular point group: c1
  Charge       = 0
  Multiplicity = 1
  Basis Set: AUG-CC-PVTZ
    Blend: AUG-CC-PVTZ
  Basis Set: (AUG-CC-PVTZ AUX)
    Blend: AUG-CC-PVTZ-JKFIT

    Orbital Energies [Eh]
    ---------------------

    Doubly Occupied:

       1A    -20.598802     2A    -11.271571     3A    -11.270885
       4A    -11.241410     5A    -11.230900     6A    -11.223548
       7A    -11.223259     8A    -11.218240     9A    -11.216643
      10A    -11.215600    11A    -11.207699    12A     -1.430134
      13A     -1.101627    14A     -1.092371    15A     -1.052935
      16A     -0.995458    17A     -0.934136    18A     -0.932537
      19A     -0.866808    20A     -0.804215    21A     -0.748373
      22A     -0.720226    23A     -0.658650    24A     -0.632111
      25A     -0.614260    26A     -0.610701    27A     -0.596016
      28A     -0.586455    29A     -0.574492    30A     -0.565413
      31A     -0.555335    32A     -0.549815    33A     -0.532313
      34A     -0.525633    35A     -0.523956    36A     -0.509748
      37A     -0.491977    38A     -0.482233    39A     -0.459795
      40A     -0.433687    41A     -0.361630    42A     -0.282025

  @DF-RHF Final Energy:  -462.96602264878220

   => Energetics <=

    Nuclear Repulsion Energy =            630.9109578138121606
    One-Electron Energy =               -1879.4667134782253015
    Two-Electron Energy =                 785.5897330156308271
    Total Energy =                       -462.9660226487822001
  Basis Set: (AUG-CC-PVTZ AUX)
    Blend: AUG-CC-PVTZ-RI
    Molecular point group: c1

    Geometry (in Angstrom), charge = 0, multiplicity = 1:

       Center              X                  Y                   Z               Mass
    ------------   -----------------  -----------------  -----------------  -----------------
         O            0.072490169928     1.019352922633     0.523300853164    15.994914619570
         C           -0.741722830072    -1.041680077367     0.142477853164    12.000000000000
         C            0.688477169928    -1.096526077367     0.077818853164    12.000000000000
         C           -1.071383830072     0.260340922633     0.410634853164    12.000000000000
         C            1.140172169928     0.174473922633     0.318809853164    12.000000000000
         C           -2.357456330072     1.035786022633     0.338737053164    12.000000000000
         C            2.485013169928     0.809178922633     0.356428853164    12.000000000000
         C           -1.682905830072    -2.184853077367    -0.073087146836    12.000000000000
         C            1.512611169928    -2.324380077367    -0.160741146836    12.000000000000
         C           -2.848541830072     1.554012922633    -0.809173146836    12.000000000000
         C            2.813193169928     1.571539922633    -0.935520146836    12.000000000000
         H            3.233707169928     0.027427922633     0.534895853164     1.007825032230
         H            2.530685169928     1.493346922633     1.212929853164     1.007825032230
         H           -2.215832830072     1.819586922633     1.249939853164     1.007825032230
         H           -3.112899830072     0.328780922633     0.964610853164     1.007825032230
         H           -1.422873830072    -3.041635077367     0.559610853164     1.007825032230
         H           -2.711897830072    -1.893156077367     0.161215853164     1.007825032230
         H           -1.664914830072    -2.529199077367    -1.115578146836     1.007825032230
         H            2.514097169928    -2.066355077367    -0.523283146836     1.007825032230
         H            1.630814169928    -2.919525077367     0.754039853164     1.007825032230
         H            1.043094169928    -2.967171077367    -0.913161146836     1.007825032230
         H            2.812967169928     0.890309922633    -1.790833146836     1.007825032230
         H            3.797211169928     2.045822922633    -0.869994146836     1.007825032230
         H            2.063954169928     2.348422922633    -1.115860146836     1.007825032230
         H           -2.099305830072     2.226987922633    -1.238219146836     1.007825032230
         H           -3.782794830072     2.109428922633    -0.685270146836     1.007825032230
         H           -3.021783830072     0.738606922633    -1.517920146836     1.007825032230

  Basis Set: AUG-CC-PVTZ
    Blend: AUG-CC-PVTZ
  Basis Set: (AUG-CC-PVTZ AUX)
    Blend: AUG-CC-PVTZ-JKFIT
	 Reference Energy          =    -462.9660226487822001 [Eh]
	 Singles Energy            =      -0.0000000000000000 [Eh]
	 Same-Spin Energy          =      -0.4995306525807617 [Eh]
	 Opposite-Spin Energy      =      -1.6708121910817080 [Eh]
	 Correlation Energy        =      -2.1703428436624694 [Eh]
	 Total Energy              =    -465.1363654924446678 [Eh]

	 ================> DF-SCS-MP2 Energies <==================
	-----------------------------------------------------------
	 SCS Same-Spin Scale       =       0.3333333333333333 [-]
	 SCS Opposite-Spin Scale   =       1.2000000000000000 [-]
	 SCS Same-Spin Energy      =      -0.1665102175269206 [Eh]
	 SCS Opposite-Spin Energy  =      -2.0049746292980495 [Eh]
	 SCS Correlation Energy    =      -2.1714848468249701 [Eh]
	 SCS Total Energy          =    -465.1375074956071671 [Eh]
	-----------------------------------------------------------

  Dipole Moment: [D]
     X:     0.0523      Y:    -0.6511      Z:    -0.4381     Total:     0.7865

*** Psi4 exiting successfully. Buy a developer a beer!
