                               Psi4 1.4a2.dev612

  ==> Input File <==

--------------------------------------------------------------------------
#psi4
#
memory 32 gb

molecule  {
0 1
  O        0.0723890     1.0222580     0.5077940
  C       -0.7418240    -1.0387750     0.1269710
  C        0.6883760    -1.0936210     0.0623120
  C       -1.0714850     0.2632460     0.3951280
  C        1.1400710     0.1773790     0.3033030
  C       -2.3581983     1.0571052     0.2249423
  C        2.4849120     0.8120840     0.3409220
  C       -1.6830070    -2.1819480    -0.0885940
  C        1.5125100    -2.3214750    -0.1762480
  C       -2.8486430     1.5569180    -0.8246800
  C        2.8130920     1.5744450    -0.9510270
  H        3.2336060     0.0303330     0.5193890
  H        2.5305840     1.4962520     1.1974230
  H       -2.2159340     1.8224920     1.2344330
  H       -3.1130010     0.3316860     0.9491040
  H       -1.4229750    -3.0387300     0.5441040
  H       -2.7119990    -1.8902510     0.1457090
  H       -1.6650160    -2.5262940    -1.1310850
  H        2.5139960    -2.0634500    -0.5387900
  H        1.6307130    -2.9166200     0.7385330
  H        1.0429930    -2.9642660    -0.9286680
  H        2.8128660     0.8932150    -1.8063400
  H        3.7971100     2.0487280    -0.8855010
  H        2.0638530     2.3513280    -1.1313670
  H       -2.0994070     2.2298930    -1.2537260
  H       -3.7828960     2.1123340    -0.7007770
  H       -3.0218850     0.7415120    -1.5334270
units angstrom
no_reorient  #important for SAPT in psi4, default
symmetry c1  #important for SAPT in psi4, default
}

set PROPERTIES_ORIGIN ["COM"]
properties('MP2/aug-cc-pvtz', properties = ['dipole'])
--------------------------------------------------------------------------

    Molecular point group: c1
  Charge       = 0
  Multiplicity = 1
  Basis Set: AUG-CC-PVTZ
    Blend: AUG-CC-PVTZ
  Basis Set: (AUG-CC-PVTZ AUX)
    Blend: AUG-CC-PVTZ-JKFIT

    Orbital Energies [Eh]
    ---------------------

    Doubly Occupied:

       1A    -20.598980     2A    -11.273419     3A    -11.272886
       4A    -11.249593     5A    -11.231493     6A    -11.224008
       7A    -11.223287     8A    -11.219674     9A    -11.217393
      10A    -11.216211    11A    -11.204287    12A     -1.430514
      13A     -1.116008    14A     -1.098893    15A     -1.059709
      16A     -0.997573    17A     -0.935767    18A     -0.933276
      19A     -0.865070    20A     -0.797774    21A     -0.748099
      22A     -0.719819    23A     -0.660564    24A     -0.639208
      25A     -0.620568    26A     -0.615644    27A     -0.605054
      28A     -0.589092    29A     -0.585341    30A     -0.567142
      31A     -0.556047    32A     -0.550841    33A     -0.532690
      34A     -0.525746    35A     -0.524199    36A     -0.510527
      37A     -0.492226    38A     -0.479835    39A     -0.446100
      40A     -0.404719    41A     -0.361996    42A     -0.282616

  @DF-RHF Final Energy:  -462.90265278690168

   => Energetics <=

    Nuclear Repulsion Energy =            631.6074798195854783
    One-Electron Energy =               -1880.6524947431335022
    Two-Electron Energy =                 786.1423621366463976
    Total Energy =                       -462.9026527869016263
  Basis Set: (AUG-CC-PVTZ AUX)
    Blend: AUG-CC-PVTZ-RI
    Molecular point group: c1

    Geometry (in Angstrom), charge = 0, multiplicity = 1:

       Center              X                  Y                   Z               Mass
    ------------   -----------------  -----------------  -----------------  -----------------
         O            0.072540719456     1.017900325783     0.531054297204    15.994914619570
         C           -0.741672280544    -1.043132674217     0.150231297204    12.000000000000
         C            0.688527719456    -1.097978674217     0.085572297204    12.000000000000
         C           -1.071333280544     0.258888325783     0.418388297204    12.000000000000
         C            1.140222719456     0.173021325783     0.326563297204    12.000000000000
         C           -2.358046580544     1.052747525783     0.248202597204    12.000000000000
         C            2.485063719456     0.807726325783     0.364182297204    12.000000000000
         C           -1.682855280544    -2.186305674217    -0.065333702796    12.000000000000
         C            1.512661719456    -2.325832674217    -0.152987702796    12.000000000000
         C           -2.848491280544     1.552560325783    -0.801419702796    12.000000000000
         C            2.813243719456     1.570087325783    -0.927766702796    12.000000000000
         H            3.233757719456     0.025975325783     0.542649297204     1.007825032230
         H            2.530735719456     1.491894325783     1.220683297204     1.007825032230
         H           -2.215782280544     1.818134325783     1.257693297204     1.007825032230
         H           -3.112849280544     0.327328325783     0.972364297204     1.007825032230
         H           -1.422823280544    -3.043087674217     0.567364297204     1.007825032230
         H           -2.711847280544    -1.894608674217     0.168969297204     1.007825032230
         H           -1.664864280544    -2.530651674217    -1.107824702796     1.007825032230
         H            2.514147719456    -2.067807674217    -0.515529702796     1.007825032230
         H            1.630864719456    -2.920977674217     0.761793297204     1.007825032230
         H            1.043144719456    -2.968623674217    -0.905407702796     1.007825032230
         H            2.813017719456     0.888857325783    -1.783079702796     1.007825032230
         H            3.797261719456     2.044370325783    -0.862240702796     1.007825032230
         H            2.064004719456     2.346970325783    -1.108106702796     1.007825032230
         H           -2.099255280544     2.225535325783    -1.230465702796     1.007825032230
         H           -3.782744280544     2.107976325783    -0.677516702796     1.007825032230
         H           -3.021733280544     0.737154325783    -1.510166702796     1.007825032230

  Basis Set: AUG-CC-PVTZ
    Blend: AUG-CC-PVTZ
  Basis Set: (AUG-CC-PVTZ AUX)
    Blend: AUG-CC-PVTZ-JKFIT
	 Reference Energy          =    -462.9026527869016832 [Eh]
	 Singles Energy            =      -0.0000000000000000 [Eh]
	 Same-Spin Energy          =      -0.5018394470554315 [Eh]
	 Opposite-Spin Energy      =      -1.6746425584230287 [Eh]
	 Correlation Energy        =      -2.1764820054784604 [Eh]
	 Total Energy              =    -465.0791347923801595 [Eh]

	 ================> DF-SCS-MP2 Energies <==================
	-----------------------------------------------------------
	 SCS Same-Spin Scale       =       0.3333333333333333 [-]
	 SCS Opposite-Spin Scale   =       1.2000000000000000 [-]
	 SCS Same-Spin Energy      =      -0.1672798156851438 [Eh]
	 SCS Opposite-Spin Energy  =      -2.0095710701076341 [Eh]
	 SCS Correlation Energy    =      -2.1768508857927777 [Eh]
	 SCS Total Energy          =    -465.0795036726944431 [Eh]
	-----------------------------------------------------------

  Dipole Moment: [D]
     X:     0.1090      Y:    -0.6427      Z:    -0.6229     Total:     0.9016

*** Psi4 exiting successfully. Buy a developer a beer!
