                               Psi4 1.4a2.dev612

  ==> Input File <==

--------------------------------------------------------------------------
#psi4
#
memory 32 gb

molecule  {
0 1
  O        0.0723890     1.0222580     0.5077940
  C       -0.7418240    -1.0387750     0.1269710
  C        0.6883760    -1.0936210     0.0623120
  C       -1.0714850     0.2632460     0.3951280
  C        1.1400710     0.1773790     0.3033030
  C       -2.3572371     1.0294841     0.3723741
  C        2.4849120     0.8120840     0.3409220
  C       -1.6830070    -2.1819480    -0.0885940
  C        1.5125100    -2.3214750    -0.1762480
  C       -2.8486430     1.5569180    -0.8246800
  C        2.8130920     1.5744450    -0.9510270
  H        3.2336060     0.0303330     0.5193890
  H        2.5305840     1.4962520     1.1974230
  H       -2.2159340     1.8224920     1.2344330
  H       -3.1130010     0.3316860     0.9491040
  H       -1.4229750    -3.0387300     0.5441040
  H       -2.7119990    -1.8902510     0.1457090
  H       -1.6650160    -2.5262940    -1.1310850
  H        2.5139960    -2.0634500    -0.5387900
  H        1.6307130    -2.9166200     0.7385330
  H        1.0429930    -2.9642660    -0.9286680
  H        2.8128660     0.8932150    -1.8063400
  H        3.7971100     2.0487280    -0.8855010
  H        2.0638530     2.3513280    -1.1313670
  H       -2.0994070     2.2298930    -1.2537260
  H       -3.7828960     2.1123340    -0.7007770
  H       -3.0218850     0.7415120    -1.5334270
units angstrom
no_reorient  #important for SAPT in psi4, default
symmetry c1  #important for SAPT in psi4, default
}

set PROPERTIES_ORIGIN ["COM"]
properties('MP2/aug-cc-pvtz', properties = ['dipole'])
--------------------------------------------------------------------------

    Molecular point group: c1
  Charge       = 0
  Multiplicity = 1
  Basis Set: AUG-CC-PVTZ
    Blend: AUG-CC-PVTZ
  Basis Set: (AUG-CC-PVTZ AUX)
    Blend: AUG-CC-PVTZ-JKFIT

    Orbital Energies [Eh]
    ---------------------

    Doubly Occupied:

       1A    -20.598744     2A    -11.270979     3A    -11.270095
       4A    -11.237864     5A    -11.230639     6A    -11.223350
       7A    -11.223240     8A    -11.217598     9A    -11.216303
      10A    -11.215333    11A    -11.209650    12A     -1.429990
      13A     -1.100231    14A     -1.087291    15A     -1.048556
      16A     -0.994190    17A     -0.933321    18A     -0.931851
      19A     -0.867653    20A     -0.807256    21A     -0.748576
      22A     -0.720546    23A     -0.658261    24A     -0.630052
      25A     -0.612937    26A     -0.608995    27A     -0.592664
      28A     -0.585428    29A     -0.569838    30A     -0.561368
      31A     -0.554445    32A     -0.548798    33A     -0.532082
      34A     -0.525610    35A     -0.523837    36A     -0.509312
      37A     -0.492008    38A     -0.484392    39A     -0.464701
      40A     -0.447103    41A     -0.361422    42A     -0.281495

  @DF-RHF Final Energy:  -462.98654873927853

   => Energetics <=

    Nuclear Repulsion Energy =            630.5756992160695518
    One-Electron Energy =               -1878.8684937438451925
    Two-Electron Energy =                 785.3062457884971082
    Total Energy =                       -462.9865487392785326
  Basis Set: (AUG-CC-PVTZ AUX)
    Blend: AUG-CC-PVTZ-RI
    Molecular point group: c1

    Geometry (in Angstrom), charge = 0, multiplicity = 1:

       Center              X                  Y                   Z               Mass
    ------------   -----------------  -----------------  -----------------  -----------------
         O            0.072464895164     1.020079217113     0.519424135089    15.994914619570
         C           -0.741748104836    -1.040953782887     0.138601135089    12.000000000000
         C            0.688451895164    -1.095799782887     0.073942135089    12.000000000000
         C           -1.071409104836     0.261067217113     0.406758135089    12.000000000000
         C            1.140146895164     0.175200217113     0.314933135089    12.000000000000
         C           -2.357161204836     1.027305317113     0.384004235089    12.000000000000
         C            2.484987895164     0.809905217113     0.352552135089    12.000000000000
         C           -1.682931104836    -2.184126782887    -0.076963864911    12.000000000000
         C            1.512585895164    -2.323653782887    -0.164617864911    12.000000000000
         C           -2.848567104836     1.554739217113    -0.813049864911    12.000000000000
         C            2.813167895164     1.572266217113    -0.939396864911    12.000000000000
         H            3.233681895164     0.028154217113     0.531019135089     1.007825032230
         H            2.530659895164     1.494073217113     1.209053135089     1.007825032230
         H           -2.215858104836     1.820313217113     1.246063135089     1.007825032230
         H           -3.112925104836     0.329507217113     0.960734135089     1.007825032230
         H           -1.422899104836    -3.040908782887     0.555734135089     1.007825032230
         H           -2.711923104836    -1.892429782887     0.157339135089     1.007825032230
         H           -1.664940104836    -2.528472782887    -1.119454864911     1.007825032230
         H            2.514071895164    -2.065628782887    -0.527159864911     1.007825032230
         H            1.630788895164    -2.918798782887     0.750163135089     1.007825032230
         H            1.043068895164    -2.966444782887    -0.917037864911     1.007825032230
         H            2.812941895164     0.891036217113    -1.794709864911     1.007825032230
         H            3.797185895164     2.046549217113    -0.873870864911     1.007825032230
         H            2.063928895164     2.349149217113    -1.119736864911     1.007825032230
         H           -2.099331104836     2.227714217113    -1.242095864911     1.007825032230
         H           -3.782820104836     2.110155217113    -0.689146864911     1.007825032230
         H           -3.021809104836     0.739333217113    -1.521796864911     1.007825032230

  Basis Set: AUG-CC-PVTZ
    Blend: AUG-CC-PVTZ
  Basis Set: (AUG-CC-PVTZ AUX)
    Blend: AUG-CC-PVTZ-JKFIT
	 Reference Energy          =    -462.9865487392785326 [Eh]
	 Singles Energy            =      -0.0000000000000000 [Eh]
	 Same-Spin Energy          =      -0.4986658277582556 [Eh]
	 Opposite-Spin Energy      =      -1.6694074325380872 [Eh]
	 Correlation Energy        =      -2.1680732602963428 [Eh]
	 Total Energy              =    -465.1546219995748856 [Eh]

	 ================> DF-SCS-MP2 Energies <==================
	-----------------------------------------------------------
	 SCS Same-Spin Scale       =       0.3333333333333333 [-]
	 SCS Opposite-Spin Scale   =       1.2000000000000000 [-]
	 SCS Same-Spin Energy      =      -0.1662219425860852 [Eh]
	 SCS Opposite-Spin Energy  =      -2.0032889190457044 [Eh]
	 SCS Correlation Energy    =      -2.1695108616317897 [Eh]
	 SCS Total Energy          =    -465.1560596009103392 [Eh]
	-----------------------------------------------------------

  Dipole Moment: [D]
     X:     0.0277      Y:    -0.6526      Z:    -0.3679     Total:     0.7497

*** Psi4 exiting successfully. Buy a developer a beer!
