                               Psi4 1.4a3.dev225

  ==> Input File <==

--------------------------------------------------------------------------
#psi4
#
memory 32 gb

molecule  {
0 1
  O       -1.8720150     0.1455040    -0.0239620
  C        0.9396698    -0.0228558     0.0037291
  C       -1.2654920    -1.1739550     0.0157300
  C        0.2371350    -1.1840010    -0.0022480
  C        0.2779850     1.2351350     0.0170580
  C        2.4810890    -0.0479420    -0.0086670
  C       -1.0722470     1.2493700    -0.0013870
  H       -1.6715710    -1.7194360    -0.8464940
  H       -1.6521540    -1.6671500     0.9188080
  H        0.7071820    -2.1662500    -0.0128270
  H        0.8222450     2.1733070     0.0302890
  H        2.8758370     0.4671910     0.8740370
  H        2.8626870     0.4795000    -0.8898540
  H        2.8779460    -1.0666660    -0.0186730
  H       -1.6754580     2.1523000    -0.0063760
units angstrom
no_reorient  #important for SAPT in psi4, default
symmetry c1  #important for SAPT in psi4, default
}

set PROPERTIES_ORIGIN ["COM"]
properties('MP2/aug-cc-pvtz', properties = ['dipole'])
--------------------------------------------------------------------------

    Molecular point group: c1
  Charge       = 0
  Multiplicity = 1
  Basis Set: AUG-CC-PVTZ
    Blend: AUG-CC-PVTZ
  Basis Set: (AUG-CC-PVTZ AUX)
    Blend: AUG-CC-PVTZ-JKFIT

    Orbital Energies [Eh]
    ---------------------

    Doubly Occupied:

       1A    -20.585506     2A    -11.302427     3A    -11.290378
       4A    -11.245695     5A    -11.226671     6A    -11.225181
       7A    -11.216322     8A     -1.400389     9A     -1.108382
      10A     -1.036367    11A     -0.965874    12A     -0.875483
      13A     -0.832635    14A     -0.695619    15A     -0.675336
      16A     -0.658161    17A     -0.649945    18A     -0.584467
      19A     -0.568834    20A     -0.554437    21A     -0.550911
      22A     -0.511968    23A     -0.510192    24A     -0.464420
      25A     -0.416214    26A     -0.283169

  @DF-RHF Final Energy:  -306.78689269439298

   => Energetics <=

    Nuclear Repulsion Energy =            288.8980819293857962
    One-Electron Energy =                -988.4999870489623390
    Two-Electron Energy =                 392.8150124251835109
    Total Energy =                       -306.7868926943929750
  Basis Set: (AUG-CC-PVTZ AUX)
    Blend: AUG-CC-PVTZ-RI
    Molecular point group: c1

    Geometry (in Angstrom), charge = 0, multiplicity = 1:

       Center              X                  Y                   Z               Mass
    ------------   -----------------  -----------------  -----------------  -----------------
         O           -1.813945047891     0.128445547632    -0.023510226686    15.994914619570
         C            0.997739752109    -0.039914252368     0.004180873314    12.000000000000
         C           -1.207422047891    -1.191013452368     0.016181773314    12.000000000000
         C            0.295204952109    -1.201059452368    -0.001796226686    12.000000000000
         C            0.336054952109     1.218076547632     0.017509773314    12.000000000000
         C            2.539158952109    -0.065000452368    -0.008215226686    12.000000000000
         C           -1.014177047891     1.232311547632    -0.000935226686    12.000000000000
         H           -1.613501047891    -1.736494452368    -0.846042226686     1.007825032230
         H           -1.594084047891    -1.684208452368     0.919259773314     1.007825032230
         H            0.765251952109    -2.183308452368    -0.012375226686     1.007825032230
         H            0.880314952109     2.156248547632     0.030740773314     1.007825032230
         H            2.933906952109     0.450132547632     0.874488773314     1.007825032230
         H            2.920756952109     0.462441547632    -0.889402226686     1.007825032230
         H            2.936015952109    -1.083724452368    -0.018221226686     1.007825032230
         H           -1.617388047891     2.135241547632    -0.005924226686     1.007825032230

  Basis Set: AUG-CC-PVTZ
    Blend: AUG-CC-PVTZ
  Basis Set: (AUG-CC-PVTZ AUX)
    Blend: AUG-CC-PVTZ-JKFIT
	 Reference Energy          =    -306.7868926943929750 [Eh]
	 Singles Energy            =      -0.0000000000000000 [Eh]
	 Same-Spin Energy          =      -0.3159947105934358 [Eh]
	 Opposite-Spin Energy      =      -1.0411469826489936 [Eh]
	 Correlation Energy        =      -1.3571416932424294 [Eh]
	 Total Energy              =    -308.1440343876354291 [Eh]

	 ================> DF-SCS-MP2 Energies <==================
	-----------------------------------------------------------
	 SCS Same-Spin Scale       =       0.3333333333333333 [-]
	 SCS Opposite-Spin Scale   =       1.2000000000000000 [-]
	 SCS Same-Spin Energy      =      -0.1053315701978119 [Eh]
	 SCS Opposite-Spin Energy  =      -1.2493763791787924 [Eh]
	 SCS Correlation Energy    =      -1.3547079493766043 [Eh]
	 SCS Total Energy          =    -308.1416006437696069 [Eh]
	-----------------------------------------------------------

  Dipole Moment: [D]
     X:     0.8335      Y:    -0.4650      Z:     0.0330     Total:     0.9550

*** Psi4 exiting successfully. Buy a developer a beer!
