                               Psi4 1.4a3.dev225

  ==> Input File <==

--------------------------------------------------------------------------
#psi4
#
memory 32 gb

molecule  {
0 1
  O       -1.8720150     0.1455040    -0.0239620
  C        0.9797650    -0.0480790     0.0033120
  C       -1.2654920    -1.1739550     0.0157300
  C        0.2371350    -1.1840010    -0.0022480
  C        0.2779850     1.2351350     0.0170580
  C        2.4810890    -0.0479420    -0.0086670
  C       -1.0722470     1.2493700    -0.0013870
  H       -1.6900606    -1.7442729    -0.8857529
  H       -1.6521540    -1.6671500     0.9188080
  H        0.7071820    -2.1662500    -0.0128270
  H        0.8222450     2.1733070     0.0302890
  H        2.8758370     0.4671910     0.8740370
  H        2.8626870     0.4795000    -0.8898540
  H        2.8779460    -1.0666660    -0.0186730
  H       -1.6754580     2.1523000    -0.0063760
units angstrom
no_reorient  #important for SAPT in psi4, default
symmetry c1  #important for SAPT in psi4, default
}

set PROPERTIES_ORIGIN ["COM"]
properties('MP2/aug-cc-pvtz', properties = ['dipole'])
--------------------------------------------------------------------------

    Molecular point group: c1
  Charge       = 0
  Multiplicity = 1
  Basis Set: AUG-CC-PVTZ
    Blend: AUG-CC-PVTZ
  Basis Set: (AUG-CC-PVTZ AUX)
    Blend: AUG-CC-PVTZ-JKFIT

    Orbital Energies [Eh]
    ---------------------

    Doubly Occupied:

       1A    -20.584693     2A    -11.300526     3A    -11.297830
       4A    -11.247221     5A    -11.226979     6A    -11.226404
       7A    -11.218655     8A     -1.399364     9A     -1.106372
      10A     -1.033340    11A     -0.971766    12A     -0.874234
      13A     -0.827103    14A     -0.693871    15A     -0.673292
      16A     -0.657948    17A     -0.645255    18A     -0.584934
      19A     -0.573020    20A     -0.557894    21A     -0.552743
      22A     -0.508715    23A     -0.502683    24A     -0.469853
      25A     -0.410462    26A     -0.285497

  @DF-RHF Final Energy:  -306.78749569294183

   => Energetics <=

    Nuclear Repulsion Energy =            288.2955307243333323
    One-Electron Energy =                -987.3047407580183972
    Two-Electron Energy =                 392.2217143407432900
    Total Energy =                       -306.7874956929418317
  Basis Set: (AUG-CC-PVTZ AUX)
    Blend: AUG-CC-PVTZ-RI
    Molecular point group: c1

    Geometry (in Angstrom), charge = 0, multiplicity = 1:

       Center              X                  Y                   Z               Mass
    ------------   -----------------  -----------------  -----------------  -----------------
         O           -1.818759956114     0.131857145881    -0.023046220281    15.994914619570
         C            1.033020043886    -0.061725854119     0.004227779719    12.000000000000
         C           -1.212236956114    -1.187601854119     0.016645779719    12.000000000000
         C            0.290390043886    -1.197647854119    -0.001332220281    12.000000000000
         C            0.331240043886     1.221488145881     0.017973779719    12.000000000000
         C            2.534344043886    -0.061588854119    -0.007751220281    12.000000000000
         C           -1.018991956114     1.235723145881    -0.000471220281    12.000000000000
         H           -1.636805556114    -1.757919754119    -0.884837120281     1.007825032230
         H           -1.598898956114    -1.680796854119     0.919723779719     1.007825032230
         H            0.760437043886    -2.179896854119    -0.011911220281     1.007825032230
         H            0.875500043886     2.159660145881     0.031204779719     1.007825032230
         H            2.929092043886     0.453544145881     0.874952779719     1.007825032230
         H            2.915942043886     0.465853145881    -0.888938220281     1.007825032230
         H            2.931201043886    -1.080312854119    -0.017757220281     1.007825032230
         H           -1.622202956114     2.138653145881    -0.005460220281     1.007825032230

  Basis Set: AUG-CC-PVTZ
    Blend: AUG-CC-PVTZ
  Basis Set: (AUG-CC-PVTZ AUX)
    Blend: AUG-CC-PVTZ-JKFIT
	 Reference Energy          =    -306.7874956929418317 [Eh]
	 Singles Energy            =      -0.0000000000000000 [Eh]
	 Same-Spin Energy          =      -0.3156890336055822 [Eh]
	 Opposite-Spin Energy      =      -1.0412175804052528 [Eh]
	 Correlation Energy        =      -1.3569066140108350 [Eh]
	 Total Energy              =    -308.1444023069526565 [Eh]

	 ================> DF-SCS-MP2 Energies <==================
	-----------------------------------------------------------
	 SCS Same-Spin Scale       =       0.3333333333333333 [-]
	 SCS Opposite-Spin Scale   =       1.2000000000000000 [-]
	 SCS Same-Spin Energy      =      -0.1052296778685274 [Eh]
	 SCS Opposite-Spin Energy  =      -1.2494610964863033 [Eh]
	 SCS Correlation Energy    =      -1.3546907743548307 [Eh]
	 SCS Total Energy          =    -308.1421864672966535 [Eh]
	-----------------------------------------------------------

  Dipole Moment: [D]
     X:     0.9339      Y:    -0.4828      Z:     0.0548     Total:     1.0527

*** Psi4 exiting successfully. Buy a developer a beer!
