                               Psi4 1.4a3.dev225

  ==> Input File <==

--------------------------------------------------------------------------
#psi4
#
memory 32 gb

molecule  {
0 1
  O       -1.8720150     0.1455040    -0.0239620
  C        0.9797650    -0.0480790     0.0033120
  C       -1.2654920    -1.1739550     0.0157300
  C        0.2772303    -1.2092244    -0.0026456
  C        0.2779850     1.2351350     0.0170580
  C        2.4810890    -0.0479420    -0.0086670
  C       -1.0722470     1.2493700    -0.0013870
  H       -1.6715710    -1.7194360    -0.8464940
  H       -1.6521540    -1.6671500     0.9188080
  H        0.7071820    -2.1662500    -0.0128270
  H        0.8222450     2.1733070     0.0302890
  H        2.8758370     0.4671910     0.8740370
  H        2.8626870     0.4795000    -0.8898540
  H        2.8779460    -1.0666660    -0.0186730
  H       -1.6754580     2.1523000    -0.0063760
units angstrom
no_reorient  #important for SAPT in psi4, default
symmetry c1  #important for SAPT in psi4, default
}

set PROPERTIES_ORIGIN ["COM"]
properties('MP2/aug-cc-pvtz', properties = ['dipole'])
--------------------------------------------------------------------------

    Molecular point group: c1
  Charge       = 0
  Multiplicity = 1
  Basis Set: AUG-CC-PVTZ
    Blend: AUG-CC-PVTZ
  Basis Set: (AUG-CC-PVTZ AUX)
    Blend: AUG-CC-PVTZ-JKFIT

    Orbital Energies [Eh]
    ---------------------

    Doubly Occupied:

       1A    -20.584991     2A    -11.301584     3A    -11.292385
       4A    -11.247201     5A    -11.225120     6A    -11.224597
       7A    -11.219361     8A     -1.398798     9A     -1.105074
      10A     -1.031960    11A     -0.968915    12A     -0.878012
      13A     -0.826292    14A     -0.693784    15A     -0.677820
      16A     -0.660304    17A     -0.647940    18A     -0.583966
      19A     -0.572125    20A     -0.557340    21A     -0.554654
      22A     -0.509950    23A     -0.505210    24A     -0.465016
      25A     -0.410127    26A     -0.287032

  @DF-RHF Final Energy:  -306.78765869052853

   => Energetics <=

    Nuclear Repulsion Energy =            287.9896247600152037
    One-Electron Energy =                -986.6954486611415405
    Two-Electron Energy =                 391.9181652105978060
    Total Energy =                       -306.7876586905285308
  Basis Set: (AUG-CC-PVTZ AUX)
    Blend: AUG-CC-PVTZ-RI
    Molecular point group: c1

    Geometry (in Angstrom), charge = 0, multiplicity = 1:

       Center              X                  Y                   Z               Mass
    ------------   -----------------  -----------------  -----------------  -----------------
         O           -1.823962858587     0.134747596991    -0.023408450162    15.994914619570
         C            1.027817141413    -0.058835403009     0.003865549838    12.000000000000
         C           -1.217439858587    -1.184711403009     0.016283549838    12.000000000000
         C            0.325282441413    -1.219980803009    -0.002092050162    12.000000000000
         C            0.326037141413     1.224378596991     0.017611549838    12.000000000000
         C            2.529141141413    -0.058698403009    -0.008113450162    12.000000000000
         C           -1.024194858587     1.238613596991    -0.000833450162    12.000000000000
         H           -1.623518858587    -1.730192403009    -0.845940450162     1.007825032230
         H           -1.604101858587    -1.677906403009     0.919361549838     1.007825032230
         H            0.755234141413    -2.177006403009    -0.012273450162     1.007825032230
         H            0.870297141413     2.162550596991     0.030842549838     1.007825032230
         H            2.923889141413     0.456434596991     0.874590549838     1.007825032230
         H            2.910739141413     0.468743596991    -0.889300450162     1.007825032230
         H            2.925998141413    -1.077422403009    -0.018119450162     1.007825032230
         H           -1.627405858587     2.141543596991    -0.005822450162     1.007825032230

  Basis Set: AUG-CC-PVTZ
    Blend: AUG-CC-PVTZ
  Basis Set: (AUG-CC-PVTZ AUX)
    Blend: AUG-CC-PVTZ-JKFIT
	 Reference Energy          =    -306.7876586905285308 [Eh]
	 Singles Energy            =      -0.0000000000000000 [Eh]
	 Same-Spin Energy          =      -0.3153233994002898 [Eh]
	 Opposite-Spin Energy      =      -1.0406555814366369 [Eh]
	 Correlation Energy        =      -1.3559789808369267 [Eh]
	 Total Energy              =    -308.1436376713654681 [Eh]

	 ================> DF-SCS-MP2 Energies <==================
	-----------------------------------------------------------
	 SCS Same-Spin Scale       =       0.3333333333333333 [-]
	 SCS Opposite-Spin Scale   =       1.2000000000000000 [-]
	 SCS Same-Spin Energy      =      -0.1051077998000966 [Eh]
	 SCS Opposite-Spin Energy  =      -1.2487866977239643 [Eh]
	 SCS Correlation Energy    =      -1.3538944975240610 [Eh]
	 SCS Total Energy          =    -308.1415531880525691 [Eh]
	-----------------------------------------------------------

  Dipole Moment: [D]
     X:     0.8799      Y:    -0.5014      Z:     0.0323     Total:     1.0133

*** Psi4 exiting successfully. Buy a developer a beer!
