                               Psi4 1.4a3.dev225

  ==> Input File <==

--------------------------------------------------------------------------
#psi4
#
memory 32 gb

molecule  {
0 1
  O       -1.8720150     0.1455040    -0.0239620
  C        0.9797650    -0.0480790     0.0033120
  C       -1.2654920    -1.1739550     0.0157300
  C        0.2371350    -1.1840010    -0.0022480
  C        0.2779850     1.2351350     0.0170580
  C        2.4810890    -0.0479420    -0.0086670
  C       -1.1722321     1.2504241    -0.0027529
  H       -1.6715710    -1.7194360    -0.8464940
  H       -1.6521540    -1.6671500     0.9188080
  H        0.7071820    -2.1662500    -0.0128270
  H        0.8222450     2.1733070     0.0302890
  H        2.8758370     0.4671910     0.8740370
  H        2.8626870     0.4795000    -0.8898540
  H        2.8779460    -1.0666660    -0.0186730
  H       -1.6754580     2.1523000    -0.0063760
units angstrom
no_reorient  #important for SAPT in psi4, default
symmetry c1  #important for SAPT in psi4, default
}

set PROPERTIES_ORIGIN ["COM"]
properties('MP2/aug-cc-pvtz', properties = ['dipole'])
--------------------------------------------------------------------------

    Molecular point group: c1
  Charge       = 0
  Multiplicity = 1
  Basis Set: AUG-CC-PVTZ
    Blend: AUG-CC-PVTZ
  Basis Set: (AUG-CC-PVTZ AUX)
    Blend: AUG-CC-PVTZ-JKFIT

    Orbital Energies [Eh]
    ---------------------

    Doubly Occupied:

       1A    -20.594566     2A    -11.313424     3A    -11.298984
       4A    -11.245872     5A    -11.223966     6A    -11.222166
       7A    -11.221049     8A     -1.427306     9A     -1.099586
      10A     -1.032739    11A     -0.962528    12A     -0.876776
      13A     -0.835600    14A     -0.705964    15A     -0.674910
      16A     -0.664877    17A     -0.659103    18A     -0.592626
      19A     -0.570633    20A     -0.561426    21A     -0.545557
      22A     -0.522417    23A     -0.507688    24A     -0.462525
      25A     -0.399838    26A     -0.268704

  @DF-RHF Final Energy:  -306.77369736287358

   => Energetics <=

    Nuclear Repulsion Energy =            287.8938521388753884
    One-Electron Energy =                -986.3534394869865309
    Two-Electron Energy =                 391.6858899852376226
    Total Energy =                       -306.7736973628735768
  Basis Set: (AUG-CC-PVTZ AUX)
    Blend: AUG-CC-PVTZ-RI
    Molecular point group: c1

    Geometry (in Angstrom), charge = 0, multiplicity = 1:

       Center              X                  Y                   Z               Mass
    ------------   -----------------  -----------------  -----------------  -----------------
         O           -1.806463292810     0.131464876212    -0.023287485134    15.994914619570
         C            1.045316707190    -0.062118123788     0.003986514866    12.000000000000
         C           -1.199940292810    -1.187994123788     0.016404514866    12.000000000000
         C            0.302686707190    -1.198040123788    -0.001573485134    12.000000000000
         C            0.343536707190     1.221095876212     0.017732514866    12.000000000000
         C            2.546640707190    -0.061981123788    -0.007992485134    12.000000000000
         C           -1.106680392810     1.236384976212    -0.002078385134    12.000000000000
         H           -1.606019292810    -1.733475123788    -0.845819485134     1.007825032230
         H           -1.586602292810    -1.681189123788     0.919482514866     1.007825032230
         H            0.772733707190    -2.180289123788    -0.012152485134     1.007825032230
         H            0.887796707190     2.159267876212     0.030963514866     1.007825032230
         H            2.941388707190     0.453151876212     0.874711514866     1.007825032230
         H            2.928238707190     0.465460876212    -0.889179485134     1.007825032230
         H            2.943497707190    -1.080705123788    -0.017998485134     1.007825032230
         H           -1.609906292810     2.138260876212    -0.005701485134     1.007825032230

  Basis Set: AUG-CC-PVTZ
    Blend: AUG-CC-PVTZ
  Basis Set: (AUG-CC-PVTZ AUX)
    Blend: AUG-CC-PVTZ-JKFIT
	 Reference Energy          =    -306.7736973628735768 [Eh]
	 Singles Energy            =      -0.0000000000000000 [Eh]
	 Same-Spin Energy          =      -0.3166930947130177 [Eh]
	 Opposite-Spin Energy      =      -1.0420412729345434 [Eh]
	 Correlation Energy        =      -1.3587343676475609 [Eh]
	 Total Energy              =    -308.1324317305211480 [Eh]

	 ================> DF-SCS-MP2 Energies <==================
	-----------------------------------------------------------
	 SCS Same-Spin Scale       =       0.3333333333333333 [-]
	 SCS Opposite-Spin Scale   =       1.2000000000000000 [-]
	 SCS Same-Spin Energy      =      -0.1055643649043392 [Eh]
	 SCS Opposite-Spin Energy  =      -1.2504495275214520 [Eh]
	 SCS Correlation Energy    =      -1.3560138924257912 [Eh]
	 SCS Total Energy          =    -308.1297112552993553 [Eh]
	-----------------------------------------------------------

  Dipole Moment: [D]
     X:     0.5234      Y:    -0.6976      Z:     0.0245     Total:     0.8725

*** Psi4 exiting successfully. Buy a developer a beer!
