                               Psi4 1.4a3.dev225

  ==> Input File <==

--------------------------------------------------------------------------
#psi4
#
memory 32 gb

molecule  {
0 1
  O       -1.8720150     0.1455040    -0.0239620
  C        0.9797650    -0.0480790     0.0033120
  C       -1.2654920    -1.1739550     0.0157300
  C        0.1597065    -1.1294349    -0.0014329
  C        0.2779850     1.2351350     0.0170580
  C        2.4810890    -0.0479420    -0.0086670
  C       -1.0722470     1.2493700    -0.0013870
  H       -1.6715710    -1.7194360    -0.8464940
  H       -1.6521540    -1.6671500     0.9188080
  H        0.7071820    -2.1662500    -0.0128270
  H        0.8222450     2.1733070     0.0302890
  H        2.8758370     0.4671910     0.8740370
  H        2.8626870     0.4795000    -0.8898540
  H        2.8779460    -1.0666660    -0.0186730
  H       -1.6754580     2.1523000    -0.0063760
units angstrom
no_reorient  #important for SAPT in psi4, default
symmetry c1  #important for SAPT in psi4, default
}

set PROPERTIES_ORIGIN ["COM"]
properties('MP2/aug-cc-pvtz', properties = ['dipole'])
--------------------------------------------------------------------------

    Molecular point group: c1
  Charge       = 0
  Multiplicity = 1
  Basis Set: AUG-CC-PVTZ
    Blend: AUG-CC-PVTZ
  Basis Set: (AUG-CC-PVTZ AUX)
    Blend: AUG-CC-PVTZ-JKFIT

    Orbital Energies [Eh]
    ---------------------

    Doubly Occupied:

       1A    -20.581636     2A    -11.297483     3A    -11.290321
       4A    -11.247381     5A    -11.230164     6A    -11.229513
       7A    -11.216360     8A     -1.399508     9A     -1.109133
      10A     -1.042590    11A     -0.977541    12A     -0.874115
      13A     -0.829363    14A     -0.696723    15A     -0.671721
      16A     -0.655375    17A     -0.648875    18A     -0.588385
      19A     -0.574736    20A     -0.561772    21A     -0.546349
      22A     -0.513759    23A     -0.505891    24A     -0.465254
      25A     -0.410714    26A     -0.282775

  @DF-RHF Final Energy:  -306.77869493318610

   => Energetics <=

    Nuclear Repulsion Energy =            289.7152118155992753
    One-Electron Energy =                -990.0929364421776881
    Two-Electron Energy =                 393.5990296933922536
    Total Energy =                       -306.7786949331861024
  Basis Set: (AUG-CC-PVTZ AUX)
    Blend: AUG-CC-PVTZ-RI
    Molecular point group: c1

    Geometry (in Angstrom), charge = 0, multiplicity = 1:

       Center              X                  Y                   Z               Mass
    ------------   -----------------  -----------------  -----------------  -----------------
         O           -1.809281179577     0.124779881282    -0.023559946898    15.994914619570
         C            1.042498820423    -0.068803118718     0.003714053102    12.000000000000
         C           -1.202758179577    -1.194679118718     0.016132053102    12.000000000000
         C            0.222440320423    -1.150159018718    -0.001030846898    12.000000000000
         C            0.340718820423     1.214410881282     0.017460053102    12.000000000000
         C            2.543822820423    -0.068666118718    -0.008264946898    12.000000000000
         C           -1.009513179577     1.228645881282    -0.000984946898    12.000000000000
         H           -1.608837179577    -1.740160118718    -0.846091946898     1.007825032230
         H           -1.589420179577    -1.687874118718     0.919210053102     1.007825032230
         H            0.769915820423    -2.186974118718    -0.012424946898     1.007825032230
         H            0.884978820423     2.152582881282     0.030691053102     1.007825032230
         H            2.938570820423     0.446466881282     0.874439053102     1.007825032230
         H            2.925420820423     0.458775881282    -0.889451946898     1.007825032230
         H            2.940679820423    -1.087390118718    -0.018270946898     1.007825032230
         H           -1.612724179577     2.131575881282    -0.005973946898     1.007825032230

  Basis Set: AUG-CC-PVTZ
    Blend: AUG-CC-PVTZ
  Basis Set: (AUG-CC-PVTZ AUX)
    Blend: AUG-CC-PVTZ-JKFIT
	 Reference Energy          =    -306.7786949331861024 [Eh]
	 Singles Energy            =      -0.0000000000000000 [Eh]
	 Same-Spin Energy          =      -0.3166435094899229 [Eh]
	 Opposite-Spin Energy      =      -1.0420977182993159 [Eh]
	 Correlation Energy        =      -1.3587412277892388 [Eh]
	 Total Energy              =    -308.1374361609753691 [Eh]

	 ================> DF-SCS-MP2 Energies <==================
	-----------------------------------------------------------
	 SCS Same-Spin Scale       =       0.3333333333333333 [-]
	 SCS Opposite-Spin Scale   =       1.2000000000000000 [-]
	 SCS Same-Spin Energy      =      -0.1055478364966410 [Eh]
	 SCS Opposite-Spin Energy  =      -1.2505172619591789 [Eh]
	 SCS Correlation Energy    =      -1.3560650984558198 [Eh]
	 SCS Total Energy          =    -308.1347600316419175 [Eh]
	-----------------------------------------------------------

  Dipole Moment: [D]
     X:     0.9609      Y:    -0.5283      Z:     0.0329     Total:     1.0971

*** Psi4 exiting successfully. Buy a developer a beer!
