                               Psi4 1.4a3.dev225

  ==> Input File <==

--------------------------------------------------------------------------
#psi4
#
memory 32 gb

molecule  {
0 1
  O       -1.8720150     0.1455040    -0.0239620
  C        0.9797650    -0.0480790     0.0033120
  C       -1.2654920    -1.1739550     0.0157300
  C        0.2261910    -1.2007408    -0.0023299
  C        0.2779850     1.2351350     0.0170580
  C        2.4810890    -0.0479420    -0.0086670
  C       -1.0722470     1.2493700    -0.0013870
  H       -1.6715710    -1.7194360    -0.8464940
  H       -1.6521540    -1.6671500     0.9188080
  H        0.7071820    -2.1662500    -0.0128270
  H        0.8222450     2.1733070     0.0302890
  H        2.8758370     0.4671910     0.8740370
  H        2.8626870     0.4795000    -0.8898540
  H        2.8779460    -1.0666660    -0.0186730
  H       -1.6754580     2.1523000    -0.0063760
units angstrom
no_reorient  #important for SAPT in psi4, default
symmetry c1  #important for SAPT in psi4, default
}

set PROPERTIES_ORIGIN ["COM"]
properties('MP2/aug-cc-pvtz', properties = ['dipole'])
--------------------------------------------------------------------------

    Molecular point group: c1
  Charge       = 0
  Multiplicity = 1
  Basis Set: AUG-CC-PVTZ
    Blend: AUG-CC-PVTZ
  Basis Set: (AUG-CC-PVTZ AUX)
    Blend: AUG-CC-PVTZ-JKFIT

    Orbital Energies [Eh]
    ---------------------

    Doubly Occupied:

       1A    -20.584531     2A    -11.300633     3A    -11.291263
       4A    -11.249844     5A    -11.227308     6A    -11.226449
       7A    -11.218607     8A     -1.399303     9A     -1.103594
      10A     -1.036119    11A     -0.972832    12A     -0.873857
      13A     -0.828312    14A     -0.694428    15A     -0.674830
      16A     -0.657371    17A     -0.650123    18A     -0.586690
      19A     -0.572762    20A     -0.557223    21A     -0.553629
      22A     -0.511761    23A     -0.501831    24A     -0.472944
      25A     -0.408128    26A     -0.283068

  @DF-RHF Final Energy:  -306.78775602702837

   => Energetics <=

    Nuclear Repulsion Energy =            288.3154763164778274
    One-Electron Energy =                -987.3315884112230378
    Two-Electron Energy =                 392.2283560677169021
    Total Energy =                       -306.7877560270283652
  Basis Set: (AUG-CC-PVTZ AUX)
    Blend: AUG-CC-PVTZ-RI
    Molecular point group: c1

    Geometry (in Angstrom), charge = 0, multiplicity = 1:

       Center              X                  Y                   Z               Mass
    ------------   -----------------  -----------------  -----------------  -----------------
         O           -1.817586766089     0.133687781940    -0.023447889034    15.994914619570
         C            1.034193233911    -0.059895218060     0.003826110966    12.000000000000
         C           -1.211063766089    -1.185771218060     0.016244110966    12.000000000000
         C            0.280619233911    -1.212557018060    -0.001815789034    12.000000000000
         C            0.332413233911     1.223318781940     0.017572110966    12.000000000000
         C            2.535517233911    -0.059758218060    -0.008152889034    12.000000000000
         C           -1.017818766089     1.237553781940    -0.000872889034    12.000000000000
         H           -1.617142766089    -1.731252218060    -0.845979889034     1.007825032230
         H           -1.597725766089    -1.678966218060     0.919322110966     1.007825032230
         H            0.761610233911    -2.178066218060    -0.012312889034     1.007825032230
         H            0.876673233911     2.161490781940     0.030803110966     1.007825032230
         H            2.930265233911     0.455374781940     0.874551110966     1.007825032230
         H            2.917115233911     0.467683781940    -0.889339889034     1.007825032230
         H            2.932374233911    -1.078482218060    -0.018158889034     1.007825032230
         H           -1.621029766089     2.140483781940    -0.005861889034     1.007825032230

  Basis Set: AUG-CC-PVTZ
    Blend: AUG-CC-PVTZ
  Basis Set: (AUG-CC-PVTZ AUX)
    Blend: AUG-CC-PVTZ-JKFIT
	 Reference Energy          =    -306.7877560270283652 [Eh]
	 Singles Energy            =      -0.0000000000000000 [Eh]
	 Same-Spin Energy          =      -0.3159211454472606 [Eh]
	 Opposite-Spin Energy      =      -1.0413751038346990 [Eh]
	 Correlation Energy        =      -1.3572962492819596 [Eh]
	 Total Energy              =    -308.1450522763103095 [Eh]

	 ================> DF-SCS-MP2 Energies <==================
	-----------------------------------------------------------
	 SCS Same-Spin Scale       =       0.3333333333333333 [-]
	 SCS Opposite-Spin Scale   =       1.2000000000000000 [-]
	 SCS Same-Spin Energy      =      -0.1053070484824202 [Eh]
	 SCS Opposite-Spin Energy  =      -1.2496501246016387 [Eh]
	 SCS Correlation Energy    =      -1.3549571730840588 [Eh]
	 SCS Total Energy          =    -308.1427132001124392 [Eh]
	-----------------------------------------------------------

  Dipole Moment: [D]
     X:     0.9144      Y:    -0.5071      Z:     0.0324     Total:     1.0461

*** Psi4 exiting successfully. Buy a developer a beer!
