                               Psi4 1.4a3.dev225

  ==> Input File <==

--------------------------------------------------------------------------
#psi4
#
memory 32 gb

molecule  {
0 1
  O       -1.8720150     0.1455040    -0.0239620
  C        0.9799927    -0.0218770     0.0034861
  C       -1.2654920    -1.1739550     0.0157300
  C        0.2371350    -1.1840010    -0.0022480
  C        0.2779850     1.2351350     0.0170580
  C        2.4810890    -0.0479420    -0.0086670
  C       -1.0722470     1.2493700    -0.0013870
  H       -1.6715710    -1.7194360    -0.8464940
  H       -1.6521540    -1.6671500     0.9188080
  H        0.7071820    -2.1662500    -0.0128270
  H        0.8222450     2.1733070     0.0302890
  H        2.8758370     0.4671910     0.8740370
  H        2.8626870     0.4795000    -0.8898540
  H        2.8779460    -1.0666660    -0.0186730
  H       -1.6754580     2.1523000    -0.0063760
units angstrom
no_reorient  #important for SAPT in psi4, default
symmetry c1  #important for SAPT in psi4, default
}

set PROPERTIES_ORIGIN ["COM"]
properties('MP2/aug-cc-pvtz', properties = ['dipole'])
--------------------------------------------------------------------------

    Molecular point group: c1
  Charge       = 0
  Multiplicity = 1
  Basis Set: AUG-CC-PVTZ
    Blend: AUG-CC-PVTZ
  Basis Set: (AUG-CC-PVTZ AUX)
    Blend: AUG-CC-PVTZ-JKFIT

    Orbital Energies [Eh]
    ---------------------

    Doubly Occupied:

       1A    -20.584610     2A    -11.301637     3A    -11.291368
       4A    -11.248494     5A    -11.228171     6A    -11.226190
       7A    -11.217538     8A     -1.399460     9A     -1.106247
      10A     -1.034870    11A     -0.972228    12A     -0.872477
      13A     -0.830981    14A     -0.695026    15A     -0.674542
      16A     -0.657576    17A     -0.649597    18A     -0.584257
      19A     -0.572937    20A     -0.559286    21A     -0.552645
      22A     -0.511337    23A     -0.503311    24A     -0.471472
      25A     -0.410592    26A     -0.281342

  @DF-RHF Final Energy:  -306.78693434257002

   => Energetics <=

    Nuclear Repulsion Energy =            288.5238545615107455
    One-Electron Energy =                -987.7451967938886810
    Two-Electron Energy =                 392.4344078898079715
    Total Energy =                       -306.7869343425700208
  Basis Set: (AUG-CC-PVTZ AUX)
    Blend: AUG-CC-PVTZ-RI
    Molecular point group: c1

    Geometry (in Angstrom), charge = 0, multiplicity = 1:

       Center              X                  Y                   Z               Mass
    ------------   -----------------  -----------------  -----------------  -----------------
         O           -1.818982392451     0.128323270890    -0.023479869874    15.994914619570
         C            1.033025307549    -0.039057729110     0.003968230126    12.000000000000
         C           -1.212459392451    -1.191135729110     0.016212130126    12.000000000000
         C            0.290167607549    -1.201181729110    -0.001765869874    12.000000000000
         C            0.331017607549     1.217954270890     0.017540130126    12.000000000000
         C            2.534121607549    -0.065122729110    -0.008184869874    12.000000000000
         C           -1.019214392451     1.232189270890    -0.000904869874    12.000000000000
         H           -1.618538392451    -1.736616729110    -0.846011869874     1.007825032230
         H           -1.599121392451    -1.684330729110     0.919290130126     1.007825032230
         H            0.760214607549    -2.183430729110    -0.012344869874     1.007825032230
         H            0.875277607549     2.156126270890     0.030771130126     1.007825032230
         H            2.928869607549     0.450010270890     0.874519130126     1.007825032230
         H            2.915719607549     0.462319270890    -0.889371869874     1.007825032230
         H            2.930978607549    -1.083846729110    -0.018190869874     1.007825032230
         H           -1.622425392451     2.135119270890    -0.005893869874     1.007825032230

  Basis Set: AUG-CC-PVTZ
    Blend: AUG-CC-PVTZ
  Basis Set: (AUG-CC-PVTZ AUX)
    Blend: AUG-CC-PVTZ-JKFIT
	 Reference Energy          =    -306.7869343425700208 [Eh]
	 Singles Energy            =      -0.0000000000000000 [Eh]
	 Same-Spin Energy          =      -0.3162057248361774 [Eh]
	 Opposite-Spin Energy      =      -1.0416884510771305 [Eh]
	 Correlation Energy        =      -1.3578941759133079 [Eh]
	 Total Energy              =    -308.1448285184833367 [Eh]

	 ================> DF-SCS-MP2 Energies <==================
	-----------------------------------------------------------
	 SCS Same-Spin Scale       =       0.3333333333333333 [-]
	 SCS Opposite-Spin Scale   =       1.2000000000000000 [-]
	 SCS Same-Spin Energy      =      -0.1054019082787258 [Eh]
	 SCS Opposite-Spin Energy  =      -1.2500261412925566 [Eh]
	 SCS Correlation Energy    =      -1.3554280495712825 [Eh]
	 SCS Total Energy          =    -308.1423623921413082 [Eh]
	-----------------------------------------------------------

  Dipole Moment: [D]
     X:     0.8963      Y:    -0.4904      Z:     0.0326     Total:     1.0222

*** Psi4 exiting successfully. Buy a developer a beer!
