                               Psi4 1.4a3.dev225

  ==> Input File <==

--------------------------------------------------------------------------
#psi4
#
memory 32 gb

molecule  {
0 1
  O       -1.8720150     0.1455040    -0.0239620
  C        0.9797650    -0.0480790     0.0033120
  C       -1.2654920    -1.1739550     0.0157300
  C        0.2371350    -1.1840010    -0.0022480
  C        0.3739456     1.0596698     0.0151784
  C        2.4810890    -0.0479420    -0.0086670
  C       -1.0722470     1.2493700    -0.0013870
  H       -1.6715710    -1.7194360    -0.8464940
  H       -1.6521540    -1.6671500     0.9188080
  H        0.7071820    -2.1662500    -0.0128270
  H        0.8222450     2.1733070     0.0302890
  H        2.8758370     0.4671910     0.8740370
  H        2.8626870     0.4795000    -0.8898540
  H        2.8779460    -1.0666660    -0.0186730
  H       -1.6754580     2.1523000    -0.0063760
units angstrom
no_reorient  #important for SAPT in psi4, default
symmetry c1  #important for SAPT in psi4, default
}

set PROPERTIES_ORIGIN ["COM"]
properties('MP2/aug-cc-pvtz', properties = ['dipole'])
--------------------------------------------------------------------------

    Molecular point group: c1
  Charge       = 0
  Multiplicity = 1
  Basis Set: AUG-CC-PVTZ
    Blend: AUG-CC-PVTZ
  Basis Set: (AUG-CC-PVTZ AUX)
    Blend: AUG-CC-PVTZ-JKFIT

    Orbital Energies [Eh]
    ---------------------

    Doubly Occupied:

       1A    -20.589329     2A    -11.325278     3A    -11.293141
       4A    -11.229341     5A    -11.224468     6A    -11.223979
       7A    -11.221879     8A     -1.404744     9A     -1.138353
      10A     -1.026400    11A     -0.965023    12A     -0.873131
      13A     -0.850930    14A     -0.702171    15A     -0.677988
      16A     -0.652385    17A     -0.647272    18A     -0.587343
      19A     -0.575368    20A     -0.569281    21A     -0.528939
      22A     -0.515913    23A     -0.509898    24A     -0.456071
      25A     -0.431209    26A     -0.256852

  @DF-RHF Final Energy:  -306.72187941911022

   => Energetics <=

    Nuclear Repulsion Energy =            290.7049781573538780
    One-Electron Energy =                -991.9003381750054587
    Two-Electron Energy =                 394.4734805985414141
    Total Energy =                       -306.7218794191102234
  Basis Set: (AUG-CC-PVTZ AUX)
    Blend: AUG-CC-PVTZ-RI
    Molecular point group: c1

    Geometry (in Angstrom), charge = 0, multiplicity = 1:

       Center              X                  Y                   Z               Mass
    ------------   -----------------  -----------------  -----------------  -----------------
         O           -1.830941839887     0.153516577245    -0.023223311081    15.994914619570
         C            1.020838160113    -0.040066422755     0.004050688919    12.000000000000
         C           -1.224418839887    -1.165942422755     0.016468688919    12.000000000000
         C            0.278208160113    -1.175988422755    -0.001509311081    12.000000000000
         C            0.415018760113     1.067682377245     0.015917088919    12.000000000000
         C            2.522162160113    -0.039929422755    -0.007928311081    12.000000000000
         C           -1.031173839887     1.257382577245    -0.000648311081    12.000000000000
         H           -1.630497839887    -1.711423422755    -0.845755311081     1.007825032230
         H           -1.611080839887    -1.659137422755     0.919546688919     1.007825032230
         H            0.748255160113    -2.158237422755    -0.012088311081     1.007825032230
         H            0.863318160113     2.181319577245     0.031027688919     1.007825032230
         H            2.916910160113     0.475203577245     0.874775688919     1.007825032230
         H            2.903760160113     0.487512577245    -0.889115311081     1.007825032230
         H            2.919019160113    -1.058653422755    -0.017934311081     1.007825032230
         H           -1.634384839887     2.160312577245    -0.005637311081     1.007825032230

  Basis Set: AUG-CC-PVTZ
    Blend: AUG-CC-PVTZ
  Basis Set: (AUG-CC-PVTZ AUX)
    Blend: AUG-CC-PVTZ-JKFIT
	 Reference Energy          =    -306.7218794191102234 [Eh]
	 Singles Energy            =      -0.0000000000000000 [Eh]
	 Same-Spin Energy          =      -0.3220913327981977 [Eh]
	 Opposite-Spin Energy      =      -1.0498396205977851 [Eh]
	 Correlation Energy        =      -1.3719309533959829 [Eh]
	 Total Energy              =    -308.0938103725061978 [Eh]

	 ================> DF-SCS-MP2 Energies <==================
	-----------------------------------------------------------
	 SCS Same-Spin Scale       =       0.3333333333333333 [-]
	 SCS Opposite-Spin Scale   =       1.2000000000000000 [-]
	 SCS Same-Spin Energy      =      -0.1073637775993992 [Eh]
	 SCS Opposite-Spin Energy  =      -1.2598075447173420 [Eh]
	 SCS Correlation Energy    =      -1.3671713223167412 [Eh]
	 SCS Total Energy          =    -308.0890507414269450 [Eh]
	-----------------------------------------------------------

  Dipole Moment: [D]
     X:     0.6734      Y:    -0.4755      Z:     0.0270     Total:     0.8248

*** Psi4 exiting successfully. Buy a developer a beer!
