                               Psi4 1.4a3.dev225

  ==> Input File <==

--------------------------------------------------------------------------
#psi4
#
memory 32 gb

molecule  {
0 1
  O       -1.8720150     0.1455040    -0.0239620
  C        0.9797650    -0.0480790     0.0033120
  C       -1.2654920    -1.1739550     0.0157300
  C        0.2371350    -1.1840010    -0.0022480
  C        0.2779850     1.2351350     0.0170580
  C        2.4810890    -0.0479420    -0.0086670
  C       -1.0722470     1.2493700    -0.0013870
  H       -1.6715710    -1.7194360    -0.8464940
  H       -1.6521540    -1.6671500     0.9188080
  H        0.7071820    -2.1662500    -0.0128270
  H        0.8222450     2.1733070     0.0302890
  H        2.8758370     0.4671910     0.8740370
  H        2.8626870     0.4795000    -0.8898540
  H        2.8852055    -1.0853011    -0.0188560
  H       -1.6754580     2.1523000    -0.0063760
units angstrom
no_reorient  #important for SAPT in psi4, default
symmetry c1  #important for SAPT in psi4, default
}

set PROPERTIES_ORIGIN ["COM"]
properties('MP2/aug-cc-pvtz', properties = ['dipole'])
--------------------------------------------------------------------------

    Molecular point group: c1
  Charge       = 0
  Multiplicity = 1
  Basis Set: AUG-CC-PVTZ
    Blend: AUG-CC-PVTZ
  Basis Set: (AUG-CC-PVTZ AUX)
    Blend: AUG-CC-PVTZ-JKFIT

    Orbital Energies [Eh]
    ---------------------

    Doubly Occupied:

       1A    -20.583940     2A    -11.300243     3A    -11.291898
       4A    -11.246953     5A    -11.228525     6A    -11.226523
       7A    -11.218391     8A     -1.398928     9A     -1.105918
      10A     -1.034807    11A     -0.970837    12A     -0.876143
      13A     -0.826699    14A     -0.693853    15A     -0.673253
      16A     -0.657700    17A     -0.649810    18A     -0.585798
      19A     -0.573157    20A     -0.557482    21A     -0.549941
      22A     -0.511241    23A     -0.503076    24A     -0.469554
      25A     -0.410310    26A     -0.285547

  @DF-RHF Final Energy:  -306.78918665532080

   => Energetics <=

    Nuclear Repulsion Energy =            288.4518864553272692
    One-Electron Energy =                -987.6210960026955945
    Two-Electron Energy =                 392.3800228920475774
    Total Energy =                       -306.7891866553208047
  Basis Set: (AUG-CC-PVTZ AUX)
    Blend: AUG-CC-PVTZ-RI
    Molecular point group: c1

    Geometry (in Angstrom), charge = 0, multiplicity = 1:

       Center              X                  Y                   Z               Mass
    ------------   -----------------  -----------------  -----------------  -----------------
         O           -1.819030112880     0.131792077268    -0.023456200388    15.994914619570
         C            1.032749887120    -0.061790922732     0.003817799612    12.000000000000
         C           -1.212507112880    -1.187666922732     0.016235799612    12.000000000000
         C            0.290119887120    -1.197712922732    -0.001742200388    12.000000000000
         C            0.330969887120     1.221423077268     0.017563799612    12.000000000000
         C            2.534073887120    -0.061653922732    -0.008161200388    12.000000000000
         C           -1.019262112880     1.235658077268    -0.000881200388    12.000000000000
         H           -1.618586112880    -1.733147922732    -0.845988200388     1.007825032230
         H           -1.599169112880    -1.680861922732     0.919313799612     1.007825032230
         H            0.760166887120    -2.179961922732    -0.012321200388     1.007825032230
         H            0.875229887120     2.159595077268     0.030794799612     1.007825032230
         H            2.928821887120     0.453479077268     0.874542799612     1.007825032230
         H            2.915671887120     0.465788077268    -0.889348200388     1.007825032230
         H            2.938190387120    -1.099013022732    -0.018350200388     1.007825032230
         H           -1.622473112880     2.138588077268    -0.005870200388     1.007825032230

  Basis Set: AUG-CC-PVTZ
    Blend: AUG-CC-PVTZ
  Basis Set: (AUG-CC-PVTZ AUX)
    Blend: AUG-CC-PVTZ-JKFIT
	 Reference Energy          =    -306.7891866553208047 [Eh]
	 Singles Energy            =      -0.0000000000000000 [Eh]
	 Same-Spin Energy          =      -0.3156148400893844 [Eh]
	 Opposite-Spin Energy      =      -1.0409637493018014 [Eh]
	 Correlation Energy        =      -1.3565785893911857 [Eh]
	 Total Energy              =    -308.1457652447119813 [Eh]

	 ================> DF-SCS-MP2 Energies <==================
	-----------------------------------------------------------
	 SCS Same-Spin Scale       =       0.3333333333333333 [-]
	 SCS Opposite-Spin Scale   =       1.2000000000000000 [-]
	 SCS Same-Spin Energy      =      -0.1052049466964615 [Eh]
	 SCS Opposite-Spin Energy  =      -1.2491564991621615 [Eh]
	 SCS Correlation Energy    =      -1.3543614458586231 [Eh]
	 SCS Total Energy          =    -308.1435481011794195 [Eh]
	-----------------------------------------------------------

  Dipole Moment: [D]
     X:     0.8978      Y:    -0.5104      Z:     0.0327     Total:     1.0333

*** Psi4 exiting successfully. Buy a developer a beer!
