                               Psi4 1.4a3.dev225

  ==> Input File <==

--------------------------------------------------------------------------
#psi4
#
memory 32 gb

molecule  {
0 1
  O       -1.8720150     0.1455040    -0.0239620
  C        0.9797650    -0.0480790     0.0033120
  C       -1.2654920    -1.1739550     0.0157300
  C        0.2371350    -1.1840010    -0.0022480
  C        0.2779850     1.2351350     0.0170580
  C        2.4810890    -0.0479420    -0.0086670
  C       -1.0722470     1.2493700    -0.0013870
  H       -1.6715710    -1.7194360    -0.8464940
  H       -1.6521540    -1.6671500     0.9188080
  H        0.7071820    -2.1662500    -0.0128270
  H        0.8222450     2.1733070     0.0302890
  H        2.8758370     0.4671910     0.8740370
  H        2.8626870     0.4795000    -0.8898540
  H        2.9505413    -1.2530167    -0.0205034
  H       -1.6754580     2.1523000    -0.0063760
units angstrom
no_reorient  #important for SAPT in psi4, default
symmetry c1  #important for SAPT in psi4, default
}

set PROPERTIES_ORIGIN ["COM"]
properties('MP2/aug-cc-pvtz', properties = ['dipole'])
--------------------------------------------------------------------------

    Molecular point group: c1
  Charge       = 0
  Multiplicity = 1
  Basis Set: AUG-CC-PVTZ
    Blend: AUG-CC-PVTZ
  Basis Set: (AUG-CC-PVTZ AUX)
    Blend: AUG-CC-PVTZ-JKFIT

    Orbital Energies [Eh]
    ---------------------

    Doubly Occupied:

       1A    -20.584785     2A    -11.301528     3A    -11.292456
       4A    -11.249150     5A    -11.248427     6A    -11.227468
       7A    -11.220239     8A     -1.399787     9A     -1.106090
      10A     -1.035724    11A     -0.964345    12A     -0.876204
      13A     -0.823636    14A     -0.693743    15A     -0.671193
      16A     -0.658352    17A     -0.650560    18A     -0.586463
      19A     -0.576572    20A     -0.558842    21A     -0.531701
      22A     -0.511943    23A     -0.487857    24A     -0.469498
      25A     -0.411798    26A     -0.286395

  @DF-RHF Final Energy:  -306.76925839938684

   => Energetics <=

    Nuclear Repulsion Energy =            287.7910146134510683
    One-Electron Energy =                -986.2710357161214461
    Two-Electron Energy =                 391.7107627032835921
    Total Energy =                       -306.7692583993868425
  Basis Set: (AUG-CC-PVTZ AUX)
    Blend: AUG-CC-PVTZ-RI
    Molecular point group: c1

    Geometry (in Angstrom), charge = 0, multiplicity = 1:

       Center              X                  Y                   Z               Mass
    ------------   -----------------  -----------------  -----------------  -----------------
         O           -1.819715609010     0.133551731161    -0.023438916046    15.994914619570
         C            1.032064390990    -0.060031268839     0.003835083954    12.000000000000
         C           -1.213192609010    -1.185907268839     0.016253083954    12.000000000000
         C            0.289434390990    -1.195953268839    -0.001724916046    12.000000000000
         C            0.330284390990     1.223182731161     0.017581083954    12.000000000000
         C            2.533388390990    -0.059894268839    -0.008143916046    12.000000000000
         C           -1.019947609010     1.237417731161    -0.000863916046    12.000000000000
         H           -1.619271609010    -1.731388268839    -0.845970916046     1.007825032230
         H           -1.599854609010    -1.679102268839     0.919331083954     1.007825032230
         H            0.759481390990    -2.178202268839    -0.012303916046     1.007825032230
         H            0.874544390990     2.161354731161     0.030812083954     1.007825032230
         H            2.928136390990     0.455238731161     0.874560083954     1.007825032230
         H            2.914986390990     0.467547731161    -0.889330916046     1.007825032230
         H            3.002840690990    -1.264968968839    -0.019980316046     1.007825032230
         H           -1.623158609010     2.140347731161    -0.005852916046     1.007825032230

  Basis Set: AUG-CC-PVTZ
    Blend: AUG-CC-PVTZ
  Basis Set: (AUG-CC-PVTZ AUX)
    Blend: AUG-CC-PVTZ-JKFIT
	 Reference Energy          =    -306.7692583993868425 [Eh]
	 Singles Energy            =      -0.0000000000000000 [Eh]
	 Same-Spin Energy          =      -0.3157233933333768 [Eh]
	 Opposite-Spin Energy      =      -1.0426523333463196 [Eh]
	 Correlation Energy        =      -1.3583757266796965 [Eh]
	 Total Energy              =    -308.1276341260665390 [Eh]

	 ================> DF-SCS-MP2 Energies <==================
	-----------------------------------------------------------
	 SCS Same-Spin Scale       =       0.3333333333333333 [-]
	 SCS Opposite-Spin Scale   =       1.2000000000000000 [-]
	 SCS Same-Spin Energy      =      -0.1052411311111256 [Eh]
	 SCS Opposite-Spin Energy  =      -1.2511828000155834 [Eh]
	 SCS Correlation Energy    =      -1.3564239311267090 [Eh]
	 SCS Total Energy          =    -308.1256823305135413 [Eh]
	-----------------------------------------------------------

  Dipole Moment: [D]
     X:     0.7965      Y:    -0.4104      Z:     0.0339     Total:     0.8966

*** Psi4 exiting successfully. Buy a developer a beer!
