                               Psi4 1.4a3.dev225

  ==> Input File <==

--------------------------------------------------------------------------
#psi4
#
memory 32 gb

molecule  {
0 1
  O       -1.8720150     0.1455040    -0.0239620
  C        0.9797650    -0.0480790     0.0033120
  C       -1.2654920    -1.1739550     0.0157300
  C        0.2480790    -1.1672612    -0.0021661
  C        0.2779850     1.2351350     0.0170580
  C        2.4810890    -0.0479420    -0.0086670
  C       -1.0722470     1.2493700    -0.0013870
  H       -1.6715710    -1.7194360    -0.8464940
  H       -1.6521540    -1.6671500     0.9188080
  H        0.7071820    -2.1662500    -0.0128270
  H        0.8222450     2.1733070     0.0302890
  H        2.8758370     0.4671910     0.8740370
  H        2.8626870     0.4795000    -0.8898540
  H        2.8779460    -1.0666660    -0.0186730
  H       -1.6754580     2.1523000    -0.0063760
units angstrom
no_reorient  #important for SAPT in psi4, default
symmetry c1  #important for SAPT in psi4, default
}

set PROPERTIES_ORIGIN ["COM"]
properties('MP2/aug-cc-pvtz', properties = ['dipole'])
--------------------------------------------------------------------------

    Molecular point group: c1
  Charge       = 0
  Multiplicity = 1
  Basis Set: AUG-CC-PVTZ
    Blend: AUG-CC-PVTZ
  Basis Set: (AUG-CC-PVTZ AUX)
    Blend: AUG-CC-PVTZ-JKFIT

    Orbital Energies [Eh]
    ---------------------

    Doubly Occupied:

       1A    -20.583220     2A    -11.299639     3A    -11.292471
       4A    -11.243667     5A    -11.225800     6A    -11.225576
       7A    -11.217860     8A     -1.398414     9A     -1.108634
      10A     -1.033418    11A     -0.971138    12A     -0.878709
      13A     -0.825969    14A     -0.693610    15A     -0.672535
      16A     -0.657782    17A     -0.649391    18A     -0.585056
      19A     -0.573020    20A     -0.558250    21A     -0.551133
      22A     -0.510650    23A     -0.505949    24A     -0.465793
      25A     -0.412421    26A     -0.287845

  @DF-RHF Final Energy:  -306.79053044127926

   => Energetics <=

    Nuclear Repulsion Energy =            288.7591428866399497
    One-Electron Energy =                -988.2434480581315484
    Two-Electron Energy =                 392.6937747302122830
    Total Energy =                       -306.7905304412792589
  Basis Set: (AUG-CC-PVTZ AUX)
    Blend: AUG-CC-PVTZ-RI
    Molecular point group: c1

    Geometry (in Angstrom), charge = 0, multiplicity = 1:

       Center              X                  Y                   Z               Mass
    ------------   -----------------  -----------------  -----------------  -----------------
         O           -1.820321127897     0.129505337698    -0.023468351774    15.994914619570
         C            1.031458872103    -0.064077662302     0.003805648226    12.000000000000
         C           -1.213798127897    -1.189953662302     0.016223648226    12.000000000000
         C            0.299772872103    -1.183259862302    -0.001672451774    12.000000000000
         C            0.329678872103     1.219136337698     0.017551648226    12.000000000000
         C            2.532782872103    -0.063940662302    -0.008173351774    12.000000000000
         C           -1.020553127897     1.233371337698    -0.000893351774    12.000000000000
         H           -1.619877127897    -1.735434662302    -0.846000351774     1.007825032230
         H           -1.600460127897    -1.683148662302     0.919301648226     1.007825032230
         H            0.758875872103    -2.182248662302    -0.012333351774     1.007825032230
         H            0.873938872103     2.157308337698     0.030782648226     1.007825032230
         H            2.927530872103     0.451192337698     0.874530648226     1.007825032230
         H            2.914380872103     0.463501337698    -0.889360351774     1.007825032230
         H            2.929639872103    -1.082664662302    -0.018179351774     1.007825032230
         H           -1.623764127897     2.136301337698    -0.005882351774     1.007825032230

  Basis Set: AUG-CC-PVTZ
    Blend: AUG-CC-PVTZ
  Basis Set: (AUG-CC-PVTZ AUX)
    Blend: AUG-CC-PVTZ-JKFIT
	 Reference Energy          =    -306.7905304412792589 [Eh]
	 Singles Energy            =      -0.0000000000000000 [Eh]
	 Same-Spin Energy          =      -0.3153236364109379 [Eh]
	 Opposite-Spin Energy      =      -1.0403112858534378 [Eh]
	 Correlation Energy        =      -1.3556349222643758 [Eh]
	 Total Energy              =    -308.1461653635436164 [Eh]

	 ================> DF-SCS-MP2 Energies <==================
	-----------------------------------------------------------
	 SCS Same-Spin Scale       =       0.3333333333333333 [-]
	 SCS Opposite-Spin Scale   =       1.2000000000000000 [-]
	 SCS Same-Spin Energy      =      -0.1051078788036459 [Eh]
	 SCS Opposite-Spin Energy  =      -1.2483735430241254 [Eh]
	 SCS Correlation Energy    =      -1.3534814218277713 [Eh]
	 SCS Total Energy          =    -308.1440118631070391 [Eh]
	-----------------------------------------------------------

  Dipole Moment: [D]
     X:     0.8996      Y:    -0.5313      Z:     0.0327     Total:     1.0453

*** Psi4 exiting successfully. Buy a developer a beer!
