                               Psi4 1.4a3.dev225

  ==> Input File <==

--------------------------------------------------------------------------
#psi4
#
memory 32 gb

molecule  {
0 1
  O       -1.8720150     0.1455040    -0.0239620
  C        0.9797650    -0.0480790     0.0033120
  C       -1.2654920    -1.1739550     0.0157300
  C        0.2371350    -1.1840010    -0.0022480
  C        0.2779850     1.2351350     0.0170580
  C        2.4810890    -0.0479420    -0.0086670
  C       -1.0633743     1.3904402    -0.0003990
  H       -1.6715710    -1.7194360    -0.8464940
  H       -1.6521540    -1.6671500     0.9188080
  H        0.7071820    -2.1662500    -0.0128270
  H        0.8222450     2.1733070     0.0302890
  H        2.8758370     0.4671910     0.8740370
  H        2.8626870     0.4795000    -0.8898540
  H        2.8779460    -1.0666660    -0.0186730
  H       -1.6754580     2.1523000    -0.0063760
units angstrom
no_reorient  #important for SAPT in psi4, default
symmetry c1  #important for SAPT in psi4, default
}

set PROPERTIES_ORIGIN ["COM"]
properties('MP2/aug-cc-pvtz', properties = ['dipole'])
--------------------------------------------------------------------------

    Molecular point group: c1
  Charge       = 0
  Multiplicity = 1
  Basis Set: AUG-CC-PVTZ
    Blend: AUG-CC-PVTZ
  Basis Set: (AUG-CC-PVTZ AUX)
    Blend: AUG-CC-PVTZ-JKFIT

    Orbital Energies [Eh]
    ---------------------

    Doubly Occupied:

       1A    -20.560639     2A    -11.295063     3A    -11.285545
       4A    -11.249845     5A    -11.233915     6A    -11.232939
       7A    -11.229254     8A     -1.345797     9A     -1.106767
      10A     -1.035547    11A     -0.971526    12A     -0.868131
      13A     -0.843302    14A     -0.701066    15A     -0.673041
      16A     -0.648116    17A     -0.632580    18A     -0.596130
      19A     -0.575240    20A     -0.551357    21A     -0.542021
      22A     -0.509017    23A     -0.486738    24A     -0.462194
      25A     -0.413111    26A     -0.294402

  @DF-RHF Final Energy:  -306.76461425292223

   => Energetics <=

    Nuclear Repulsion Energy =            286.2599192186025334
    One-Electron Energy =                -983.3625016221610622
    Two-Electron Energy =                 390.3379681506362431
    Total Energy =                       -306.7646142529222288
  Basis Set: (AUG-CC-PVTZ AUX)
    Blend: AUG-CC-PVTZ-RI
    Molecular point group: c1

    Geometry (in Angstrom), charge = 0, multiplicity = 1:

       Center              X                  Y                   Z               Mass
    ------------   -----------------  -----------------  -----------------  -----------------
         O           -1.820062370422     0.113973343123    -0.023581546458    15.994914619570
         C            1.031717629578    -0.079609656877     0.003692453542    12.000000000000
         C           -1.213539370422    -1.205485656877     0.016110453542    12.000000000000
         C            0.289087629578    -1.215531656877    -0.001867546458    12.000000000000
         C            0.329937629578     1.203604343123     0.017438453542    12.000000000000
         C            2.533041629578    -0.079472656877    -0.008286546458    12.000000000000
         C           -1.011421670422     1.358909543123    -0.000018546458    12.000000000000
         H           -1.619618370422    -1.750966656877    -0.846113546458     1.007825032230
         H           -1.600201370422    -1.698680656877     0.919188453542     1.007825032230
         H            0.759134629578    -2.197780656877    -0.012446546458     1.007825032230
         H            0.874197629578     2.141776343123     0.030669453542     1.007825032230
         H            2.927789629578     0.435660343123     0.874417453542     1.007825032230
         H            2.914639629578     0.447969343123    -0.889473546458     1.007825032230
         H            2.929898629578    -1.098196656877    -0.018292546458     1.007825032230
         H           -1.623505370422     2.120769343123    -0.005995546458     1.007825032230

  Basis Set: AUG-CC-PVTZ
    Blend: AUG-CC-PVTZ
  Basis Set: (AUG-CC-PVTZ AUX)
    Blend: AUG-CC-PVTZ-JKFIT
	 Reference Energy          =    -306.7646142529222288 [Eh]
	 Singles Energy            =      -0.0000000000000000 [Eh]
	 Same-Spin Energy          =      -0.3156709696748413 [Eh]
	 Opposite-Spin Energy      =      -1.0435489544841834 [Eh]
	 Correlation Energy        =      -1.3592199241590248 [Eh]
	 Total Energy              =    -308.1238341770812781 [Eh]

	 ================> DF-SCS-MP2 Energies <==================
	-----------------------------------------------------------
	 SCS Same-Spin Scale       =       0.3333333333333333 [-]
	 SCS Opposite-Spin Scale   =       1.2000000000000000 [-]
	 SCS Same-Spin Energy      =      -0.1052236565582804 [Eh]
	 SCS Opposite-Spin Energy  =      -1.2522587453810201 [Eh]
	 SCS Correlation Energy    =      -1.3574824019393006 [Eh]
	 SCS Total Energy          =    -308.1220966548615365 [Eh]
	-----------------------------------------------------------

  Dipole Moment: [D]
     X:     1.3526      Y:    -0.2164      Z:     0.0400     Total:     1.3704

*** Psi4 exiting successfully. Buy a developer a beer!
