                               Psi4 1.4a3.dev225

  ==> Input File <==

--------------------------------------------------------------------------
#psi4
#
memory 32 gb

molecule  {
0 1
  O       -1.8720150     0.1455040    -0.0239620
  C        0.9797650    -0.0480790     0.0033120
  C       -1.2654920    -1.1739550     0.0157300
  C        0.2371350    -1.1840010    -0.0022480
  C        0.2779850     1.2351350     0.0170580
  C        2.4810890    -0.0479420    -0.0086670
  C       -1.0722470     1.2493700    -0.0013870
  H       -1.6715710    -1.7194360    -0.8464940
  H       -1.6521540    -1.6671500     0.9188080
  H        0.7071820    -2.1662500    -0.0128270
  H        0.8222450     2.1733070     0.0302890
  H        2.8398069     0.4201729     0.7934694
  H        2.8626870     0.4795000    -0.8898540
  H        2.8779460    -1.0666660    -0.0186730
  H       -1.6754580     2.1523000    -0.0063760
units angstrom
no_reorient  #important for SAPT in psi4, default
symmetry c1  #important for SAPT in psi4, default
}

set PROPERTIES_ORIGIN ["COM"]
properties('MP2/aug-cc-pvtz', properties = ['dipole'])
--------------------------------------------------------------------------

    Molecular point group: c1
  Charge       = 0
  Multiplicity = 1
  Basis Set: AUG-CC-PVTZ
    Blend: AUG-CC-PVTZ
  Basis Set: (AUG-CC-PVTZ AUX)
    Blend: AUG-CC-PVTZ-JKFIT

    Orbital Energies [Eh]
    ---------------------

    Doubly Occupied:

       1A    -20.583681     2A    -11.300056     3A    -11.291430
       4A    -11.245978     5A    -11.225708     6A    -11.218150
       7A    -11.213733     8A     -1.398647     9A     -1.106800
      10A     -1.034451    11A     -0.979442    12A     -0.878045
      13A     -0.828840    14A     -0.694852    15A     -0.673218
      16A     -0.658105    17A     -0.649635    18A     -0.593151
      19A     -0.581691    20A     -0.557485    21A     -0.553074
      22A     -0.510944    23A     -0.504633    24A     -0.469045
      25A     -0.411202    26A     -0.285197

  @DF-RHF Final Energy:  -306.78371327669265

   => Energetics <=

    Nuclear Repulsion Energy =            288.9825535506593042
    One-Electron Energy =                -988.6381477667300715
    Two-Electron Energy =                 392.8718809393781157
    Total Energy =                       -306.7837132766926516
  Basis Set: (AUG-CC-PVTZ AUX)
    Blend: AUG-CC-PVTZ-RI
    Molecular point group: c1

    Geometry (in Angstrom), charge = 0, multiplicity = 1:

       Center              X                  Y                   Z               Mass
    ------------   -----------------  -----------------  -----------------  -----------------
         O           -1.818575923090     0.132089868627    -0.022612813879    15.994914619570
         C            1.033204076910    -0.061493131373     0.004661186121    12.000000000000
         C           -1.212052923090    -1.187369131373     0.017079186121    12.000000000000
         C            0.290574076910    -1.197415131373    -0.000898813879    12.000000000000
         C            0.331424076910     1.221720868627     0.018407186121    12.000000000000
         C            2.534528076910    -0.061356131373    -0.007317813879    12.000000000000
         C           -1.018807923090     1.235955868627    -0.000037813879    12.000000000000
         H           -1.618131923090    -1.732850131373    -0.845144813879     1.007825032230
         H           -1.598714923090    -1.680564131373     0.920157186121     1.007825032230
         H            0.760621076910    -2.179664131373    -0.011477813879     1.007825032230
         H            0.875684076910     2.159892868627     0.031638186121     1.007825032230
         H            2.893245976910     0.406758768627     0.794818586121     1.007825032230
         H            2.916126076910     0.466085868627    -0.888504813879     1.007825032230
         H            2.931385076910    -1.080080131373    -0.017323813879     1.007825032230
         H           -1.622018923090     2.138885868627    -0.005026813879     1.007825032230

  Basis Set: AUG-CC-PVTZ
    Blend: AUG-CC-PVTZ
  Basis Set: (AUG-CC-PVTZ AUX)
    Blend: AUG-CC-PVTZ-JKFIT
	 Reference Energy          =    -306.7837132766926516 [Eh]
	 Singles Energy            =      -0.0000000000000000 [Eh]
	 Same-Spin Energy          =      -0.3156496846458832 [Eh]
	 Opposite-Spin Energy      =      -1.0403698357451905 [Eh]
	 Correlation Energy        =      -1.3560195203910737 [Eh]
	 Total Energy              =    -308.1397327970837523 [Eh]

	 ================> DF-SCS-MP2 Energies <==================
	-----------------------------------------------------------
	 SCS Same-Spin Scale       =       0.3333333333333333 [-]
	 SCS Opposite-Spin Scale   =       1.2000000000000000 [-]
	 SCS Same-Spin Energy      =      -0.1052165615486277 [Eh]
	 SCS Opposite-Spin Energy  =      -1.2484438028942286 [Eh]
	 SCS Correlation Energy    =      -1.3536603644428564 [Eh]
	 SCS Total Energy          =    -308.1373736411355253 [Eh]
	-----------------------------------------------------------

  Dipole Moment: [D]
     X:     0.9423      Y:    -0.4968      Z:     0.0591     Total:     1.0669

*** Psi4 exiting successfully. Buy a developer a beer!
