                               Psi4 1.4a3.dev225

  ==> Input File <==

--------------------------------------------------------------------------
#psi4
#
memory 32 gb

molecule  {
0 1
  O       -1.8720150     0.1455040    -0.0239620
  C        0.8987187     0.0009527     0.0041389
  C       -1.2654920    -1.1739550     0.0157300
  C        0.2371350    -1.1840010    -0.0022480
  C        0.2779850     1.2351350     0.0170580
  C        2.4810890    -0.0479420    -0.0086670
  C       -1.0722470     1.2493700    -0.0013870
  H       -1.6715710    -1.7194360    -0.8464940
  H       -1.6521540    -1.6671500     0.9188080
  H        0.7071820    -2.1662500    -0.0128270
  H        0.8222450     2.1733070     0.0302890
  H        2.8758370     0.4671910     0.8740370
  H        2.8626870     0.4795000    -0.8898540
  H        2.8779460    -1.0666660    -0.0186730
  H       -1.6754580     2.1523000    -0.0063760
units angstrom
no_reorient  #important for SAPT in psi4, default
symmetry c1  #important for SAPT in psi4, default
}

set PROPERTIES_ORIGIN ["COM"]
properties('MP2/aug-cc-pvtz', properties = ['dipole'])
--------------------------------------------------------------------------

    Molecular point group: c1
  Charge       = 0
  Multiplicity = 1
  Basis Set: AUG-CC-PVTZ
    Blend: AUG-CC-PVTZ
  Basis Set: (AUG-CC-PVTZ AUX)
    Blend: AUG-CC-PVTZ-JKFIT

    Orbital Energies [Eh]
    ---------------------

    Doubly Occupied:

       1A    -20.587349     2A    -11.305017     3A    -11.288928
       4A    -11.244744     5A    -11.227000     6A    -11.223988
       7A    -11.214292     8A     -1.402152     9A     -1.112324
      10A     -1.037955    11A     -0.959716    12A     -0.875213
      13A     -0.837799    14A     -0.697720    15A     -0.677425
      16A     -0.658600    17A     -0.650283    18A     -0.584462
      19A     -0.565004    20A     -0.553909    21A     -0.547195
      22A     -0.517234    23A     -0.511725    24A     -0.455885
      25A     -0.422624    26A     -0.280844

  @DF-RHF Final Energy:  -306.77889370503800

   => Energetics <=

    Nuclear Repulsion Energy =            289.2963594759179955
    One-Electron Energy =                -989.2717284826157993
    Two-Electron Energy =                 393.1964753016597456
    Total Energy =                       -306.7788937050380014
  Basis Set: (AUG-CC-PVTZ AUX)
    Blend: AUG-CC-PVTZ-RI
    Molecular point group: c1

    Geometry (in Angstrom), charge = 0, multiplicity = 1:

       Center              X                  Y                   Z               Mass
    ------------   -----------------  -----------------  -----------------  -----------------
         O           -1.808829225349     0.125471267063    -0.023561421015    15.994914619570
         C            0.961904474651    -0.019080032937     0.004539478985    12.000000000000
         C           -1.202306225349    -1.193987732937     0.016130578985    12.000000000000
         C            0.300320774651    -1.204033732937    -0.001847421015    12.000000000000
         C            0.341170774651     1.215102267063     0.017458578985    12.000000000000
         C            2.544274774651    -0.067974732937    -0.008266421015    12.000000000000
         C           -1.009061225349     1.229337267063    -0.000986421015    12.000000000000
         H           -1.608385225349    -1.739468732937    -0.846093421015     1.007825032230
         H           -1.588968225349    -1.687182732937     0.919208578985     1.007825032230
         H            0.770367774651    -2.186282732937    -0.012426421015     1.007825032230
         H            0.885430774651     2.153274267063     0.030689578985     1.007825032230
         H            2.939022774651     0.447158267063     0.874437578985     1.007825032230
         H            2.925872774651     0.459467267063    -0.889453421015     1.007825032230
         H            2.941131774651    -1.086698732937    -0.018272421015     1.007825032230
         H           -1.612272225349     2.132267267063    -0.005975421015     1.007825032230

  Basis Set: AUG-CC-PVTZ
    Blend: AUG-CC-PVTZ
  Basis Set: (AUG-CC-PVTZ AUX)
    Blend: AUG-CC-PVTZ-JKFIT
	 Reference Energy          =    -306.7788937050380014 [Eh]
	 Singles Energy            =      -0.0000000000000000 [Eh]
	 Same-Spin Energy          =      -0.3166015703190710 [Eh]
	 Opposite-Spin Energy      =      -1.0418354790110476 [Eh]
	 Correlation Energy        =      -1.3584370493301186 [Eh]
	 Total Energy              =    -308.1373307543681221 [Eh]

	 ================> DF-SCS-MP2 Energies <==================
	-----------------------------------------------------------
	 SCS Same-Spin Scale       =       0.3333333333333333 [-]
	 SCS Opposite-Spin Scale   =       1.2000000000000000 [-]
	 SCS Same-Spin Energy      =      -0.1055338567730237 [Eh]
	 SCS Opposite-Spin Energy  =      -1.2502025748132570 [Eh]
	 SCS Correlation Energy    =      -1.3557364315862808 [Eh]
	 SCS Total Energy          =    -308.1346301366243097 [Eh]
	-----------------------------------------------------------

  Dipole Moment: [D]
     X:     0.7553      Y:    -0.4060      Z:     0.0335     Total:     0.8582

*** Psi4 exiting successfully. Buy a developer a beer!
