                               Psi4 1.4a3.dev225

  ==> Input File <==

--------------------------------------------------------------------------
#psi4
#
memory 32 gb

molecule  {
0 1
  O       -1.8330009     0.1182583    -0.0237101
  C        0.9797650    -0.0480790     0.0033120
  C       -1.2654920    -1.1739550     0.0157300
  C        0.2371350    -1.1840010    -0.0022480
  C        0.2779850     1.2351350     0.0170580
  C        2.4810890    -0.0479420    -0.0086670
  C       -1.0722470     1.2493700    -0.0013870
  H       -1.6715710    -1.7194360    -0.8464940
  H       -1.6521540    -1.6671500     0.9188080
  H        0.7071820    -2.1662500    -0.0128270
  H        0.8222450     2.1733070     0.0302890
  H        2.8758370     0.4671910     0.8740370
  H        2.8626870     0.4795000    -0.8898540
  H        2.8779460    -1.0666660    -0.0186730
  H       -1.6754580     2.1523000    -0.0063760
units angstrom
no_reorient  #important for SAPT in psi4, default
symmetry c1  #important for SAPT in psi4, default
}

set PROPERTIES_ORIGIN ["COM"]
properties('MP2/aug-cc-pvtz', properties = ['dipole'])
--------------------------------------------------------------------------

    Molecular point group: c1
  Charge       = 0
  Multiplicity = 1
  Basis Set: AUG-CC-PVTZ
    Blend: AUG-CC-PVTZ
  Basis Set: (AUG-CC-PVTZ AUX)
    Blend: AUG-CC-PVTZ-JKFIT

    Orbital Energies [Eh]
    ---------------------

    Doubly Occupied:

       1A    -20.580762     2A    -11.301188     3A    -11.288562
       4A    -11.245875     5A    -11.225699     6A    -11.225212
       7A    -11.218508     8A     -1.408141     9A     -1.104967
      10A     -1.038860    11A     -0.970338    12A     -0.877789
      13A     -0.827954    14A     -0.697212    15A     -0.675323
      16A     -0.659260    17A     -0.655034    18A     -0.588875
      19A     -0.572586    20A     -0.559528    21A     -0.551837
      22A     -0.506732    23A     -0.504097    24A     -0.465606
      25A     -0.409751    26A     -0.284738

  @DF-RHF Final Energy:  -306.79030072527445

   => Energetics <=

    Nuclear Repulsion Energy =            289.5941083680418160
    One-Electron Energy =                -989.8799499543763432
    Two-Electron Energy =                 393.4955408610600784
    Total Energy =                       -306.7903007252744487
  Basis Set: (AUG-CC-PVTZ AUX)
    Blend: AUG-CC-PVTZ-RI
    Molecular point group: c1

    Geometry (in Angstrom), charge = 0, multiplicity = 1:

       Center              X                  Y                   Z               Mass
    ------------   -----------------  -----------------  -----------------  -----------------
         O           -1.786436238236     0.108887648490    -0.023248165264    15.994914619570
         C            1.026329661764    -0.057449651510     0.003773934736    12.000000000000
         C           -1.218927338236    -1.183325651510     0.016191934736    12.000000000000
         C            0.283699661764    -1.193371651510    -0.001786065264    12.000000000000
         C            0.324549661764     1.225764348490     0.017519934736    12.000000000000
         C            2.527653661764    -0.057312651510    -0.008205065264    12.000000000000
         C           -1.025682338236     1.239999348490    -0.000925065264    12.000000000000
         H           -1.625006338236    -1.728806651510    -0.846032065264     1.007825032230
         H           -1.605589338236    -1.676520651510     0.919269934736     1.007825032230
         H            0.753746661764    -2.175620651510    -0.012365065264     1.007825032230
         H            0.868809661764     2.163936348490     0.030750934736     1.007825032230
         H            2.922401661764     0.457820348490     0.874498934736     1.007825032230
         H            2.909251661764     0.470129348490    -0.889392065264     1.007825032230
         H            2.924510661764    -1.076036651510    -0.018211065264     1.007825032230
         H           -1.628893338236     2.142929348490    -0.005914065264     1.007825032230

  Basis Set: AUG-CC-PVTZ
    Blend: AUG-CC-PVTZ
  Basis Set: (AUG-CC-PVTZ AUX)
    Blend: AUG-CC-PVTZ-JKFIT
	 Reference Energy          =    -306.7903007252744487 [Eh]
	 Singles Energy            =      -0.0000000000000000 [Eh]
	 Same-Spin Energy          =      -0.3153973828594507 [Eh]
	 Opposite-Spin Energy      =      -1.0397560484079409 [Eh]
	 Correlation Energy        =      -1.3551534312673916 [Eh]
	 Total Energy              =    -308.1454541565418594 [Eh]

	 ================> DF-SCS-MP2 Energies <==================
	-----------------------------------------------------------
	 SCS Same-Spin Scale       =       0.3333333333333333 [-]
	 SCS Opposite-Spin Scale   =       1.2000000000000000 [-]
	 SCS Same-Spin Energy      =      -0.1051324609531502 [Eh]
	 SCS Opposite-Spin Energy  =      -1.2477072580895290 [Eh]
	 SCS Correlation Energy    =      -1.3528397190426793 [Eh]
	 SCS Total Energy          =    -308.1431404443171118 [Eh]
	-----------------------------------------------------------

  Dipole Moment: [D]
     X:     0.8484      Y:    -0.4009      Z:     0.0297     Total:     0.9388

*** Psi4 exiting successfully. Buy a developer a beer!
