                               Psi4 1.4a3.dev225

  ==> Input File <==

--------------------------------------------------------------------------
#psi4
#
memory 32 gb

molecule  {
0 1
  O       -1.8720150     0.1455040    -0.0239620
  C        0.9834182     0.0566494     0.0039859
  C       -1.2654920    -1.1739550     0.0157300
  C        0.2371350    -1.1840010    -0.0022480
  C        0.2779850     1.2351350     0.0170580
  C        2.4810890    -0.0479420    -0.0086670
  C       -1.0722470     1.2493700    -0.0013870
  H       -1.6715710    -1.7194360    -0.8464940
  H       -1.6521540    -1.6671500     0.9188080
  H        0.7071820    -2.1662500    -0.0128270
  H        0.8222450     2.1733070     0.0302890
  H        2.8758370     0.4671910     0.8740370
  H        2.8626870     0.4795000    -0.8898540
  H        2.8779460    -1.0666660    -0.0186730
  H       -1.6754580     2.1523000    -0.0063760
units angstrom
no_reorient  #important for SAPT in psi4, default
symmetry c1  #important for SAPT in psi4, default
}

set PROPERTIES_ORIGIN ["COM"]
properties('MP2/aug-cc-pvtz', properties = ['dipole'])
--------------------------------------------------------------------------

    Molecular point group: c1
  Charge       = 0
  Multiplicity = 1
  Basis Set: AUG-CC-PVTZ
    Blend: AUG-CC-PVTZ
  Basis Set: (AUG-CC-PVTZ AUX)
    Blend: AUG-CC-PVTZ-JKFIT

    Orbital Energies [Eh]
    ---------------------

    Doubly Occupied:

       1A    -20.587198     2A    -11.306723     3A    -11.289959
       4A    -11.253433     5A    -11.232391     6A    -11.226998
       7A    -11.215131     8A     -1.401510     9A     -1.110416
      10A     -1.034208    11A     -0.973210    12A     -0.862752
      13A     -0.841753    14A     -0.699390    15A     -0.676263
      16A     -0.656734    17A     -0.649225    18A     -0.581612
      19A     -0.573633    20A     -0.565784    21A     -0.552997
      22A     -0.511975    23A     -0.503924    24A     -0.468605
      25A     -0.413677    26A     -0.268192

  @DF-RHF Final Energy:  -306.76767045050906

   => Energetics <=

    Nuclear Repulsion Energy =            288.5078203988131804
    One-Electron Energy =                -987.6355938710916007
    Two-Electron Energy =                 392.3601030217694188
    Total Energy =                       -306.7676704505090584
  Basis Set: (AUG-CC-PVTZ AUX)
    Blend: AUG-CC-PVTZ-RI
    Molecular point group: c1

    Geometry (in Angstrom), charge = 0, multiplicity = 1:

       Center              X                  Y                   Z               Mass
    ------------   -----------------  -----------------  -----------------  -----------------
         O           -1.819410323572     0.118513348145    -0.023542307466    15.994914619570
         C            1.036022876428     0.029658748145     0.004405592534    12.000000000000
         C           -1.212887323572    -1.200945651855     0.016149692534    12.000000000000
         C            0.289739676428    -1.210991651855    -0.001828307466    12.000000000000
         C            0.330589676428     1.208144348145     0.017477692534    12.000000000000
         C            2.533693676428    -0.074932651855    -0.008247307466    12.000000000000
         C           -1.019642323572     1.222379348145    -0.000967307466    12.000000000000
         H           -1.618966323572    -1.746426651855    -0.846074307466     1.007825032230
         H           -1.599549323572    -1.694140651855     0.919227692534     1.007825032230
         H            0.759786676428    -2.193240651855    -0.012407307466     1.007825032230
         H            0.874849676428     2.146316348145     0.030708692534     1.007825032230
         H            2.928441676428     0.440200348145     0.874456692534     1.007825032230
         H            2.915291676428     0.452509348145    -0.889434307466     1.007825032230
         H            2.930550676428    -1.093656651855    -0.018253307466     1.007825032230
         H           -1.622853323572     2.125309348145    -0.005956307466     1.007825032230

  Basis Set: AUG-CC-PVTZ
    Blend: AUG-CC-PVTZ
  Basis Set: (AUG-CC-PVTZ AUX)
    Blend: AUG-CC-PVTZ-JKFIT
	 Reference Energy          =    -306.7676704505090584 [Eh]
	 Singles Energy            =      -0.0000000000000000 [Eh]
	 Same-Spin Energy          =      -0.3184693035823854 [Eh]
	 Opposite-Spin Energy      =      -1.0451200265515119 [Eh]
	 Correlation Energy        =      -1.3635893301338973 [Eh]
	 Total Energy              =    -308.1312597806429494 [Eh]

	 ================> DF-SCS-MP2 Energies <==================
	-----------------------------------------------------------
	 SCS Same-Spin Scale       =       0.3333333333333333 [-]
	 SCS Opposite-Spin Scale   =       1.2000000000000000 [-]
	 SCS Same-Spin Energy      =      -0.1061564345274618 [Eh]
	 SCS Opposite-Spin Energy  =      -1.2541440318618142 [Eh]
	 SCS Correlation Energy    =      -1.3603004663892759 [Eh]
	 SCS Total Energy          =    -308.1279709168983345 [Eh]
	-----------------------------------------------------------

  Dipole Moment: [D]
     X:     0.8712      Y:    -0.4143      Z:     0.0326     Total:     0.9652

*** Psi4 exiting successfully. Buy a developer a beer!
