                               Psi4 1.4a3.dev225

  ==> Input File <==

--------------------------------------------------------------------------
#psi4
#
memory 32 gb

molecule  {
0 1
  O       -1.8847067     0.1387976    -0.0448617
  C        0.9797650    -0.0480790     0.0033120
  C       -1.2654920    -1.1739550     0.0157300
  C        0.2371350    -1.1840010    -0.0022480
  C        0.2779850     1.2351350     0.0170580
  C        2.4810890    -0.0479420    -0.0086670
  C       -1.0722470     1.2493700    -0.0013870
  H       -1.6715710    -1.7194360    -0.8464940
  H       -1.6521540    -1.6671500     0.9188080
  H        0.7071820    -2.1662500    -0.0128270
  H        0.8222450     2.1733070     0.0302890
  H        2.8758370     0.4671910     0.8740370
  H        2.8626870     0.4795000    -0.8898540
  H        2.8779460    -1.0666660    -0.0186730
  H       -1.6754580     2.1523000    -0.0063760
units angstrom
no_reorient  #important for SAPT in psi4, default
symmetry c1  #important for SAPT in psi4, default
}

set PROPERTIES_ORIGIN ["COM"]
properties('MP2/aug-cc-pvtz', properties = ['dipole'])
--------------------------------------------------------------------------

    Molecular point group: c1
  Charge       = 0
  Multiplicity = 1
  Basis Set: AUG-CC-PVTZ
    Blend: AUG-CC-PVTZ
  Basis Set: (AUG-CC-PVTZ AUX)
    Blend: AUG-CC-PVTZ-JKFIT

    Orbital Energies [Eh]
    ---------------------

    Doubly Occupied:

       1A    -20.583570     2A    -11.300610     3A    -11.290832
       4A    -11.247030     5A    -11.227259     6A    -11.226473
       7A    -11.220247     8A     -1.393737     9A     -1.106700
      10A     -1.033694    11A     -0.972413    12A     -0.875354
      13A     -0.827246    14A     -0.692474    15A     -0.672701
      16A     -0.657739    17A     -0.647987    18A     -0.584699
      19A     -0.573241    20A     -0.557897    21A     -0.552854
      22A     -0.508942    23A     -0.503311    24A     -0.470717
      25A     -0.411242    26A     -0.286673

  @DF-RHF Final Energy:  -306.78874620134258

   => Energetics <=

    Nuclear Repulsion Energy =            288.1887501348710430
    One-Electron Energy =                -987.1037107825906105
    Two-Electron Energy =                 392.1262144463769914
    Total Energy =                       -306.7887462013425761
  Basis Set: (AUG-CC-PVTZ AUX)
    Blend: AUG-CC-PVTZ-RI
    Molecular point group: c1

    Geometry (in Angstrom), charge = 0, multiplicity = 1:

       Center              X                  Y                   Z               Mass
    ------------   -----------------  -----------------  -----------------  -----------------
         O           -1.829532302107     0.126006868861    -0.040877729153    15.994914619570
         C            1.034939397893    -0.060869731139     0.007295970847    12.000000000000
         C           -1.210317602107    -1.186745731139     0.019713970847    12.000000000000
         C            0.292309397893    -1.196791731139     0.001735970847    12.000000000000
         C            0.333159397893     1.222344268861     0.021041970847    12.000000000000
         C            2.536263397893    -0.060732731139    -0.004683029153    12.000000000000
         C           -1.017072602107     1.236579268861     0.002596970847    12.000000000000
         H           -1.616396602107    -1.732226731139    -0.842510029153     1.007825032230
         H           -1.596979602107    -1.679940731139     0.922791970847     1.007825032230
         H            0.762356397893    -2.179040731139    -0.008843029153     1.007825032230
         H            0.877419397893     2.160516268861     0.034272970847     1.007825032230
         H            2.931011397893     0.454400268861     0.878020970847     1.007825032230
         H            2.917861397893     0.466709268861    -0.885870029153     1.007825032230
         H            2.933120397893    -1.079456731139    -0.014689029153     1.007825032230
         H           -1.620283602107     2.139509268861    -0.002392029153     1.007825032230

  Basis Set: AUG-CC-PVTZ
    Blend: AUG-CC-PVTZ
  Basis Set: (AUG-CC-PVTZ AUX)
    Blend: AUG-CC-PVTZ-JKFIT
	 Reference Energy          =    -306.7887462013425761 [Eh]
	 Singles Energy            =      -0.0000000000000000 [Eh]
	 Same-Spin Energy          =      -0.3156492330847686 [Eh]
	 Opposite-Spin Energy      =      -1.0412657044686484 [Eh]
	 Correlation Energy        =      -1.3569149375534169 [Eh]
	 Total Energy              =    -308.1456611388960027 [Eh]

	 ================> DF-SCS-MP2 Energies <==================
	-----------------------------------------------------------
	 SCS Same-Spin Scale       =       0.3333333333333333 [-]
	 SCS Opposite-Spin Scale   =       1.2000000000000000 [-]
	 SCS Same-Spin Energy      =      -0.1052164110282562 [Eh]
	 SCS Opposite-Spin Energy  =      -1.2495188453623780 [Eh]
	 SCS Correlation Energy    =      -1.3547352563906341 [Eh]
	 SCS Total Energy          =    -308.1434814577332304 [Eh]
	-----------------------------------------------------------

  Dipole Moment: [D]
     X:     0.9769      Y:    -0.4838      Z:     0.0529     Total:     1.0914

*** Psi4 exiting successfully. Buy a developer a beer!
