                               Psi4 1.4a3.dev225

  ==> Input File <==

--------------------------------------------------------------------------
#psi4
#
memory 32 gb

molecule  {
0 1
  O       -1.8720150     0.1455040    -0.0239620
  C        0.9797650    -0.0480790     0.0033120
  C       -1.2654920    -1.1739550     0.0157300
  C        0.1276952    -1.3513995    -0.0030674
  C        0.2779850     1.2351350     0.0170580
  C        2.4810890    -0.0479420    -0.0086670
  C       -1.0722470     1.2493700    -0.0013870
  H       -1.6715710    -1.7194360    -0.8464940
  H       -1.6521540    -1.6671500     0.9188080
  H        0.7071820    -2.1662500    -0.0128270
  H        0.8222450     2.1733070     0.0302890
  H        2.8758370     0.4671910     0.8740370
  H        2.8626870     0.4795000    -0.8898540
  H        2.8779460    -1.0666660    -0.0186730
  H       -1.6754580     2.1523000    -0.0063760
units angstrom
no_reorient  #important for SAPT in psi4, default
symmetry c1  #important for SAPT in psi4, default
}

set PROPERTIES_ORIGIN ["COM"]
properties('MP2/aug-cc-pvtz', properties = ['dipole'])
--------------------------------------------------------------------------

    Molecular point group: c1
  Charge       = 0
  Multiplicity = 1
  Basis Set: AUG-CC-PVTZ
    Blend: AUG-CC-PVTZ
  Basis Set: (AUG-CC-PVTZ AUX)
    Blend: AUG-CC-PVTZ-JKFIT

    Orbital Energies [Eh]
    ---------------------

    Doubly Occupied:

       1A    -20.591031     2A    -11.305882     3A    -11.287572
       4A    -11.272765     5A    -11.235016     6A    -11.229622
       7A    -11.222821     8A     -1.403756     9A     -1.090190
      10A     -1.051512    11A     -0.980215    12A     -0.862619
      13A     -0.831728    14A     -0.702915    15A     -0.688719
      16A     -0.655210    17A     -0.651802    18A     -0.596624
      19A     -0.572845    20A     -0.562789    21A     -0.553450
      22A     -0.518282    23A     -0.496735    24A     -0.471784
      25A     -0.396277    26A     -0.260586

  @DF-RHF Final Energy:  -306.72764220174923

   => Energetics <=

    Nuclear Repulsion Energy =            286.5690697442268515
    One-Electron Energy =                -983.6079259457040962
    Two-Electron Energy =                 390.3112139997280678
    Total Energy =                       -306.7276422017492337
  Basis Set: (AUG-CC-PVTZ AUX)
    Blend: AUG-CC-PVTZ-RI
    Molecular point group: c1

    Geometry (in Angstrom), charge = 0, multiplicity = 1:

       Center              X                  Y                   Z               Mass
    ------------   -----------------  -----------------  -----------------  -----------------
         O           -1.805282162941     0.152508843492    -0.023355756731    15.994914619570
         C            1.046497837059    -0.041074156508     0.003918243269    12.000000000000
         C           -1.198759162941    -1.166950156508     0.016336243269    12.000000000000
         C            0.194428037059    -1.344394656508    -0.002461156731    12.000000000000
         C            0.344717837059     1.242139843492     0.017664243269    12.000000000000
         C            2.547821837059    -0.040937156508    -0.008060756731    12.000000000000
         C           -1.005514162941     1.256374843492    -0.000780756731    12.000000000000
         H           -1.604838162941    -1.712431156508    -0.845887756731     1.007825032230
         H           -1.585421162941    -1.660145156508     0.919414243269     1.007825032230
         H            0.773914837059    -2.159245156508    -0.012220756731     1.007825032230
         H            0.888977837059     2.180311843492     0.030895243269     1.007825032230
         H            2.942569837059     0.474195843492     0.874643243269     1.007825032230
         H            2.929419837059     0.486504843492    -0.889247756731     1.007825032230
         H            2.944678837059    -1.059661156508    -0.018066756731     1.007825032230
         H           -1.608725162941     2.159304843492    -0.005769756731     1.007825032230

  Basis Set: AUG-CC-PVTZ
    Blend: AUG-CC-PVTZ
  Basis Set: (AUG-CC-PVTZ AUX)
    Blend: AUG-CC-PVTZ-JKFIT
	 Reference Energy          =    -306.7276422017492337 [Eh]
	 Singles Energy            =      -0.0000000000000000 [Eh]
	 Same-Spin Energy          =      -0.3202954294659724 [Eh]
	 Opposite-Spin Energy      =      -1.0492811558843371 [Eh]
	 Correlation Energy        =      -1.3695765853503095 [Eh]
	 Total Energy              =    -308.0972187870995640 [Eh]

	 ================> DF-SCS-MP2 Energies <==================
	-----------------------------------------------------------
	 SCS Same-Spin Scale       =       0.3333333333333333 [-]
	 SCS Opposite-Spin Scale   =       1.2000000000000000 [-]
	 SCS Same-Spin Energy      =      -0.1067651431553241 [Eh]
	 SCS Opposite-Spin Energy  =      -1.2591373870612046 [Eh]
	 SCS Correlation Energy    =      -1.3659025302165286 [Eh]
	 SCS Total Energy          =    -308.0935447319657783 [Eh]
	-----------------------------------------------------------

  Dipole Moment: [D]
     X:     0.9423      Y:    -0.4478      Z:     0.0304     Total:     1.0437

*** Psi4 exiting successfully. Buy a developer a beer!
