                               Psi4 1.4a3.dev225

  ==> Input File <==

--------------------------------------------------------------------------
#psi4
#
memory 32 gb

molecule  {
0 1
  O       -1.8720150     0.1455040    -0.0239620
  C        0.9797650    -0.0480790     0.0033120
  C       -1.2654920    -1.1739550     0.0157300
  C        0.2371350    -1.1840010    -0.0022480
  C        0.2779850     1.2351350     0.0170580
  C        2.4810890    -0.0479420    -0.0086670
  C       -1.0722470     1.2493700    -0.0013870
  H       -1.6715710    -1.7194360    -0.8464940
  H       -1.6521540    -1.6671500     0.9188080
  H        0.7071820    -2.1662500    -0.0128270
  H        0.8222450     2.1733070     0.0302890
  H        2.8938520     0.4907000     0.9143208
  H        2.8626870     0.4795000    -0.8898540
  H        2.8779460    -1.0666660    -0.0186730
  H       -1.6754580     2.1523000    -0.0063760
units angstrom
no_reorient  #important for SAPT in psi4, default
symmetry c1  #important for SAPT in psi4, default
}

set PROPERTIES_ORIGIN ["COM"]
properties('MP2/aug-cc-pvtz', properties = ['dipole'])
--------------------------------------------------------------------------

    Molecular point group: c1
  Charge       = 0
  Multiplicity = 1
  Basis Set: AUG-CC-PVTZ
    Blend: AUG-CC-PVTZ
  Basis Set: (AUG-CC-PVTZ AUX)
    Blend: AUG-CC-PVTZ-JKFIT

    Orbital Energies [Eh]
    ---------------------

    Doubly Occupied:

       1A    -20.583998     2A    -11.300183     3A    -11.292134
       4A    -11.247297     5A    -11.232098     6A    -11.226955
       7A    -11.218288     8A     -1.398996     9A     -1.105862
      10A     -1.034923    11A     -0.969276    12A     -0.875541
      13A     -0.826556    14A     -0.693764    15A     -0.673848
      16A     -0.657618    17A     -0.649875    18A     -0.585532
      19A     -0.567013    20A     -0.557800    21A     -0.550646
      22A     -0.511355    23A     -0.503457    24A     -0.469748
      25A     -0.409588    26A     -0.285665

  @DF-RHF Final Energy:  -306.78769773285904

   => Energetics <=

    Nuclear Repulsion Energy =            288.3304636118221538
    One-Electron Energy =                -987.3802921607884855
    Two-Electron Energy =                 392.2621308161073443
    Total Energy =                       -306.7876977328590442
  Basis Set: (AUG-CC-PVTZ AUX)
    Blend: AUG-CC-PVTZ-RI
    Molecular point group: c1

    Geometry (in Angstrom), charge = 0, multiplicity = 1:

       Center              X                  Y                   Z               Mass
    ------------   -----------------  -----------------  -----------------  -----------------
         O           -1.819142958420     0.131349905940    -0.023880773666    15.994914619570
         C            1.032637041580    -0.062233094060     0.003393226334    12.000000000000
         C           -1.212619958420    -1.188109094060     0.015811226334    12.000000000000
         C            0.290007041580    -1.198155094060    -0.002166773666    12.000000000000
         C            0.330857041580     1.220980905940     0.017139226334    12.000000000000
         C            2.533961041580    -0.062096094060    -0.008585773666    12.000000000000
         C           -1.019374958420     1.235215905940    -0.001305773666    12.000000000000
         H           -1.618698958420    -1.733590094060    -0.846412773666     1.007825032230
         H           -1.599281958420    -1.681304094060     0.918889226334     1.007825032230
         H            0.760054041580    -2.180404094060    -0.012745773666     1.007825032230
         H            0.875117041580     2.159152905940     0.030370226334     1.007825032230
         H            2.946724041580     0.476545905940     0.914402026334     1.007825032230
         H            2.915559041580     0.465345905940    -0.889772773666     1.007825032230
         H            2.930818041580    -1.080820094060    -0.018591773666     1.007825032230
         H           -1.622585958420     2.138145905940    -0.006294773666     1.007825032230

  Basis Set: AUG-CC-PVTZ
    Blend: AUG-CC-PVTZ
  Basis Set: (AUG-CC-PVTZ AUX)
    Blend: AUG-CC-PVTZ-JKFIT
	 Reference Energy          =    -306.7876977328590442 [Eh]
	 Singles Energy            =      -0.0000000000000000 [Eh]
	 Same-Spin Energy          =      -0.3155937029069958 [Eh]
	 Opposite-Spin Energy      =      -1.0411186694370242 [Eh]
	 Correlation Energy        =      -1.3567123723440200 [Eh]
	 Total Energy              =    -308.1444101052030646 [Eh]

	 ================> DF-SCS-MP2 Energies <==================
	-----------------------------------------------------------
	 SCS Same-Spin Scale       =       0.3333333333333333 [-]
	 SCS Opposite-Spin Scale   =       1.2000000000000000 [-]
	 SCS Same-Spin Energy      =      -0.1051979009689986 [Eh]
	 SCS Opposite-Spin Energy  =      -1.2493424033244291 [Eh]
	 SCS Correlation Energy    =      -1.3545403042934276 [Eh]
	 SCS Total Energy          =    -308.1422380371524810 [Eh]
	-----------------------------------------------------------

  Dipole Moment: [D]
     X:     0.8844      Y:    -0.5337      Z:     0.0149     Total:     1.0330

*** Psi4 exiting successfully. Buy a developer a beer!
