                               Psi4 1.4a3.dev225

  ==> Input File <==

--------------------------------------------------------------------------
#psi4
#
memory 32 gb

molecule  {
0 1
  O       -1.9830266     0.2351696    -0.0245516
  C        0.9797650    -0.0480790     0.0033120
  C       -1.2654920    -1.1739550     0.0157300
  C        0.2371350    -1.1840010    -0.0022480
  C        0.2779850     1.2351350     0.0170580
  C        2.4810890    -0.0479420    -0.0086670
  C       -1.0722470     1.2493700    -0.0013870
  H       -1.6715710    -1.7194360    -0.8464940
  H       -1.6521540    -1.6671500     0.9188080
  H        0.7071820    -2.1662500    -0.0128270
  H        0.8222450     2.1733070     0.0302890
  H        2.8758370     0.4671910     0.8740370
  H        2.8626870     0.4795000    -0.8898540
  H        2.8779460    -1.0666660    -0.0186730
  H       -1.6754580     2.1523000    -0.0063760
units angstrom
no_reorient  #important for SAPT in psi4, default
symmetry c1  #important for SAPT in psi4, default
}

set PROPERTIES_ORIGIN ["COM"]
properties('MP2/aug-cc-pvtz', properties = ['dipole'])
--------------------------------------------------------------------------

    Molecular point group: c1
  Charge       = 0
  Multiplicity = 1
  Basis Set: AUG-CC-PVTZ
    Blend: AUG-CC-PVTZ
  Basis Set: (AUG-CC-PVTZ AUX)
    Blend: AUG-CC-PVTZ-JKFIT

    Orbital Energies [Eh]
    ---------------------

    Doubly Occupied:

       1A    -20.590992     2A    -11.302788     3A    -11.298022
       4A    -11.249616     5A    -11.229948     6A    -11.227472
       7A    -11.217838     8A     -1.376081     9A     -1.109576
      10A     -1.025149    11A     -0.976648    12A     -0.873593
      13A     -0.823227    14A     -0.687325    15A     -0.673831
      16A     -0.650282    17A     -0.636078    18A     -0.583665
      19A     -0.573752    20A     -0.554649    21A     -0.545395
      22A     -0.523587    23A     -0.505421    24A     -0.470405
      25A     -0.411071    26A     -0.287810

  @DF-RHF Final Energy:  -306.77275833005660

   => Energetics <=

    Nuclear Repulsion Energy =            285.5701829174749378
    One-Electron Energy =                -981.8774349668567538
    Two-Electron Energy =                 389.5344937193251553
    Total Energy =                       -306.7727583300566039
  Basis Set: (AUG-CC-PVTZ AUX)
    Blend: AUG-CC-PVTZ-RI
    Molecular point group: c1

    Geometry (in Angstrom), charge = 0, multiplicity = 1:

       Center              X                  Y                   Z               Mass
    ------------   -----------------  -----------------  -----------------  -----------------
         O           -1.911480568842     0.206331588087    -0.023949543789    15.994914619570
         C            1.051311031158    -0.076917011913     0.003914056211    12.000000000000
         C           -1.193945968842    -1.202793011913     0.016332056211    12.000000000000
         C            0.308681031158    -1.212839011913    -0.001645943789    12.000000000000
         C            0.349531031158     1.206296988087     0.017660056211    12.000000000000
         C            2.552635031158    -0.076780011913    -0.008064943789    12.000000000000
         C           -1.000700968842     1.220531988087    -0.000784943789    12.000000000000
         H           -1.600024968842    -1.748274011913    -0.845891943789     1.007825032230
         H           -1.580607968842    -1.695988011913     0.919410056211     1.007825032230
         H            0.778728031158    -2.195088011913    -0.012224943789     1.007825032230
         H            0.893791031158     2.144468988087     0.030891056211     1.007825032230
         H            2.947383031158     0.438352988087     0.874639056211     1.007825032230
         H            2.934233031158     0.450661988087    -0.889251943789     1.007825032230
         H            2.949492031158    -1.095504011913    -0.018070943789     1.007825032230
         H           -1.603911968842     2.123461988087    -0.005773943789     1.007825032230

  Basis Set: AUG-CC-PVTZ
    Blend: AUG-CC-PVTZ
  Basis Set: (AUG-CC-PVTZ AUX)
    Blend: AUG-CC-PVTZ-JKFIT
	 Reference Energy          =    -306.7727583300566039 [Eh]
	 Singles Energy            =      -0.0000000000000000 [Eh]
	 Same-Spin Energy          =      -0.3168766217301572 [Eh]
	 Opposite-Spin Energy      =      -1.0452359917102214 [Eh]
	 Correlation Energy        =      -1.3621126134403787 [Eh]
	 Total Energy              =    -308.1348709434969919 [Eh]

	 ================> DF-SCS-MP2 Energies <==================
	-----------------------------------------------------------
	 SCS Same-Spin Scale       =       0.3333333333333333 [-]
	 SCS Opposite-Spin Scale   =       1.2000000000000000 [-]
	 SCS Same-Spin Energy      =      -0.1056255405767191 [Eh]
	 SCS Opposite-Spin Energy  =      -1.2542831900522657 [Eh]
	 SCS Correlation Energy    =      -1.3599087306289848 [Eh]
	 SCS Total Energy          =    -308.1326670606856055 [Eh]
	-----------------------------------------------------------

  Dipole Moment: [D]
     X:     1.0673      Y:    -0.8348      Z:     0.0388     Total:     1.3555

*** Psi4 exiting successfully. Buy a developer a beer!
