                               Psi4 1.4a3.dev225

  ==> Input File <==

--------------------------------------------------------------------------
#psi4
#
memory 32 gb

molecule  {
0 1
  O       -1.8720150     0.1455040    -0.0239620
  C        0.9797650    -0.0480790     0.0033120
  C       -1.2446167    -1.2193682     0.0170961
  C        0.2371350    -1.1840010    -0.0022480
  C        0.2779850     1.2351350     0.0170580
  C        2.4810890    -0.0479420    -0.0086670
  C       -1.0722470     1.2493700    -0.0013870
  H       -1.6715710    -1.7194360    -0.8464940
  H       -1.6521540    -1.6671500     0.9188080
  H        0.7071820    -2.1662500    -0.0128270
  H        0.8222450     2.1733070     0.0302890
  H        2.8758370     0.4671910     0.8740370
  H        2.8626870     0.4795000    -0.8898540
  H        2.8779460    -1.0666660    -0.0186730
  H       -1.6754580     2.1523000    -0.0063760
units angstrom
no_reorient  #important for SAPT in psi4, default
symmetry c1  #important for SAPT in psi4, default
}

set PROPERTIES_ORIGIN ["COM"]
properties('MP2/aug-cc-pvtz', properties = ['dipole'])
--------------------------------------------------------------------------

    Molecular point group: c1
  Charge       = 0
  Multiplicity = 1
  Basis Set: AUG-CC-PVTZ
    Blend: AUG-CC-PVTZ
  Basis Set: (AUG-CC-PVTZ AUX)
    Blend: AUG-CC-PVTZ-JKFIT

    Orbital Energies [Eh]
    ---------------------

    Doubly Occupied:

       1A    -20.579504     2A    -11.298593     3A    -11.292896
       4A    -11.248689     5A    -11.226634     6A    -11.225291
       7A    -11.215646     8A     -1.384559     9A     -1.106295
      10A     -1.035002    11A     -0.973438    12A     -0.875508
      13A     -0.825801    14A     -0.689909    15A     -0.669339
      16A     -0.658763    17A     -0.648025    18A     -0.587872
      19A     -0.573140    20A     -0.550953    21A     -0.550735
      22A     -0.517055    23A     -0.506646    24A     -0.468096
      25A     -0.408743    26A     -0.285570

  @DF-RHF Final Energy:  -306.78669877361563

   => Energetics <=

    Nuclear Repulsion Energy =            288.0074190201460738
    One-Electron Energy =                -986.7828323159499178
    Two-Electron Energy =                 391.9887145221882747
    Total Energy =                       -306.7866987736156261
  Basis Set: (AUG-CC-PVTZ AUX)
    Blend: AUG-CC-PVTZ-RI
    Molecular point group: c1

    Geometry (in Angstrom), charge = 0, multiplicity = 1:

       Center              X                  Y                   Z               Mass
    ------------   -----------------  -----------------  -----------------  -----------------
         O           -1.821561797095     0.137269810899    -0.023628780659    15.994914619570
         C            1.030218202905    -0.056313189101     0.003645219341    12.000000000000
         C           -1.194163497095    -1.227602389101     0.017429319341    12.000000000000
         C            0.287588202905    -1.192235189101    -0.001914780659    12.000000000000
         C            0.328438202905     1.226900810899     0.017391219341    12.000000000000
         C            2.531542202905    -0.056176189101    -0.008333780659    12.000000000000
         C           -1.021793797095     1.241135810899    -0.001053780659    12.000000000000
         H           -1.621117797095    -1.727670189101    -0.846160780659     1.007825032230
         H           -1.601700797095    -1.675384189101     0.919141219341     1.007825032230
         H            0.757635202905    -2.174484189101    -0.012493780659     1.007825032230
         H            0.872698202905     2.165072810899     0.030622219341     1.007825032230
         H            2.926290202905     0.458956810899     0.874370219341     1.007825032230
         H            2.913140202905     0.471265810899    -0.889520780659     1.007825032230
         H            2.928399202905    -1.074900189101    -0.018339780659     1.007825032230
         H           -1.625004797095     2.144065810899    -0.006042780659     1.007825032230

  Basis Set: AUG-CC-PVTZ
    Blend: AUG-CC-PVTZ
  Basis Set: (AUG-CC-PVTZ AUX)
    Blend: AUG-CC-PVTZ-JKFIT
	 Reference Energy          =    -306.7866987736156261 [Eh]
	 Singles Energy            =      -0.0000000000000000 [Eh]
	 Same-Spin Energy          =      -0.3159396670506351 [Eh]
	 Opposite-Spin Energy      =      -1.0416603188652835 [Eh]
	 Correlation Energy        =      -1.3575999859159187 [Eh]
	 Total Energy              =    -308.1442987595315230 [Eh]

	 ================> DF-SCS-MP2 Energies <==================
	-----------------------------------------------------------
	 SCS Same-Spin Scale       =       0.3333333333333333 [-]
	 SCS Opposite-Spin Scale   =       1.2000000000000000 [-]
	 SCS Same-Spin Energy      =      -0.1053132223502117 [Eh]
	 SCS Opposite-Spin Energy  =      -1.2499923826383401 [Eh]
	 SCS Correlation Energy    =      -1.3553056049885519 [Eh]
	 SCS Total Energy          =    -308.1420043786041560 [Eh]
	-----------------------------------------------------------

  Dipole Moment: [D]
     X:     0.9129      Y:    -0.6604      Z:     0.0390     Total:     1.1274

*** Psi4 exiting successfully. Buy a developer a beer!
