                               Psi4 1.4a3.dev225

  ==> Input File <==

--------------------------------------------------------------------------
#psi4
#
memory 32 gb

molecule  {
0 1
  O       -1.8720150     0.1455040    -0.0239620
  C        0.9797650    -0.0480790     0.0033120
  C       -1.2654920    -1.1739550     0.0157300
  C        0.2371350    -1.1840010    -0.0022480
  C        0.2779850     1.2351350     0.0170580
  C        2.4810890    -0.0479420    -0.0086670
  C       -0.8722768     1.2472618     0.0013447
  H       -1.6715710    -1.7194360    -0.8464940
  H       -1.6521540    -1.6671500     0.9188080
  H        0.7071820    -2.1662500    -0.0128270
  H        0.8222450     2.1733070     0.0302890
  H        2.8758370     0.4671910     0.8740370
  H        2.8626870     0.4795000    -0.8898540
  H        2.8779460    -1.0666660    -0.0186730
  H       -1.6754580     2.1523000    -0.0063760
units angstrom
no_reorient  #important for SAPT in psi4, default
symmetry c1  #important for SAPT in psi4, default
}

set PROPERTIES_ORIGIN ["COM"]
properties('MP2/aug-cc-pvtz', properties = ['dipole'])
--------------------------------------------------------------------------

    Molecular point group: c1
  Charge       = 0
  Multiplicity = 1
  Basis Set: AUG-CC-PVTZ
    Blend: AUG-CC-PVTZ
  Basis Set: (AUG-CC-PVTZ AUX)
    Blend: AUG-CC-PVTZ-JKFIT

    Orbital Energies [Eh]
    ---------------------

    Doubly Occupied:

       1A    -20.568617     2A    -11.280468     3A    -11.276968
       4A    -11.249688     5A    -11.232646     6A    -11.229950
       7A    -11.201814     8A     -1.352447     9A     -1.137362
      10A     -1.056711    11A     -0.979644    12A     -0.874154
      13A     -0.809517    14A     -0.695610    15A     -0.672884
      16A     -0.641005    17A     -0.636193    18A     -0.585378
      19A     -0.576982    20A     -0.549216    21A     -0.548037
      22A     -0.503329    23A     -0.478621    24A     -0.467230
      25A     -0.436097    26A     -0.315225

  @DF-RHF Final Energy:  -306.71649046503228

   => Energetics <=

    Nuclear Repulsion Energy =            290.3695657761711004
    One-Electron Energy =                -991.4605267276547238
    Two-Electron Energy =                 394.3744704864512869
    Total Energy =                       -306.7164904650322796
  Basis Set: (AUG-CC-PVTZ AUX)
    Blend: AUG-CC-PVTZ-RI
    Molecular point group: c1

    Geometry (in Angstrom), charge = 0, multiplicity = 1:

       Center              X                  Y                   Z               Mass
    ------------   -----------------  -----------------  -----------------  -----------------
         O           -1.843935255359     0.131859927032    -0.023799378452    15.994914619570
         C            1.007844744641    -0.061723072968     0.003474621548    12.000000000000
         C           -1.237412255359    -1.187599072968     0.015892621548    12.000000000000
         C            0.265214744641    -1.197645072968    -0.002085378452    12.000000000000
         C            0.306064744641     1.221490927032     0.017220621548    12.000000000000
         C            2.509168744641    -0.061586072968    -0.008504378452    12.000000000000
         C           -0.844197055359     1.233617727032     0.001507321548    12.000000000000
         H           -1.643491255359    -1.733080072968    -0.846331378452     1.007825032230
         H           -1.624074255359    -1.680794072968     0.918970621548     1.007825032230
         H            0.735261744641    -2.179894072968    -0.012664378452     1.007825032230
         H            0.850324744641     2.159662927032     0.030451621548     1.007825032230
         H            2.903916744641     0.453546927032     0.874199621548     1.007825032230
         H            2.890766744641     0.465855927032    -0.889691378452     1.007825032230
         H            2.906025744641    -1.080310072968    -0.018510378452     1.007825032230
         H           -1.647378255359     2.138655927032    -0.006213378452     1.007825032230

  Basis Set: AUG-CC-PVTZ
    Blend: AUG-CC-PVTZ
  Basis Set: (AUG-CC-PVTZ AUX)
    Blend: AUG-CC-PVTZ-JKFIT
	 Reference Energy          =    -306.7164904650322796 [Eh]
	 Singles Energy            =      -0.0000000000000000 [Eh]
	 Same-Spin Energy          =      -0.3157550007843112 [Eh]
	 Opposite-Spin Energy      =      -1.0421053343945386 [Eh]
	 Correlation Energy        =      -1.3578603351788496 [Eh]
	 Total Energy              =    -308.0743508002111071 [Eh]

	 ================> DF-SCS-MP2 Energies <==================
	-----------------------------------------------------------
	 SCS Same-Spin Scale       =       0.3333333333333333 [-]
	 SCS Opposite-Spin Scale   =       1.2000000000000000 [-]
	 SCS Same-Spin Energy      =      -0.1052516669281037 [Eh]
	 SCS Opposite-Spin Energy  =      -1.2505264012734463 [Eh]
	 SCS Correlation Energy    =      -1.3557780682015499 [Eh]
	 SCS Total Energy          =    -308.0722685332338528 [Eh]
	-----------------------------------------------------------

  Dipole Moment: [D]
     X:     1.6990      Y:    -0.2731      Z:     0.0473     Total:     1.7214

*** Psi4 exiting successfully. Buy a developer a beer!
