                               Psi4 1.4a3.dev225

  ==> Input File <==

--------------------------------------------------------------------------
#psi4
#
memory 32 gb

molecule  {
0 1
  O       -1.8720150     0.1455040    -0.0239620
  C        0.9797650    -0.0480790     0.0033120
  C       -1.2654920    -1.1739550     0.0157300
  C        0.2371350    -1.1840010    -0.0022480
  C        0.2779850     1.2351350     0.0170580
  C        2.4810890    -0.0479420    -0.0086670
  C       -1.0722470     1.2493700    -0.0013870
  H       -1.6715710    -1.7194360    -0.8464940
  H       -1.6521540    -1.6671500     0.9188080
  H        0.7071820    -2.1662500    -0.0128270
  H        0.8222450     2.1733070     0.0302890
  H        2.8830430     0.4765946     0.8901505
  H        2.8626870     0.4795000    -0.8898540
  H        2.8779460    -1.0666660    -0.0186730
  H       -1.6754580     2.1523000    -0.0063760
units angstrom
no_reorient  #important for SAPT in psi4, default
symmetry c1  #important for SAPT in psi4, default
}

set PROPERTIES_ORIGIN ["COM"]
properties('MP2/aug-cc-pvtz', properties = ['dipole'])
--------------------------------------------------------------------------

    Molecular point group: c1
  Charge       = 0
  Multiplicity = 1
  Basis Set: AUG-CC-PVTZ
    Blend: AUG-CC-PVTZ
  Basis Set: (AUG-CC-PVTZ AUX)
    Blend: AUG-CC-PVTZ-JKFIT

    Orbital Energies [Eh]
    ---------------------

    Doubly Occupied:

       1A    -20.583916     2A    -11.300147     3A    -11.291961
       4A    -11.246992     5A    -11.228532     6A    -11.226640
       7A    -11.218245     8A     -1.398907     9A     -1.105927
      10A     -1.034803    11A     -0.970826    12A     -0.875926
      13A     -0.826923    14A     -0.693883    15A     -0.673691
      16A     -0.657629    17A     -0.649792    18A     -0.585617
      19A     -0.570340    20A     -0.557728    21A     -0.551945
      22A     -0.511251    23A     -0.503796    24A     -0.469582
      25A     -0.409953    26A     -0.285548

  @DF-RHF Final Energy:  -306.78924084769767

   => Energetics <=

    Nuclear Repulsion Energy =            288.4511941722175266
    One-Electron Energy =                -987.6198723120830891
    Two-Electron Energy =                 392.3794372921678359
    Total Energy =                       -306.7892408476976698
  Basis Set: (AUG-CC-PVTZ AUX)
    Blend: AUG-CC-PVTZ-RI
    Molecular point group: c1

    Geometry (in Angstrom), charge = 0, multiplicity = 1:

       Center              X                  Y                   Z               Mass
    ------------   -----------------  -----------------  -----------------  -----------------
         O           -1.819029551564     0.131497898267    -0.023627181499    15.994914619570
         C            1.032750448436    -0.062085101733     0.003646818501    12.000000000000
         C           -1.212506551564    -1.187961101733     0.016064818501    12.000000000000
         C            0.290120448436    -1.198007101733    -0.001913181499    12.000000000000
         C            0.330970448436     1.221128898267     0.017392818501    12.000000000000
         C            2.534074448436    -0.061948101733    -0.008332181499    12.000000000000
         C           -1.019261551564     1.235363898267    -0.001052181499    12.000000000000
         H           -1.618585551564    -1.733442101733    -0.846159181499     1.007825032230
         H           -1.599168551564    -1.681156101733     0.919142818501     1.007825032230
         H            0.760167448436    -2.180256101733    -0.012492181499     1.007825032230
         H            0.875230448436     2.159300898267     0.030623818501     1.007825032230
         H            2.936028448436     0.462588498267     0.890485318501     1.007825032230
         H            2.915672448436     0.465493898267    -0.889519181499     1.007825032230
         H            2.930931448436    -1.080672101733    -0.018338181499     1.007825032230
         H           -1.622472551564     2.138293898267    -0.006041181499     1.007825032230

  Basis Set: AUG-CC-PVTZ
    Blend: AUG-CC-PVTZ
  Basis Set: (AUG-CC-PVTZ AUX)
    Blend: AUG-CC-PVTZ-JKFIT
	 Reference Energy          =    -306.7892408476976698 [Eh]
	 Singles Energy            =      -0.0000000000000000 [Eh]
	 Same-Spin Energy          =      -0.3155997452996984 [Eh]
	 Opposite-Spin Energy      =      -1.0409285514518576 [Eh]
	 Correlation Energy        =      -1.3565282967515560 [Eh]
	 Total Energy              =    -308.1457691444492184 [Eh]

	 ================> DF-SCS-MP2 Energies <==================
	-----------------------------------------------------------
	 SCS Same-Spin Scale       =       0.3333333333333333 [-]
	 SCS Opposite-Spin Scale   =       1.2000000000000000 [-]
	 SCS Same-Spin Energy      =      -0.1051999150998995 [Eh]
	 SCS Opposite-Spin Energy  =      -1.2491142617422291 [Eh]
	 SCS Correlation Energy    =      -1.3543141768421285 [Eh]
	 SCS Total Energy          =    -308.1435550245398076 [Eh]
	-----------------------------------------------------------

  Dipole Moment: [D]
     X:     0.8985      Y:    -0.5248      Z:     0.0258     Total:     1.0409

*** Psi4 exiting successfully. Buy a developer a beer!
