                               Psi4 1.4a3.dev225

  ==> Input File <==

--------------------------------------------------------------------------
#psi4
#
memory 32 gb

molecule  {
0 1
  O       -1.8720150     0.1455040    -0.0239620
  C        0.9797650    -0.0480790     0.0033120
  C       -1.2654920    -1.1739550     0.0157300
  C        0.2371350    -1.1840010    -0.0022480
  C        0.2779850     1.2351350     0.0170580
  C        2.4810890    -0.0479420    -0.0086670
  C       -1.0722470     1.2493700    -0.0013870
  H       -1.6715710    -1.7194360    -0.8464940
  H       -1.6521540    -1.6671500     0.9188080
  H        0.7071820    -2.1662500    -0.0128270
  H        0.8222450     2.1733070     0.0302890
  H        2.8758370     0.4671910     0.8740370
  H        2.8626870     0.4795000    -0.8898540
  H        2.8706865    -1.0480309    -0.0184900
  H       -1.6754580     2.1523000    -0.0063760
units angstrom
no_reorient  #important for SAPT in psi4, default
symmetry c1  #important for SAPT in psi4, default
}

set PROPERTIES_ORIGIN ["COM"]
properties('MP2/aug-cc-pvtz', properties = ['dipole'])
--------------------------------------------------------------------------

    Molecular point group: c1
  Charge       = 0
  Multiplicity = 1
  Basis Set: AUG-CC-PVTZ
    Blend: AUG-CC-PVTZ
  Basis Set: (AUG-CC-PVTZ AUX)
    Blend: AUG-CC-PVTZ-JKFIT

    Orbital Energies [Eh]
    ---------------------

    Doubly Occupied:

       1A    -20.583797     2A    -11.300014     3A    -11.291815
       4A    -11.246656     5A    -11.226381     6A    -11.223688
       7A    -11.218059     8A     -1.398782     9A     -1.106111
      10A     -1.034658    11A     -0.973229    12A     -0.876304
      13A     -0.827718    14A     -0.694153    15A     -0.673959
      16A     -0.657622    17A     -0.649687    18A     -0.585867
      19A     -0.572608    20A     -0.558476    21A     -0.554441
      22A     -0.511139    23A     -0.504771    24A     -0.469400
      25A     -0.410063    26A     -0.285411

  @DF-RHF Final Energy:  -306.78979986514935

   => Energetics <=

    Nuclear Repulsion Energy =            288.6185045622996199
    One-Electron Energy =                -987.9469882479936587
    Two-Electron Energy =                 392.5386838205446338
    Total Energy =                       -306.7897998651493481
  Basis Set: (AUG-CC-PVTZ AUX)
    Blend: AUG-CC-PVTZ-RI
    Molecular point group: c1

    Geometry (in Angstrom), charge = 0, multiplicity = 1:

       Center              X                  Y                   Z               Mass
    ------------   -----------------  -----------------  -----------------  -----------------
         O           -1.818877781106     0.131401042370    -0.023460040420    15.994914619570
         C            1.032902218894    -0.062181957630     0.003813959580    12.000000000000
         C           -1.212354781106    -1.188057957630     0.016231959580    12.000000000000
         C            0.290272218894    -1.198103957630    -0.001746040420    12.000000000000
         C            0.331122218894     1.221032042370     0.017559959580    12.000000000000
         C            2.534226218894    -0.062044957630    -0.008165040420    12.000000000000
         C           -1.019109781106     1.235267042370    -0.000885040420    12.000000000000
         H           -1.618433781106    -1.733538957630    -0.845992040420     1.007825032230
         H           -1.599016781106    -1.681252957630     0.919309959580     1.007825032230
         H            0.760319218894    -2.180352957630    -0.012325040420     1.007825032230
         H            0.875382218894     2.159204042370     0.030790959580     1.007825032230
         H            2.928974218894     0.453088042370     0.874538959580     1.007825032230
         H            2.915824218894     0.465397042370    -0.889352040420     1.007825032230
         H            2.923823718894    -1.062133857630    -0.017988040420     1.007825032230
         H           -1.622320781106     2.138197042370    -0.005874040420     1.007825032230

  Basis Set: AUG-CC-PVTZ
    Blend: AUG-CC-PVTZ
  Basis Set: (AUG-CC-PVTZ AUX)
    Blend: AUG-CC-PVTZ-JKFIT
	 Reference Energy          =    -306.7897998651493481 [Eh]
	 Singles Energy            =      -0.0000000000000000 [Eh]
	 Same-Spin Energy          =      -0.3155956784456421 [Eh]
	 Opposite-Spin Energy      =      -1.0406686848015854 [Eh]
	 Correlation Energy        =      -1.3562643632472273 [Eh]
	 Total Energy              =    -308.1460642283965967 [Eh]

	 ================> DF-SCS-MP2 Energies <==================
	-----------------------------------------------------------
	 SCS Same-Spin Scale       =       0.3333333333333333 [-]
	 SCS Opposite-Spin Scale   =       1.2000000000000000 [-]
	 SCS Same-Spin Energy      =      -0.1051985594818807 [Eh]
	 SCS Opposite-Spin Energy  =      -1.2488024217619025 [Eh]
	 SCS Correlation Energy    =      -1.3540009812437832 [Eh]
	 SCS Total Energy          =    -308.1438008463931055 [Eh]
	-----------------------------------------------------------

  Dipole Moment: [D]
     X:     0.9163      Y:    -0.5277      Z:     0.0324     Total:     1.0578

*** Psi4 exiting successfully. Buy a developer a beer!
