                               Psi4 1.4a3.dev225

  ==> Input File <==

--------------------------------------------------------------------------
#psi4
#
memory 32 gb

molecule  {
0 1
  O       -1.8720150     0.1455040    -0.0239620
  C        0.9797650    -0.0480790     0.0033120
  C       -1.2654920    -1.1739550     0.0157300
  C        0.2371350    -1.1840010    -0.0022480
  C        0.2300047     1.3228676     0.0179978
  C        2.4810890    -0.0479420    -0.0086670
  C       -1.0722470     1.2493700    -0.0013870
  H       -1.6715710    -1.7194360    -0.8464940
  H       -1.6521540    -1.6671500     0.9188080
  H        0.7071820    -2.1662500    -0.0128270
  H        0.8222450     2.1733070     0.0302890
  H        2.8758370     0.4671910     0.8740370
  H        2.8626870     0.4795000    -0.8898540
  H        2.8779460    -1.0666660    -0.0186730
  H       -1.6754580     2.1523000    -0.0063760
units angstrom
no_reorient  #important for SAPT in psi4, default
symmetry c1  #important for SAPT in psi4, default
}

set PROPERTIES_ORIGIN ["COM"]
properties('MP2/aug-cc-pvtz', properties = ['dipole'])
--------------------------------------------------------------------------

    Molecular point group: c1
  Charge       = 0
  Multiplicity = 1
  Basis Set: AUG-CC-PVTZ
    Blend: AUG-CC-PVTZ
  Basis Set: (AUG-CC-PVTZ AUX)
    Blend: AUG-CC-PVTZ-JKFIT

    Orbital Energies [Eh]
    ---------------------

    Doubly Occupied:

       1A    -20.583780     2A    -11.291450     3A    -11.291052
       4A    -11.251972     5A    -11.227528     6A    -11.226867
       7A    -11.215793     8A     -1.397673     9A     -1.096792
      10A     -1.041643    11A     -0.975022    12A     -0.879557
      13A     -0.815633    14A     -0.698521    15A     -0.668281
      16A     -0.664614    17A     -0.649789    18A     -0.588583
      19A     -0.572152    20A     -0.561616    21A     -0.552775
      22A     -0.512636    23A     -0.497124    24A     -0.459653
      25A     -0.404684    26A     -0.297970

  @DF-RHF Final Energy:  -306.78285208204335

   => Energetics <=

    Nuclear Repulsion Energy =            287.6405237096812471
    One-Electron Energy =                -986.0004315120628462
    Two-Electron Energy =                 391.5770557203382509
    Total Energy =                       -306.7828520820433482
  Basis Set: (AUG-CC-PVTZ AUX)
    Blend: AUG-CC-PVTZ-RI
    Molecular point group: c1

    Geometry (in Angstrom), charge = 0, multiplicity = 1:

       Center              X                  Y                   Z               Mass
    ------------   -----------------  -----------------  -----------------  -----------------
         O           -1.812960000546     0.120636551106    -0.023575525065    15.994914619570
         C            1.038819999454    -0.072946448894     0.003698474935    12.000000000000
         C           -1.206437000546    -1.198822448894     0.016116474935    12.000000000000
         C            0.296189999454    -1.208868448894    -0.001861525065    12.000000000000
         C            0.289059699454     1.298000151106     0.018384274935    12.000000000000
         C            2.540143999454    -0.072809448894    -0.008280525065    12.000000000000
         C           -1.013192000546     1.224502551106    -0.001000525065    12.000000000000
         H           -1.612516000546    -1.744303448894    -0.846107525065     1.007825032230
         H           -1.593099000546    -1.692017448894     0.919194474935     1.007825032230
         H            0.766236999454    -2.191117448894    -0.012440525065     1.007825032230
         H            0.881299999454     2.148439551106     0.030675474935     1.007825032230
         H            2.934891999454     0.442323551106     0.874423474935     1.007825032230
         H            2.921741999454     0.454632551106    -0.889467525065     1.007825032230
         H            2.937000999454    -1.091533448894    -0.018286525065     1.007825032230
         H           -1.616403000546     2.127432551106    -0.005989525065     1.007825032230

  Basis Set: AUG-CC-PVTZ
    Blend: AUG-CC-PVTZ
  Basis Set: (AUG-CC-PVTZ AUX)
    Blend: AUG-CC-PVTZ-JKFIT
	 Reference Energy          =    -306.7828520820433482 [Eh]
	 Singles Energy            =      -0.0000000000000000 [Eh]
	 Same-Spin Energy          =      -0.3140737326091969 [Eh]
	 Opposite-Spin Energy      =      -1.0390956637802151 [Eh]
	 Correlation Energy        =      -1.3531693963894120 [Eh]
	 Total Energy              =    -308.1360214784327809 [Eh]

	 ================> DF-SCS-MP2 Energies <==================
	-----------------------------------------------------------
	 SCS Same-Spin Scale       =       0.3333333333333333 [-]
	 SCS Opposite-Spin Scale   =       1.2000000000000000 [-]
	 SCS Same-Spin Energy      =      -0.1046912442030656 [Eh]
	 SCS Opposite-Spin Energy  =      -1.2469147965362581 [Eh]
	 SCS Correlation Energy    =      -1.3516060407393238 [Eh]
	 SCS Total Energy          =    -308.1344581227826893 [Eh]
	-----------------------------------------------------------

  Dipole Moment: [D]
     X:     1.0304      Y:    -0.5636      Z:     0.0348     Total:     1.1750

*** Psi4 exiting successfully. Buy a developer a beer!
