                               Psi4 1.4a3.dev225

  ==> Input File <==

--------------------------------------------------------------------------
#psi4
#
memory 32 gb

molecule  {
0 1
  O       -1.8720150     0.1455040    -0.0239620
  C        0.9797650    -0.0480790     0.0033120
  C       -1.2654920    -1.1739550     0.0157300
  C        0.3599388    -1.2553980    -0.0034186
  C        0.2779850     1.2351350     0.0170580
  C        2.4810890    -0.0479420    -0.0086670
  C       -1.0722470     1.2493700    -0.0013870
  H       -1.6715710    -1.7194360    -0.8464940
  H       -1.6521540    -1.6671500     0.9188080
  H        0.7071820    -2.1662500    -0.0128270
  H        0.8222450     2.1733070     0.0302890
  H        2.8758370     0.4671910     0.8740370
  H        2.8626870     0.4795000    -0.8898540
  H        2.8779460    -1.0666660    -0.0186730
  H       -1.6754580     2.1523000    -0.0063760
units angstrom
no_reorient  #important for SAPT in psi4, default
symmetry c1  #important for SAPT in psi4, default
}

set PROPERTIES_ORIGIN ["COM"]
properties('MP2/aug-cc-pvtz', properties = ['dipole'])
--------------------------------------------------------------------------

    Molecular point group: c1
  Charge       = 0
  Multiplicity = 1
  Basis Set: AUG-CC-PVTZ
    Blend: AUG-CC-PVTZ
  Basis Set: (AUG-CC-PVTZ AUX)
    Blend: AUG-CC-PVTZ-JKFIT

    Orbital Energies [Eh]
    ---------------------

    Doubly Occupied:

       1A    -20.587090     2A    -11.304695     3A    -11.292603
       4A    -11.249402     5A    -11.223773     6A    -11.222012
       7A    -11.221942     8A     -1.398960     9A     -1.104368
      10A     -1.028602    11A     -0.962658    12A     -0.882826
      13A     -0.825355    14A     -0.700786    15A     -0.686954
      16A     -0.662856    17A     -0.644618    18A     -0.579488
      19A     -0.571072    20A     -0.561841    21A     -0.554432
      22A     -0.509570    23A     -0.507131    24A     -0.447476
      25A     -0.410401    26A     -0.290500

  @DF-RHF Final Energy:  -306.76816208945985

   => Energetics <=

    Nuclear Repulsion Energy =            286.9964122480090509
    One-Electron Energy =                -984.6663247082899488
    Two-Electron Energy =                 390.9017503708210484
    Total Energy =                       -306.7681620894598495
  Basis Set: (AUG-CC-PVTZ AUX)
    Blend: AUG-CC-PVTZ-RI
    Molecular point group: c1

    Geometry (in Angstrom), charge = 0, multiplicity = 1:

       Center              X                  Y                   Z               Mass
    ------------   -----------------  -----------------  -----------------  -----------------
         O           -1.834295230826     0.140515841159    -0.023311883017    15.994914619570
         C            1.017484769174    -0.053067158841     0.003962116983    12.000000000000
         C           -1.227772230826    -1.178943158841     0.016380116983    12.000000000000
         C            0.397658569174    -1.260386158841    -0.002768483017    12.000000000000
         C            0.315704769174     1.230146841159     0.017708116983    12.000000000000
         C            2.518808769174    -0.052930158841    -0.008016883017    12.000000000000
         C           -1.034527230826     1.244381841159    -0.000736883017    12.000000000000
         H           -1.633851230826    -1.724424158841    -0.845843883017     1.007825032230
         H           -1.614434230826    -1.672138158841     0.919458116983     1.007825032230
         H            0.744901769174    -2.171238158841    -0.012176883017     1.007825032230
         H            0.859964769174     2.168318841159     0.030939116983     1.007825032230
         H            2.913556769174     0.462202841159     0.874687116983     1.007825032230
         H            2.900406769174     0.474511841159    -0.889203883017     1.007825032230
         H            2.915665769174    -1.071654158841    -0.018022883017     1.007825032230
         H           -1.637738230826     2.147311841159    -0.005725883017     1.007825032230

  Basis Set: AUG-CC-PVTZ
    Blend: AUG-CC-PVTZ
  Basis Set: (AUG-CC-PVTZ AUX)
    Blend: AUG-CC-PVTZ-JKFIT
	 Reference Energy          =    -306.7681620894598495 [Eh]
	 Singles Energy            =      -0.0000000000000000 [Eh]
	 Same-Spin Energy          =      -0.3152272621706391 [Eh]
	 Opposite-Spin Energy      =      -1.0413361603754714 [Eh]
	 Correlation Energy        =      -1.3565634225461105 [Eh]
	 Total Energy              =    -308.1247255120059663 [Eh]

	 ================> DF-SCS-MP2 Energies <==================
	-----------------------------------------------------------
	 SCS Same-Spin Scale       =       0.3333333333333333 [-]
	 SCS Opposite-Spin Scale   =       1.2000000000000000 [-]
	 SCS Same-Spin Energy      =      -0.1050757540568797 [Eh]
	 SCS Opposite-Spin Energy  =      -1.2496033924505656 [Eh]
	 SCS Correlation Energy    =      -1.3546791465074453 [Eh]
	 SCS Total Energy          =    -308.1228412359673143 [Eh]
	-----------------------------------------------------------

  Dipole Moment: [D]
     X:     0.8306      Y:    -0.4448      Z:     0.0317     Total:     0.9427

*** Psi4 exiting successfully. Buy a developer a beer!
