                               Psi4 1.4a3.dev225

  ==> Input File <==

--------------------------------------------------------------------------
#psi4
#
memory 32 gb

molecule  {
0 1
  O       -1.8720150     0.1455040    -0.0239620
  C        0.9797650    -0.0480790     0.0033120
  C       -1.2654920    -1.1739550     0.0157300
  C        0.2371350    -1.1840010    -0.0022480
  C        0.2779850     1.2351350     0.0170580
  C        2.4810890    -0.0479420    -0.0086670
  C       -1.0222544     1.2488429    -0.0007041
  H       -1.6715710    -1.7194360    -0.8464940
  H       -1.6521540    -1.6671500     0.9188080
  H        0.7071820    -2.1662500    -0.0128270
  H        0.8222450     2.1733070     0.0302890
  H        2.8758370     0.4671910     0.8740370
  H        2.8626870     0.4795000    -0.8898540
  H        2.8779460    -1.0666660    -0.0186730
  H       -1.6754580     2.1523000    -0.0063760
units angstrom
no_reorient  #important for SAPT in psi4, default
symmetry c1  #important for SAPT in psi4, default
}

set PROPERTIES_ORIGIN ["COM"]
properties('MP2/aug-cc-pvtz', properties = ['dipole'])
--------------------------------------------------------------------------

    Molecular point group: c1
  Charge       = 0
  Multiplicity = 1
  Basis Set: AUG-CC-PVTZ
    Blend: AUG-CC-PVTZ
  Basis Set: (AUG-CC-PVTZ AUX)
    Blend: AUG-CC-PVTZ-JKFIT

    Orbital Energies [Eh]
    ---------------------

    Doubly Occupied:

       1A    -20.579453     2A    -11.293924     3A    -11.288638
       4A    -11.247290     5A    -11.228223     6A    -11.227083
       7A    -11.215327     8A     -1.385918     9A     -1.110887
      10A     -1.038758    11A     -0.975496    12A     -0.875653
      13A     -0.822915    14A     -0.691965    15A     -0.674134
      16A     -0.652863    17A     -0.645692    18A     -0.582927
      19A     -0.573891    20A     -0.556326    21A     -0.552601
      22A     -0.506750    23A     -0.499472    24A     -0.471686
      25A     -0.416342    26A     -0.293621

  @DF-RHF Final Energy:  -306.78680757080184

   => Energetics <=

    Nuclear Repulsion Energy =            288.9123406295059908
    One-Electron Energy =                -988.5826259244661287
    Two-Electron Energy =                 392.8834777241583538
    Total Energy =                       -306.7868075708018409
  Basis Set: (AUG-CC-PVTZ AUX)
    Blend: AUG-CC-PVTZ-RI
    Molecular point group: c1

    Geometry (in Angstrom), charge = 0, multiplicity = 1:

       Center              X                  Y                   Z               Mass
    ------------   -----------------  -----------------  -----------------  -----------------
         O           -1.825199280331     0.131662407869    -0.023543431793    15.994914619570
         C            1.026580719669    -0.061920592131     0.003730568207    12.000000000000
         C           -1.218676280331    -1.187796592131     0.016148568207    12.000000000000
         C            0.283950719669    -1.197842592131    -0.001829431793    12.000000000000
         C            0.324800719669     1.221293407869     0.017476568207    12.000000000000
         C            2.527904719669    -0.061783592131    -0.008248431793    12.000000000000
         C           -0.975438680331     1.235001307869    -0.000285531793    12.000000000000
         H           -1.624755280331    -1.733277592131    -0.846075431793     1.007825032230
         H           -1.605338280331    -1.680991592131     0.919226568207     1.007825032230
         H            0.753997719669    -2.180091592131    -0.012408431793     1.007825032230
         H            0.869060719669     2.159465407869     0.030707568207     1.007825032230
         H            2.922652719669     0.453349407869     0.874455568207     1.007825032230
         H            2.909502719669     0.465658407869    -0.889435431793     1.007825032230
         H            2.924761719669    -1.080507592131    -0.018254431793     1.007825032230
         H           -1.628642280331     2.138458407869    -0.005957431793     1.007825032230

  Basis Set: AUG-CC-PVTZ
    Blend: AUG-CC-PVTZ
  Basis Set: (AUG-CC-PVTZ AUX)
    Blend: AUG-CC-PVTZ-JKFIT
	 Reference Energy          =    -306.7868075708018409 [Eh]
	 Singles Energy            =      -0.0000000000000000 [Eh]
	 Same-Spin Energy          =      -0.3153043881171662 [Eh]
	 Opposite-Spin Energy      =      -1.0406150481884457 [Eh]
	 Correlation Energy        =      -1.3559194363056120 [Eh]
	 Total Energy              =    -308.1427270071074531 [Eh]

	 ================> DF-SCS-MP2 Energies <==================
	-----------------------------------------------------------
	 SCS Same-Spin Scale       =       0.3333333333333333 [-]
	 SCS Opposite-Spin Scale   =       1.2000000000000000 [-]
	 SCS Same-Spin Energy      =      -0.1051014627057220 [Eh]
	 SCS Opposite-Spin Energy  =      -1.2487380578261349 [Eh]
	 SCS Correlation Energy    =      -1.3538395205318570 [Eh]
	 SCS Total Energy          =    -308.1406470913336761 [Eh]
	-----------------------------------------------------------

  Dipole Moment: [D]
     X:     1.1034      Y:    -0.4440      Z:     0.0364     Total:     1.1899

*** Psi4 exiting successfully. Buy a developer a beer!
