                               Psi4 1.4a3.dev225

  ==> Input File <==

--------------------------------------------------------------------------
#psi4
#
memory 32 gb

molecule  {
0 1
  O       -1.8720150     0.1455040    -0.0239620
  C        0.9797650    -0.0480790     0.0033120
  C       -1.2654920    -1.1739550     0.0157300
  C        0.2371350    -1.1840010    -0.0022480
  C        0.2779850     1.2351350     0.0170580
  C        2.4810890    -0.0479420    -0.0086670
  C       -1.0722470     1.2493700    -0.0013870
  H       -1.7085503    -1.7691098    -0.9250118
  H       -1.6521540    -1.6671500     0.9188080
  H        0.7071820    -2.1662500    -0.0128270
  H        0.8222450     2.1733070     0.0302890
  H        2.8758370     0.4671910     0.8740370
  H        2.8626870     0.4795000    -0.8898540
  H        2.8779460    -1.0666660    -0.0186730
  H       -1.6754580     2.1523000    -0.0063760
units angstrom
no_reorient  #important for SAPT in psi4, default
symmetry c1  #important for SAPT in psi4, default
}

set PROPERTIES_ORIGIN ["COM"]
properties('MP2/aug-cc-pvtz', properties = ['dipole'])
--------------------------------------------------------------------------

    Molecular point group: c1
  Charge       = 0
  Multiplicity = 1
  Basis Set: AUG-CC-PVTZ
    Blend: AUG-CC-PVTZ
  Basis Set: (AUG-CC-PVTZ AUX)
    Blend: AUG-CC-PVTZ-JKFIT

    Orbital Energies [Eh]
    ---------------------

    Doubly Occupied:

       1A    -20.585654     2A    -11.303613     3A    -11.301007
       4A    -11.247750     5A    -11.227577     6A    -11.226751
       7A    -11.219168     8A     -1.399999     9A     -1.106831
      10A     -1.032368    11A     -0.971705    12A     -0.872707
      13A     -0.827119    14A     -0.694006    15A     -0.673340
      16A     -0.658394    17A     -0.641080    18A     -0.584124
      19A     -0.573200    20A     -0.558182    21A     -0.553100
      22A     -0.507735    23A     -0.499458    24A     -0.470257
      25A     -0.410793    26A     -0.285566

  @DF-RHF Final Energy:  -306.78305317885150

   => Energetics <=

    Nuclear Repulsion Energy =            288.0695145466177109
    One-Electron Energy =                -986.8421680464471137
    Two-Electron Energy =                 391.9896003209778996
    Total Energy =                       -306.7830531788515032
  Basis Set: (AUG-CC-PVTZ AUX)
    Blend: AUG-CC-PVTZ-RI
    Molecular point group: c1

    Geometry (in Angstrom), charge = 0, multiplicity = 1:

       Center              X                  Y                   Z               Mass
    ------------   -----------------  -----------------  -----------------  -----------------
         O           -1.818565964186     0.132117731943    -0.022634320159    15.994914619570
         C            1.033214035814    -0.061465268057     0.004639679841    12.000000000000
         C           -1.212042964186    -1.187341268057     0.017057679841    12.000000000000
         C            0.290584035814    -1.197387268057    -0.000920320159    12.000000000000
         C            0.331434035814     1.221748731943     0.018385679841    12.000000000000
         C            2.534538035814    -0.061328268057    -0.007339320159    12.000000000000
         C           -1.018797964186     1.235983731943    -0.000059320159    12.000000000000
         H           -1.655101264186    -1.782496068057    -0.923684120159     1.007825032230
         H           -1.598704964186    -1.680536268057     0.920135679841     1.007825032230
         H            0.760631035814    -2.179636268057    -0.011499320159     1.007825032230
         H            0.875694035814     2.159920731943     0.031616679841     1.007825032230
         H            2.929286035814     0.453804731943     0.875364679841     1.007825032230
         H            2.916136035814     0.466113731943    -0.888526320159     1.007825032230
         H            2.931395035814    -1.080052268057    -0.017345320159     1.007825032230
         H           -1.622008964186     2.138913731943    -0.005048320159     1.007825032230

  Basis Set: AUG-CC-PVTZ
    Blend: AUG-CC-PVTZ
  Basis Set: (AUG-CC-PVTZ AUX)
    Blend: AUG-CC-PVTZ-JKFIT
	 Reference Energy          =    -306.7830531788515032 [Eh]
	 Singles Energy            =      -0.0000000000000000 [Eh]
	 Same-Spin Energy          =      -0.3157871023766826 [Eh]
	 Opposite-Spin Energy      =      -1.0416769857894830 [Eh]
	 Correlation Energy        =      -1.3574640881661655 [Eh]
	 Total Energy              =    -308.1405172670176853 [Eh]

	 ================> DF-SCS-MP2 Energies <==================
	-----------------------------------------------------------
	 SCS Same-Spin Scale       =       0.3333333333333333 [-]
	 SCS Opposite-Spin Scale   =       1.2000000000000000 [-]
	 SCS Same-Spin Energy      =      -0.1052623674588942 [Eh]
	 SCS Opposite-Spin Energy  =      -1.2500123829473795 [Eh]
	 SCS Correlation Energy    =      -1.3552747504062737 [Eh]
	 SCS Total Energy          =    -308.1383279292577981 [Eh]
	-----------------------------------------------------------

  Dipole Moment: [D]
     X:     0.9663      Y:    -0.4393      Z:     0.0823     Total:     1.0647

*** Psi4 exiting successfully. Buy a developer a beer!
