                               Psi4 1.4a3.dev225

  ==> Input File <==

--------------------------------------------------------------------------
#psi4
#
memory 32 gb

molecule  {
0 1
  O       -1.8720150     0.1455040    -0.0239620
  C        0.9797650    -0.0480790     0.0033120
  C       -1.2738421    -1.1557897     0.0151836
  C        0.2371350    -1.1840010    -0.0022480
  C        0.2779850     1.2351350     0.0170580
  C        2.4810890    -0.0479420    -0.0086670
  C       -1.0722470     1.2493700    -0.0013870
  H       -1.6715710    -1.7194360    -0.8464940
  H       -1.6521540    -1.6671500     0.9188080
  H        0.7071820    -2.1662500    -0.0128270
  H        0.8222450     2.1733070     0.0302890
  H        2.8758370     0.4671910     0.8740370
  H        2.8626870     0.4795000    -0.8898540
  H        2.8779460    -1.0666660    -0.0186730
  H       -1.6754580     2.1523000    -0.0063760
units angstrom
no_reorient  #important for SAPT in psi4, default
symmetry c1  #important for SAPT in psi4, default
}

set PROPERTIES_ORIGIN ["COM"]
properties('MP2/aug-cc-pvtz', properties = ['dipole'])
--------------------------------------------------------------------------

    Molecular point group: c1
  Charge       = 0
  Multiplicity = 1
  Basis Set: AUG-CC-PVTZ
    Blend: AUG-CC-PVTZ
  Basis Set: (AUG-CC-PVTZ AUX)
    Blend: AUG-CC-PVTZ-JKFIT

    Orbital Energies [Eh]
    ---------------------

    Doubly Occupied:

       1A    -20.585495     2A    -11.300750     3A    -11.291723
       4A    -11.246082     5A    -11.226964     6A    -11.225924
       7A    -11.219288     8A     -1.405087     9A     -1.105980
      10A     -1.034820    11A     -0.971318    12A     -0.876820
      13A     -0.827582    14A     -0.695809    15A     -0.675723
      16A     -0.657208    17A     -0.650927    18A     -0.584913
      19A     -0.572799    20A     -0.560599    21A     -0.553091
      22A     -0.508279    23A     -0.503174    24A     -0.469056
      25A     -0.410795    26A     -0.285397

  @DF-RHF Final Energy:  -306.78985242583553

   => Energetics <=

    Nuclear Repulsion Energy =            288.7519595060429651
    One-Electron Energy =                -988.1924222536563320
    Two-Electron Energy =                 392.6506103217777763
    Total Energy =                       -306.7898524258355337
  Basis Set: (AUG-CC-PVTZ AUX)
    Blend: AUG-CC-PVTZ-RI
    Molecular point group: c1

    Geometry (in Angstrom), charge = 0, multiplicity = 1:

       Center              X                  Y                   Z               Mass
    ------------   -----------------  -----------------  -----------------  -----------------
         O           -1.817910809451     0.129327256889    -0.023389861299    15.994914619570
         C            1.033869190549    -0.064255743111     0.003884138701    12.000000000000
         C           -1.219737909451    -1.171966443111     0.015755738701    12.000000000000
         C            0.291239190549    -1.200177743111    -0.001675861299    12.000000000000
         C            0.332089190549     1.218958256889     0.017630138701    12.000000000000
         C            2.535193190549    -0.064118743111    -0.008094861299    12.000000000000
         C           -1.018142809451     1.233193256889    -0.000814861299    12.000000000000
         H           -1.617466809451    -1.735612743111    -0.845921861299     1.007825032230
         H           -1.598049809451    -1.683326743111     0.919380138701     1.007825032230
         H            0.761286190549    -2.182426743111    -0.012254861299     1.007825032230
         H            0.876349190549     2.157130256889     0.030861138701     1.007825032230
         H            2.929941190549     0.451014256889     0.874609138701     1.007825032230
         H            2.916791190549     0.463323256889    -0.889281861299     1.007825032230
         H            2.932050190549    -1.082842743111    -0.018100861299     1.007825032230
         H           -1.621353809451     2.136123256889    -0.005803861299     1.007825032230

  Basis Set: AUG-CC-PVTZ
    Blend: AUG-CC-PVTZ
  Basis Set: (AUG-CC-PVTZ AUX)
    Blend: AUG-CC-PVTZ-JKFIT
	 Reference Energy          =    -306.7898524258355337 [Eh]
	 Singles Energy            =      -0.0000000000000000 [Eh]
	 Same-Spin Energy          =      -0.3155137962018364 [Eh]
	 Opposite-Spin Energy      =      -1.0405368051806758 [Eh]
	 Correlation Energy        =      -1.3560506013825122 [Eh]
	 Total Energy              =    -308.1459030272180257 [Eh]

	 ================> DF-SCS-MP2 Energies <==================
	-----------------------------------------------------------
	 SCS Same-Spin Scale       =       0.3333333333333333 [-]
	 SCS Opposite-Spin Scale   =       1.2000000000000000 [-]
	 SCS Same-Spin Energy      =      -0.1051712654006121 [Eh]
	 SCS Opposite-Spin Energy  =      -1.2486441662168108 [Eh]
	 SCS Correlation Energy    =      -1.3538154316174229 [Eh]
	 SCS Total Energy          =    -308.1436678574529537 [Eh]
	-----------------------------------------------------------

  Dipole Moment: [D]
     X:     0.9065      Y:    -0.4593      Z:     0.0298     Total:     1.0166

*** Psi4 exiting successfully. Buy a developer a beer!
