                               Psi4 1.4a3.dev225

  ==> Input File <==

--------------------------------------------------------------------------
#psi4
#
memory 32 gb

molecule  {
0 1
  O       -1.8720150     0.1455040    -0.0239620
  C        0.9797650    -0.0480790     0.0033120
  C       -1.2654920    -1.1739550     0.0157300
  C        0.2371350    -1.1840010    -0.0022480
  C        0.2779850     1.2351350     0.0170580
  C        2.4810890    -0.0479420    -0.0086670
  C       -1.0722470     1.2493700    -0.0013870
  H       -1.6715710    -1.7194360    -0.8464940
  H       -1.6521540    -1.6671500     0.9188080
  H        0.7071820    -2.1662500    -0.0128270
  H        0.8222450     2.1733070     0.0302890
  H        2.8758370     0.4671910     0.8740370
  H        2.8626870     0.4795000    -0.8898540
  H        2.8053507    -0.8803153    -0.0168426
  H       -1.6754580     2.1523000    -0.0063760
units angstrom
no_reorient  #important for SAPT in psi4, default
symmetry c1  #important for SAPT in psi4, default
}

set PROPERTIES_ORIGIN ["COM"]
properties('MP2/aug-cc-pvtz', properties = ['dipole'])
--------------------------------------------------------------------------

    Molecular point group: c1
  Charge       = 0
  Multiplicity = 1
  Basis Set: AUG-CC-PVTZ
    Blend: AUG-CC-PVTZ
  Basis Set: (AUG-CC-PVTZ AUX)
    Blend: AUG-CC-PVTZ-JKFIT

    Orbital Energies [Eh]
    ---------------------

    Doubly Occupied:

       1A    -20.583335     2A    -11.299243     3A    -11.291602
       4A    -11.245722     5A    -11.225996     6A    -11.216929
       7A    -11.201596     8A     -1.398314     9A     -1.108548
      10A     -1.034239    11A     -0.989841    12A     -0.877959
      13A     -0.833589    14A     -0.697696    15A     -0.677828
      16A     -0.657514    17A     -0.649313    18A     -0.591335
      19A     -0.578673    20A     -0.571104    21A     -0.555575
      22A     -0.510967    23A     -0.508528    24A     -0.468824
      25A     -0.409307    26A     -0.285000

  @DF-RHF Final Energy:  -306.75591393274641

   => Energetics <=

    Nuclear Repulsion Energy =            289.4933885300742986
    One-Electron Energy =                -989.5614532284367897
    Two-Electron Energy =                 393.3121507656160816
    Total Energy =                       -306.7559139327464095
  Basis Set: (AUG-CC-PVTZ AUX)
    Blend: AUG-CC-PVTZ-RI
    Molecular point group: c1

    Geometry (in Angstrom), charge = 0, multiplicity = 1:

       Center              X                  Y                   Z               Mass
    ------------   -----------------  -----------------  -----------------  -----------------
         O           -1.818192284976     0.129641388477    -0.023477324762    15.994914619570
         C            1.033587715024    -0.063941611523     0.003796675238    12.000000000000
         C           -1.211669284976    -1.189817611523     0.016214675238    12.000000000000
         C            0.290957715024    -1.199863611523    -0.001763324762    12.000000000000
         C            0.331807715024     1.219272388477     0.017542675238    12.000000000000
         C            2.534911715024    -0.063804611523    -0.008182324762    12.000000000000
         C           -1.018424284976     1.233507388477    -0.000902324762    12.000000000000
         H           -1.617748284976    -1.735298611523    -0.846009324762     1.007825032230
         H           -1.598331284976    -1.683012611523     0.919292675238     1.007825032230
         H            0.761004715024    -2.182112611523    -0.012342324762     1.007825032230
         H            0.876067715024     2.157444388477     0.030773675238     1.007825032230
         H            2.929659715024     0.451328388477     0.874521675238     1.007825032230
         H            2.916509715024     0.463637388477    -0.889369324762     1.007825032230
         H            2.859173415024    -0.896177911523    -0.016357924762     1.007825032230
         H           -1.621635284976     2.136437388477    -0.005891324762     1.007825032230

  Basis Set: AUG-CC-PVTZ
    Blend: AUG-CC-PVTZ
  Basis Set: (AUG-CC-PVTZ AUX)
    Blend: AUG-CC-PVTZ-JKFIT
	 Reference Energy          =    -306.7559139327464095 [Eh]
	 Singles Energy            =      -0.0000000000000000 [Eh]
	 Same-Spin Energy          =      -0.3156197642193631 [Eh]
	 Opposite-Spin Energy      =      -1.0399976885207765 [Eh]
	 Correlation Energy        =      -1.3556174527401397 [Eh]
	 Total Energy              =    -308.1115313854865576 [Eh]

	 ================> DF-SCS-MP2 Energies <==================
	-----------------------------------------------------------
	 SCS Same-Spin Scale       =       0.3333333333333333 [-]
	 SCS Opposite-Spin Scale   =       1.2000000000000000 [-]
	 SCS Same-Spin Energy      =      -0.1052065880731210 [Eh]
	 SCS Opposite-Spin Energy  =      -1.2479972262249317 [Eh]
	 SCS Correlation Energy    =      -1.3532038142980527 [Eh]
	 SCS Total Energy          =    -308.1091177470444791 [Eh]
	-----------------------------------------------------------

  Dipole Moment: [D]
     X:     0.9794      Y:    -0.5810      Z:     0.0318     Total:     1.1393

*** Psi4 exiting successfully. Buy a developer a beer!
