                               Psi4 1.4a3.dev225

  ==> Input File <==

--------------------------------------------------------------------------
#psi4
#
memory 32 gb

molecule  {
0 1
  O       -1.8720150     0.1455040    -0.0239620
  C        0.9797650    -0.0480790     0.0033120
  C       -1.2654920    -1.1739550     0.0157300
  C        0.2371350    -1.1840010    -0.0022480
  C        0.2779850     1.2351350     0.0170580
  C        2.4810890    -0.0479420    -0.0086670
  C       -1.0722470     1.2493700    -0.0013870
  H       -1.6789669    -1.7293708    -0.8621976
  H       -1.6521540    -1.6671500     0.9188080
  H        0.7071820    -2.1662500    -0.0128270
  H        0.8222450     2.1733070     0.0302890
  H        2.8758370     0.4671910     0.8740370
  H        2.8626870     0.4795000    -0.8898540
  H        2.8779460    -1.0666660    -0.0186730
  H       -1.6754580     2.1523000    -0.0063760
units angstrom
no_reorient  #important for SAPT in psi4, default
symmetry c1  #important for SAPT in psi4, default
}

set PROPERTIES_ORIGIN ["COM"]
properties('MP2/aug-cc-pvtz', properties = ['dipole'])
--------------------------------------------------------------------------

    Molecular point group: c1
  Charge       = 0
  Multiplicity = 1
  Basis Set: AUG-CC-PVTZ
    Blend: AUG-CC-PVTZ
  Basis Set: (AUG-CC-PVTZ AUX)
    Blend: AUG-CC-PVTZ-JKFIT

    Orbital Energies [Eh]
    ---------------------

    Doubly Occupied:

       1A    -20.584181     2A    -11.300277     3A    -11.294267
       4A    -11.246956     5A    -11.226653     6A    -11.226225
       7A    -11.218385     8A     -1.399043     9A     -1.106139
      10A     -1.034119    11A     -0.971876    12A     -0.875366
      13A     -0.827145    14A     -0.693905    15A     -0.673422
      16A     -0.657749    17A     -0.647938    18A     -0.585458
      19A     -0.572928    20A     -0.557761    21A     -0.552557
      22A     -0.510062    23A     -0.503654    24A     -0.469622
      25A     -0.410288    26A     -0.285478

  @DF-RHF Final Energy:  -306.78914986478316

   => Energetics <=

    Nuclear Repulsion Energy =            288.4370995745476307
    One-Electron Energy =                -987.5895897991116499
    Two-Electron Energy =                 392.3633403597808069
    Total Energy =                       -306.7891498647831554
  Basis Set: (AUG-CC-PVTZ AUX)
    Blend: AUG-CC-PVTZ-RI
    Molecular point group: c1

    Geometry (in Angstrom), charge = 0, multiplicity = 1:

       Center              X                  Y                   Z               Mass
    ------------   -----------------  -----------------  -----------------  -----------------
         O           -1.818876350012     0.131700794664    -0.023293359935    15.994914619570
         C            1.032903649988    -0.061882205336     0.003980640065    12.000000000000
         C           -1.212353350012    -1.187758205336     0.016398640065    12.000000000000
         C            0.290273649988    -1.197804205336    -0.001579359935    12.000000000000
         C            0.331123649988     1.221331794664     0.017726640065    12.000000000000
         C            2.534227649988    -0.061745205336    -0.007998359935    12.000000000000
         C           -1.019108350012     1.235566794664    -0.000718359935    12.000000000000
         H           -1.625828250012    -1.743174005336    -0.861528959935     1.007825032230
         H           -1.599015350012    -1.680953205336     0.919476640065     1.007825032230
         H            0.760320649988    -2.180053205336    -0.012158359935     1.007825032230
         H            0.875383649988     2.159503794664     0.030957640065     1.007825032230
         H            2.928975649988     0.453387794664     0.874705640065     1.007825032230
         H            2.915825649988     0.465696794664    -0.889185359935     1.007825032230
         H            2.931084649988    -1.080469205336    -0.018004359935     1.007825032230
         H           -1.622319350012     2.138496794664    -0.005707359935     1.007825032230

  Basis Set: AUG-CC-PVTZ
    Blend: AUG-CC-PVTZ
  Basis Set: (AUG-CC-PVTZ AUX)
    Blend: AUG-CC-PVTZ-JKFIT
	 Reference Energy          =    -306.7891498647831554 [Eh]
	 Singles Energy            =      -0.0000000000000000 [Eh]
	 Same-Spin Energy          =      -0.3156365628948175 [Eh]
	 Opposite-Spin Energy      =      -1.0409667208325577 [Eh]
	 Correlation Energy        =      -1.3566032837273752 [Eh]
	 Total Energy              =    -308.1457531485105505 [Eh]

	 ================> DF-SCS-MP2 Energies <==================
	-----------------------------------------------------------
	 SCS Same-Spin Scale       =       0.3333333333333333 [-]
	 SCS Opposite-Spin Scale   =       1.2000000000000000 [-]
	 SCS Same-Spin Energy      =      -0.1052121876316058 [Eh]
	 SCS Opposite-Spin Energy  =      -1.2491600649990693 [Eh]
	 SCS Correlation Energy    =      -1.3543722526306752 [Eh]
	 SCS Total Energy          =    -308.1435221174138519 [Eh]
	-----------------------------------------------------------

  Dipole Moment: [D]
     X:     0.9172      Y:    -0.5055      Z:     0.0408     Total:     1.0481

*** Psi4 exiting successfully. Buy a developer a beer!
