                               Psi4 1.4a3.dev225

  ==> Input File <==

--------------------------------------------------------------------------
#psi4
#
memory 32 gb

molecule  {
0 1
  O       -1.8720150     0.1455040    -0.0239620
  C        1.0571933    -0.1026448     0.0024580
  C       -1.2654920    -1.1739550     0.0157300
  C        0.2371350    -1.1840010    -0.0022480
  C        0.2779850     1.2351350     0.0170580
  C        2.4810890    -0.0479420    -0.0086670
  C       -1.0722470     1.2493700    -0.0013870
  H       -1.6715710    -1.7194360    -0.8464940
  H       -1.6521540    -1.6671500     0.9188080
  H        0.7071820    -2.1662500    -0.0128270
  H        0.8222450     2.1733070     0.0302890
  H        2.8758370     0.4671910     0.8740370
  H        2.8626870     0.4795000    -0.8898540
  H        2.8779460    -1.0666660    -0.0186730
  H       -1.6754580     2.1523000    -0.0063760
units angstrom
no_reorient  #important for SAPT in psi4, default
symmetry c1  #important for SAPT in psi4, default
}

set PROPERTIES_ORIGIN ["COM"]
properties('MP2/aug-cc-pvtz', properties = ['dipole'])
--------------------------------------------------------------------------

    Molecular point group: c1
  Charge       = 0
  Multiplicity = 1
  Basis Set: AUG-CC-PVTZ
    Blend: AUG-CC-PVTZ
  Basis Set: (AUG-CC-PVTZ AUX)
    Blend: AUG-CC-PVTZ-JKFIT

    Orbital Energies [Eh]
    ---------------------

    Doubly Occupied:

       1A    -20.581096     2A    -11.296144     3A    -11.294859
       4A    -11.249484     5A    -11.229350     6A    -11.224714
       7A    -11.221156     8A     -1.396319     9A     -1.106027
      10A     -1.031597    11A     -0.983400    12A     -0.878629
      13A     -0.816272    14A     -0.692164    15A     -0.671346
      16A     -0.656554    17A     -0.649690    18A     -0.592438
      19A     -0.581636    20A     -0.565422    21A     -0.554159
      22A     -0.510703    23A     -0.497810    24A     -0.462457
      25A     -0.399298    26A     -0.289874

  @DF-RHF Final Energy:  -306.78045778784747

   => Energetics <=

    Nuclear Repulsion Energy =            287.9054220430009536
    One-Electron Energy =                -986.5065626024126004
    Two-Electron Energy =                 391.8206827715641793
    Total Energy =                       -306.7804577878474674
  Basis Set: (AUG-CC-PVTZ AUX)
    Blend: AUG-CC-PVTZ-RI
    Molecular point group: c1

    Geometry (in Angstrom), charge = 0, multiplicity = 1:

       Center              X                  Y                   Z               Mass
    ------------   -----------------  -----------------  -----------------  -----------------
         O           -1.828626689424     0.138413200879    -0.023351434321    15.994914619570
         C            1.100581610576    -0.109735599121     0.003068565679    12.000000000000
         C           -1.222103689424    -1.181045799121     0.016340565679    12.000000000000
         C            0.280523310576    -1.191091799121    -0.001637434321    12.000000000000
         C            0.321373310576     1.228044200879     0.017668565679    12.000000000000
         C            2.524477310576    -0.055032799121    -0.008056434321    12.000000000000
         C           -1.028858689424     1.242279200879    -0.000776434321    12.000000000000
         H           -1.628182689424    -1.726526799121    -0.845883434321     1.007825032230
         H           -1.608765689424    -1.674240799121     0.919418565679     1.007825032230
         H            0.750570310576    -2.173340799121    -0.012216434321     1.007825032230
         H            0.865633310576     2.166216200879     0.030899565679     1.007825032230
         H            2.919225310576     0.460100200879     0.874647565679     1.007825032230
         H            2.906075310576     0.472409200879    -0.889243434321     1.007825032230
         H            2.921334310576    -1.073756799121    -0.018062434321     1.007825032230
         H           -1.632069689424     2.145209200879    -0.005765434321     1.007825032230

  Basis Set: AUG-CC-PVTZ
    Blend: AUG-CC-PVTZ
  Basis Set: (AUG-CC-PVTZ AUX)
    Blend: AUG-CC-PVTZ-JKFIT
	 Reference Energy          =    -306.7804577878474674 [Eh]
	 Singles Energy            =      -0.0000000000000000 [Eh]
	 Same-Spin Energy          =      -0.3154932052880824 [Eh]
	 Opposite-Spin Energy      =      -1.0412066091778609 [Eh]
	 Correlation Energy        =      -1.3566998144659435 [Eh]
	 Total Energy              =    -308.1371576023134367 [Eh]

	 ================> DF-SCS-MP2 Energies <==================
	-----------------------------------------------------------
	 SCS Same-Spin Scale       =       0.3333333333333333 [-]
	 SCS Opposite-Spin Scale   =       1.2000000000000000 [-]
	 SCS Same-Spin Energy      =      -0.1051644017626941 [Eh]
	 SCS Opposite-Spin Energy  =      -1.2494479310134330 [Eh]
	 SCS Correlation Energy    =      -1.3546123327761270 [Eh]
	 SCS Total Energy          =    -308.1350701206235954 [Eh]
	-----------------------------------------------------------

  Dipole Moment: [D]
     X:     1.0471      Y:    -0.6150      Z:     0.0317     Total:     1.2147

*** Psi4 exiting successfully. Buy a developer a beer!
