                               Psi4 1.4a3.dev225

  ==> Input File <==

--------------------------------------------------------------------------
#psi4
#
memory 32 gb

molecule  {
0 1
  O       -1.8720150     0.1455040    -0.0239620
  C        0.9797650    -0.0480790     0.0033120
  C       -1.2654920    -1.1739550     0.0157300
  C        0.2371350    -1.1840010    -0.0022480
  C        0.2779850     1.2351350     0.0170580
  C        2.4810890    -0.0479420    -0.0086670
  C       -1.0722470     1.2493700    -0.0013870
  H       -1.6530814    -1.6945991    -0.8072351
  H       -1.6521540    -1.6671500     0.9188080
  H        0.7071820    -2.1662500    -0.0128270
  H        0.8222450     2.1733070     0.0302890
  H        2.8758370     0.4671910     0.8740370
  H        2.8626870     0.4795000    -0.8898540
  H        2.8779460    -1.0666660    -0.0186730
  H       -1.6754580     2.1523000    -0.0063760
units angstrom
no_reorient  #important for SAPT in psi4, default
symmetry c1  #important for SAPT in psi4, default
}

set PROPERTIES_ORIGIN ["COM"]
properties('MP2/aug-cc-pvtz', properties = ['dipole'])
--------------------------------------------------------------------------

    Molecular point group: c1
  Charge       = 0
  Multiplicity = 1
  Basis Set: AUG-CC-PVTZ
    Blend: AUG-CC-PVTZ
  Basis Set: (AUG-CC-PVTZ AUX)
    Blend: AUG-CC-PVTZ-JKFIT

    Orbital Energies [Eh]
    ---------------------

    Doubly Occupied:

       1A    -20.583174     2A    -11.299803     3A    -11.285718
       4A    -11.246483     5A    -11.225994     6A    -11.225885
       7A    -11.217863     8A     -1.398465     9A     -1.105721
      10A     -1.036615    11A     -0.972360    12A     -0.878684
      13A     -0.827383    14A     -0.694455    15A     -0.674431
      16A     -0.657793    17A     -0.653908    18A     -0.586726
      19A     -0.572758    20A     -0.557557    21A     -0.552201
      22A     -0.514222    23A     -0.504280    24A     -0.469154
      25A     -0.409954    26A     -0.285510

  @DF-RHF Final Energy:  -306.78903026422358

   => Energetics <=

    Nuclear Repulsion Energy =            288.7868446181185504
    One-Electron Energy =                -988.2775571834187076
    Two-Electron Energy =                 392.7016823010765165
    Total Energy =                       -306.7890302642235838
  Basis Set: (AUG-CC-PVTZ AUX)
    Blend: AUG-CC-PVTZ-RI
    Molecular point group: c1

    Geometry (in Angstrom), charge = 0, multiplicity = 1:

       Center              X                  Y                   Z               Mass
    ------------   -----------------  -----------------  -----------------  -----------------
         O           -1.819147937872     0.131335973757    -0.023870020527    15.994914619570
         C            1.032632062128    -0.062247026243     0.003403979473    12.000000000000
         C           -1.212624937872    -1.188123026243     0.015821979473    12.000000000000
         C            0.290002062128    -1.198169026243    -0.002156020527    12.000000000000
         C            0.330852062128     1.220966973757     0.017149979473    12.000000000000
         C            2.533956062128    -0.062110026243    -0.008575020527    12.000000000000
         C           -1.019379937872     1.235201973757    -0.001295020527    12.000000000000
         H           -1.600214337872    -1.708767126243    -0.807143120527     1.007825032230
         H           -1.599286937872    -1.681318026243     0.918899979473     1.007825032230
         H            0.760049062128    -2.180418026243    -0.012735020527     1.007825032230
         H            0.875112062128     2.159138973757     0.030380979473     1.007825032230
         H            2.928704062128     0.453022973757     0.874128979473     1.007825032230
         H            2.915554062128     0.465331973757    -0.889762020527     1.007825032230
         H            2.930813062128    -1.080834026243    -0.018581020527     1.007825032230
         H           -1.622590937872     2.138131973757    -0.006284020527     1.007825032230

  Basis Set: AUG-CC-PVTZ
    Blend: AUG-CC-PVTZ
  Basis Set: (AUG-CC-PVTZ AUX)
    Blend: AUG-CC-PVTZ-JKFIT
	 Reference Energy          =    -306.7890302642235838 [Eh]
	 Singles Energy            =      -0.0000000000000000 [Eh]
	 Same-Spin Energy          =      -0.3155371967173997 [Eh]
	 Opposite-Spin Energy      =      -1.0404700943791880 [Eh]
	 Correlation Energy        =      -1.3560072910965877 [Eh]
	 Total Energy              =    -308.1450375553201866 [Eh]

	 ================> DF-SCS-MP2 Energies <==================
	-----------------------------------------------------------
	 SCS Same-Spin Scale       =       0.3333333333333333 [-]
	 SCS Opposite-Spin Scale   =       1.2000000000000000 [-]
	 SCS Same-Spin Energy      =      -0.1051790655724666 [Eh]
	 SCS Opposite-Spin Energy  =      -1.2485641132550256 [Eh]
	 SCS Correlation Energy    =      -1.3537431788274921 [Eh]
	 SCS Total Energy          =    -308.1427734430510554 [Eh]
	-----------------------------------------------------------

  Dipole Moment: [D]
     X:     0.8861      Y:    -0.5490      Z:     0.0155     Total:     1.0425

*** Psi4 exiting successfully. Buy a developer a beer!
