                               Psi4 1.4a3.dev225

  ==> Input File <==

--------------------------------------------------------------------------
#psi4
#
memory 32 gb

molecule  {
0 1
  O       -1.8720150     0.1455040    -0.0239620
  C        1.0944321    -0.1319209     0.0020222
  C       -1.2654920    -1.1739550     0.0157300
  C        0.2371350    -1.1840010    -0.0022480
  C        0.2779850     1.2351350     0.0170580
  C        2.4810890    -0.0479420    -0.0086670
  C       -1.0722470     1.2493700    -0.0013870
  H       -1.6715710    -1.7194360    -0.8464940
  H       -1.6521540    -1.6671500     0.9188080
  H        0.7071820    -2.1662500    -0.0128270
  H        0.8222450     2.1733070     0.0302890
  H        2.8758370     0.4671910     0.8740370
  H        2.8626870     0.4795000    -0.8898540
  H        2.8779460    -1.0666660    -0.0186730
  H       -1.6754580     2.1523000    -0.0063760
units angstrom
no_reorient  #important for SAPT in psi4, default
symmetry c1  #important for SAPT in psi4, default
}

set PROPERTIES_ORIGIN ["COM"]
properties('MP2/aug-cc-pvtz', properties = ['dipole'])
--------------------------------------------------------------------------

    Molecular point group: c1
  Charge       = 0
  Multiplicity = 1
  Basis Set: AUG-CC-PVTZ
    Blend: AUG-CC-PVTZ
  Basis Set: (AUG-CC-PVTZ AUX)
    Blend: AUG-CC-PVTZ-JKFIT

    Orbital Energies [Eh]
    ---------------------

    Doubly Occupied:

       1A    -20.579902     2A    -11.296386     3A    -11.294319
       4A    -11.251128     5A    -11.231093     6A    -11.224059
       7A    -11.221960     8A     -1.395248     9A     -1.108401
      10A     -1.030315    11A     -0.988305    12A     -0.880190
      13A     -0.811059    14A     -0.691970    15A     -0.670943
      16A     -0.656042    17A     -0.649808    18A     -0.597269
      19A     -0.586372    20A     -0.568228    21A     -0.555209
      22A     -0.510547    23A     -0.498454    24A     -0.451197
      25A     -0.394452    26A     -0.291898

  @DF-RHF Final Energy:  -306.76866485918430

   => Energetics <=

    Nuclear Repulsion Energy =            287.6364942494002435
    One-Electron Energy =                -985.9408090047010091
    Two-Electron Energy =                 391.5356498961164675
    Total Energy =                       -306.7686648591842982
  Basis Set: (AUG-CC-PVTZ AUX)
    Blend: AUG-CC-PVTZ-RI
    Molecular point group: c1

    Geometry (in Angstrom), charge = 0, multiplicity = 1:

       Center              X                  Y                   Z               Mass
    ------------   -----------------  -----------------  -----------------  -----------------
         O           -1.833278752312     0.142070522229    -0.023296991938    15.994914619570
         C            1.133168347688    -0.135354377771     0.002687208062    12.000000000000
         C           -1.226755752312    -1.177388477771     0.016395008062    12.000000000000
         C            0.275871247688    -1.187434477771    -0.001582991938    12.000000000000
         C            0.316721247688     1.231701522229     0.017723008062    12.000000000000
         C            2.519825247688    -0.051375477771    -0.008001991938    12.000000000000
         C           -1.033510752312     1.245936522229    -0.000721991938    12.000000000000
         H           -1.632834752312    -1.722869477771    -0.845828991938     1.007825032230
         H           -1.613417752312    -1.670583477771     0.919473008062     1.007825032230
         H            0.745918247688    -2.169683477771    -0.012161991938     1.007825032230
         H            0.860981247688     2.169873522229     0.030954008062     1.007825032230
         H            2.914573247688     0.463757522229     0.874702008062     1.007825032230
         H            2.901423247688     0.476066522229    -0.889188991938     1.007825032230
         H            2.916682247688    -1.070099477771    -0.018007991938     1.007825032230
         H           -1.636721752312     2.148866522229    -0.005710991938     1.007825032230

  Basis Set: AUG-CC-PVTZ
    Blend: AUG-CC-PVTZ
  Basis Set: (AUG-CC-PVTZ AUX)
    Blend: AUG-CC-PVTZ-JKFIT
	 Reference Energy          =    -306.7686648591842982 [Eh]
	 Singles Energy            =      -0.0000000000000000 [Eh]
	 Same-Spin Energy          =      -0.3157725186982521 [Eh]
	 Opposite-Spin Energy      =      -1.0419257961821891 [Eh]
	 Correlation Energy        =      -1.3576983148804411 [Eh]
	 Total Energy              =    -308.1263631740647497 [Eh]

	 ================> DF-SCS-MP2 Energies <==================
	-----------------------------------------------------------
	 SCS Same-Spin Scale       =       0.3333333333333333 [-]
	 SCS Opposite-Spin Scale   =       1.2000000000000000 [-]
	 SCS Same-Spin Energy      =      -0.1052575062327507 [Eh]
	 SCS Opposite-Spin Energy  =      -1.2503109554186269 [Eh]
	 SCS Correlation Energy    =      -1.3555684616513777 [Eh]
	 SCS Total Energy          =    -308.1242333208356854 [Eh]
	-----------------------------------------------------------

  Dipole Moment: [D]
     X:     1.1162      Y:    -0.6588      Z:     0.0313     Total:     1.2965

*** Psi4 exiting successfully. Buy a developer a beer!
