                               Psi4 1.4a3.dev225

  ==> Input File <==

--------------------------------------------------------------------------
#psi4
#
memory 32 gb

molecule  {
0 1
  O       -1.8720150     0.1455040    -0.0239620
  C        0.9797650    -0.0480790     0.0033120
  C       -1.2654920    -1.1739550     0.0157300
  C        0.2371350    -1.1840010    -0.0022480
  C        0.2779850     1.2351350     0.0170580
  C        2.4810890    -0.0479420    -0.0086670
  C       -1.0722470     1.2493700    -0.0013870
  H       -1.6715710    -1.7194360    -0.8464940
  H       -1.6521540    -1.6671500     0.9188080
  H        0.7071820    -2.1662500    -0.0128270
  H        0.8222450     2.1733070     0.0302890
  H        2.8758370     0.4671910     0.8740370
  H        2.8452717     0.4554287    -0.8496386
  H        2.8779460    -1.0666660    -0.0186730
  H       -1.6754580     2.1523000    -0.0063760
units angstrom
no_reorient  #important for SAPT in psi4, default
symmetry c1  #important for SAPT in psi4, default
}

set PROPERTIES_ORIGIN ["COM"]
properties('MP2/aug-cc-pvtz', properties = ['dipole'])
--------------------------------------------------------------------------

    Molecular point group: c1
  Charge       = 0
  Multiplicity = 1
  Basis Set: AUG-CC-PVTZ
    Blend: AUG-CC-PVTZ
  Basis Set: (AUG-CC-PVTZ AUX)
    Blend: AUG-CC-PVTZ-JKFIT

    Orbital Energies [Eh]
    ---------------------

    Doubly Occupied:

       1A    -20.583763     2A    -11.300085     3A    -11.291621
       4A    -11.246362     5A    -11.226033     6A    -11.219981
       7A    -11.218174     8A     -1.398738     9A     -1.106306
      10A     -1.034574    11A     -0.975341    12A     -0.877050
      13A     -0.827961    14A     -0.694352    15A     -0.673382
      16A     -0.657882    17A     -0.649596    18A     -0.587383
      19A     -0.579142    20A     -0.557628    21A     -0.552915
      22A     -0.511038    23A     -0.504347    24A     -0.469225
      25A     -0.410735    26A     -0.285319

  @DF-RHF Final Energy:  -306.78874180758532

   => Energetics <=

    Nuclear Repulsion Energy =            288.7507674106424247
    One-Electron Energy =                -988.2011515036465426
    Two-Electron Energy =                 392.6616422854187931
    Total Energy =                       -306.7887418075853248
  Basis Set: (AUG-CC-PVTZ AUX)
    Blend: AUG-CC-PVTZ-RI
    Molecular point group: c1

    Geometry (in Angstrom), charge = 0, multiplicity = 1:

       Center              X                  Y                   Z               Mass
    ------------   -----------------  -----------------  -----------------  -----------------
         O           -1.818771227553     0.131849113289    -0.023880056021    15.994914619570
         C            1.033008772447    -0.061733886711     0.003393943979    12.000000000000
         C           -1.212248227553    -1.187609886711     0.015811943979    12.000000000000
         C            0.290378772447    -1.197655886711    -0.002166056021    12.000000000000
         C            0.331228772447     1.221480113289     0.017139943979    12.000000000000
         C            2.534332772447    -0.061596886711    -0.008585056021    12.000000000000
         C           -1.019003227553     1.235715113289    -0.001305056021    12.000000000000
         H           -1.618327227553    -1.733090886711    -0.846412056021     1.007825032230
         H           -1.598910227553    -1.680804886711     0.918889943979     1.007825032230
         H            0.760425772447    -2.179904886711    -0.012745056021     1.007825032230
         H            0.875488772447     2.159652113289     0.030370943979     1.007825032230
         H            2.929080772447     0.453536113289     0.874118943979     1.007825032230
         H            2.898515472447     0.441773813289    -0.849556656021     1.007825032230
         H            2.931189772447    -1.080320886711    -0.018591056021     1.007825032230
         H           -1.622214227553     2.138645113289    -0.006294056021     1.007825032230

  Basis Set: AUG-CC-PVTZ
    Blend: AUG-CC-PVTZ
  Basis Set: (AUG-CC-PVTZ AUX)
    Blend: AUG-CC-PVTZ-JKFIT
	 Reference Energy          =    -306.7887418075853248 [Eh]
	 Singles Energy            =      -0.0000000000000000 [Eh]
	 Same-Spin Energy          =      -0.3156216654017569 [Eh]
	 Opposite-Spin Energy      =      -1.0405561736804962 [Eh]
	 Correlation Energy        =      -1.3561778390822532 [Eh]
	 Total Energy              =    -308.1449196466675744 [Eh]

	 ================> DF-SCS-MP2 Energies <==================
	-----------------------------------------------------------
	 SCS Same-Spin Scale       =       0.3333333333333333 [-]
	 SCS Opposite-Spin Scale   =       1.2000000000000000 [-]
	 SCS Same-Spin Energy      =      -0.1052072218005856 [Eh]
	 SCS Opposite-Spin Energy  =      -1.2486674084165954 [Eh]
	 SCS Correlation Energy    =      -1.3538746302171811 [Eh]
	 SCS Total Energy          =    -308.1426164378025305 [Eh]
	-----------------------------------------------------------

  Dipole Moment: [D]
     X:     0.9264      Y:    -0.5067      Z:     0.0178     Total:     1.0561

*** Psi4 exiting successfully. Buy a developer a beer!
