                               Psi4 1.4a3.dev225

  ==> Input File <==

--------------------------------------------------------------------------
#psi4
#
memory 32 gb

molecule  {
0 1
  O       -1.8460813     0.1577091     0.0178674
  C        0.9797650    -0.0480790     0.0033120
  C       -1.2654920    -1.1739550     0.0157300
  C        0.2371350    -1.1840010    -0.0022480
  C        0.2779850     1.2351350     0.0170580
  C        2.4810890    -0.0479420    -0.0086670
  C       -1.0722470     1.2493700    -0.0013870
  H       -1.6715710    -1.7194360    -0.8464940
  H       -1.6521540    -1.6671500     0.9188080
  H        0.7071820    -2.1662500    -0.0128270
  H        0.8222450     2.1733070     0.0302890
  H        2.8758370     0.4671910     0.8740370
  H        2.8626870     0.4795000    -0.8898540
  H        2.8779460    -1.0666660    -0.0186730
  H       -1.6754580     2.1523000    -0.0063760
units angstrom
no_reorient  #important for SAPT in psi4, default
symmetry c1  #important for SAPT in psi4, default
}

set PROPERTIES_ORIGIN ["COM"]
properties('MP2/aug-cc-pvtz', properties = ['dipole'])
--------------------------------------------------------------------------

    Molecular point group: c1
  Charge       = 0
  Multiplicity = 1
  Basis Set: AUG-CC-PVTZ
    Blend: AUG-CC-PVTZ
  Basis Set: (AUG-CC-PVTZ AUX)
    Blend: AUG-CC-PVTZ-JKFIT

    Orbital Energies [Eh]
    ---------------------

    Doubly Occupied:

       1A    -20.584376     2A    -11.299126     3A    -11.293910
       4A    -11.246330     5A    -11.225418     6A    -11.224887
       7A    -11.214310     8A     -1.408942     9A     -1.104667
      10A     -1.036899    11A     -0.971083    12A     -0.877795
      13A     -0.827088    14A     -0.697264    15A     -0.675991
      16A     -0.657002    17A     -0.652945    18A     -0.588120
      19A     -0.572140    20A     -0.557251    21A     -0.551378
      22A     -0.516028    23A     -0.504589    24A     -0.466739
      25A     -0.408090    26A     -0.283214

  @DF-RHF Final Energy:  -306.79044690825719

   => Energetics <=

    Nuclear Repulsion Energy =            289.2153949816516842
    One-Electron Energy =                -989.1205234424852506
    Two-Electron Energy =                 393.1146815525763714
    Total Energy =                       -306.7904469082571950
  Basis Set: (AUG-CC-PVTZ AUX)
    Blend: AUG-CC-PVTZ-RI
    Molecular point group: c1

    Geometry (in Angstrom), charge = 0, multiplicity = 1:

       Center              X                  Y                   Z               Mass
    ------------   -----------------  -----------------  -----------------  -----------------
         O           -1.797338569384     0.141769340612     0.011406101677    15.994914619570
         C            1.028507730616    -0.064018759388    -0.003149298323    12.000000000000
         C           -1.216749269384    -1.189894759388     0.009268701677    12.000000000000
         C            0.285877730616    -1.199940759388    -0.008709298323    12.000000000000
         C            0.326727730616     1.219195240612     0.010596701677    12.000000000000
         C            2.529831730616    -0.063881759388    -0.015128298323    12.000000000000
         C           -1.023504269384     1.233430240612    -0.007848298323    12.000000000000
         H           -1.622828269384    -1.735375759388    -0.852955298323     1.007825032230
         H           -1.603411269384    -1.683089759388     0.912346701677     1.007825032230
         H            0.755924730616    -2.182189759388    -0.019288298323     1.007825032230
         H            0.870987730616     2.157367240612     0.023827701677     1.007825032230
         H            2.924579730616     0.451251240612     0.867575701677     1.007825032230
         H            2.911429730616     0.463560240612    -0.896315298323     1.007825032230
         H            2.926688730616    -1.082605759388    -0.025134298323     1.007825032230
         H           -1.626715269384     2.136360240612    -0.012837298323     1.007825032230

  Basis Set: AUG-CC-PVTZ
    Blend: AUG-CC-PVTZ
  Basis Set: (AUG-CC-PVTZ AUX)
    Blend: AUG-CC-PVTZ-JKFIT
	 Reference Energy          =    -306.7904469082571950 [Eh]
	 Singles Energy            =      -0.0000000000000000 [Eh]
	 Same-Spin Energy          =      -0.3155540978559885 [Eh]
	 Opposite-Spin Energy      =      -1.0400002021658370 [Eh]
	 Correlation Energy        =      -1.3555543000218255 [Eh]
	 Total Energy              =    -308.1460012082790172 [Eh]

	 ================> DF-SCS-MP2 Energies <==================
	-----------------------------------------------------------
	 SCS Same-Spin Scale       =       0.3333333333333333 [-]
	 SCS Opposite-Spin Scale   =       1.2000000000000000 [-]
	 SCS Same-Spin Energy      =      -0.1051846992853295 [Eh]
	 SCS Opposite-Spin Energy  =      -1.2480002425990044 [Eh]
	 SCS Correlation Energy    =      -1.3531849418843340 [Eh]
	 SCS Total Energy          =    -308.1436318501415030 [Eh]
	-----------------------------------------------------------

  Dipole Moment: [D]
     X:     0.7712      Y:    -0.5872      Z:    -0.0056     Total:     0.9693

*** Psi4 exiting successfully. Buy a developer a beer!
