                               Psi4 1.4a3.dev225

  ==> Input File <==

--------------------------------------------------------------------------
#psi4
#
memory 32 gb

molecule  {
0 1
  O       -1.8720150     0.1455040    -0.0239620
  C        0.9797650    -0.0480790     0.0033120
  C       -1.2654920    -1.1739550     0.0157300
  C        0.2371350    -1.1840010    -0.0022480
  C        0.2779850     1.2351350     0.0170580
  C        2.4810890    -0.0479420    -0.0086670
  C       -1.0709317     1.2964873    -0.0010796
  H       -1.6715710    -1.7194360    -0.8464940
  H       -1.6521540    -1.6671500     0.9188080
  H        0.7071820    -2.1662500    -0.0128270
  H        0.8222450     2.1733070     0.0302890
  H        2.8758370     0.4671910     0.8740370
  H        2.8626870     0.4795000    -0.8898540
  H        2.8779460    -1.0666660    -0.0186730
  H       -1.6754580     2.1523000    -0.0063760
units angstrom
no_reorient  #important for SAPT in psi4, default
symmetry c1  #important for SAPT in psi4, default
}

set PROPERTIES_ORIGIN ["COM"]
properties('MP2/aug-cc-pvtz', properties = ['dipole'])
--------------------------------------------------------------------------

    Molecular point group: c1
  Charge       = 0
  Multiplicity = 1
  Basis Set: AUG-CC-PVTZ
    Blend: AUG-CC-PVTZ
  Basis Set: (AUG-CC-PVTZ AUX)
    Blend: AUG-CC-PVTZ-JKFIT

    Orbital Energies [Eh]
    ---------------------

    Doubly Occupied:

       1A    -20.576065     2A    -11.297784     3A    -11.289745
       4A    -11.247708     5A    -11.228898     6A    -11.227121
       7A    -11.222705     8A     -1.379739     9A     -1.105997
      10A     -1.034550    11A     -0.971719    12A     -0.873150
      13A     -0.831744    14A     -0.692525    15A     -0.672514
      16A     -0.656890    17A     -0.643407    18A     -0.590333
      19A     -0.573625    20A     -0.554912    21A     -0.549478
      22A     -0.505524    23A     -0.502620    24A     -0.469848
      25A     -0.411059    26A     -0.288314

  @DF-RHF Final Energy:  -306.78624921640454

   => Energetics <=

    Nuclear Repulsion Energy =            287.7439893532995256
    One-Electron Energy =                -986.2645311207146506
    Two-Electron Energy =                 391.7342925510105829
    Total Energy =                       -306.7862492164045420
  Basis Set: (AUG-CC-PVTZ AUX)
    Blend: AUG-CC-PVTZ-RI
    Molecular point group: c1

    Geometry (in Angstrom), charge = 0, multiplicity = 1:

       Center              X                  Y                   Z               Mass
    ------------   -----------------  -----------------  -----------------  -----------------
         O           -1.819118261050     0.125710423782    -0.023496522397    15.994914619570
         C            1.032661738950    -0.067872576218     0.003777477603    12.000000000000
         C           -1.212595261050    -1.193748576218     0.016195477603    12.000000000000
         C            0.290031738950    -1.203794576218    -0.001782522397    12.000000000000
         C            0.330881738950     1.215341423782     0.017523477603    12.000000000000
         C            2.533985738950    -0.067735576218    -0.008201522397    12.000000000000
         C           -1.018034961050     1.276693723782    -0.000614122397    12.000000000000
         H           -1.618674261050    -1.739229576218    -0.846028522397     1.007825032230
         H           -1.599257261050    -1.686943576218     0.919273477603     1.007825032230
         H            0.760078738950    -2.186043576218    -0.012361522397     1.007825032230
         H            0.875141738950     2.153513423782     0.030754477603     1.007825032230
         H            2.928733738950     0.447397423782     0.874502477603     1.007825032230
         H            2.915583738950     0.459706423782    -0.889388522397     1.007825032230
         H            2.930842738950    -1.086459576218    -0.018207522397     1.007825032230
         H           -1.622561261050     2.132506423782    -0.005910522397     1.007825032230

  Basis Set: AUG-CC-PVTZ
    Blend: AUG-CC-PVTZ
  Basis Set: (AUG-CC-PVTZ AUX)
    Blend: AUG-CC-PVTZ-JKFIT
	 Reference Energy          =    -306.7862492164045420 [Eh]
	 Singles Energy            =      -0.0000000000000000 [Eh]
	 Same-Spin Energy          =      -0.3155272396581289 [Eh]
	 Opposite-Spin Energy      =      -1.0414950087102639 [Eh]
	 Correlation Energy        =      -1.3570222483683927 [Eh]
	 Total Energy              =    -308.1432714647729085 [Eh]

	 ================> DF-SCS-MP2 Energies <==================
	-----------------------------------------------------------
	 SCS Same-Spin Scale       =       0.3333333333333333 [-]
	 SCS Opposite-Spin Scale   =       1.2000000000000000 [-]
	 SCS Same-Spin Energy      =      -0.1051757465527096 [Eh]
	 SCS Opposite-Spin Energy  =      -1.2497940104523166 [Eh]
	 SCS Correlation Energy    =      -1.3549697570050263 [Eh]
	 SCS Total Energy          =    -308.1412189734095932 [Eh]
	-----------------------------------------------------------

  Dipole Moment: [D]
     X:     1.0525      Y:    -0.4117      Z:     0.0351     Total:     1.1307

*** Psi4 exiting successfully. Buy a developer a beer!
