                               Psi4 1.4a3.dev225

  ==> Input File <==

--------------------------------------------------------------------------
#psi4
#
memory 32 gb

molecule  {
0 1
  O       -1.8720150     0.1455040    -0.0239620
  C        0.9806776     0.0043170     0.0036565
  C       -1.2654920    -1.1739550     0.0157300
  C        0.2371350    -1.1840010    -0.0022480
  C        0.2779850     1.2351350     0.0170580
  C        2.4810890    -0.0479420    -0.0086670
  C       -1.0722470     1.2493700    -0.0013870
  H       -1.6715710    -1.7194360    -0.8464940
  H       -1.6521540    -1.6671500     0.9188080
  H        0.7071820    -2.1662500    -0.0128270
  H        0.8222450     2.1733070     0.0302890
  H        2.8758370     0.4671910     0.8740370
  H        2.8626870     0.4795000    -0.8898540
  H        2.8779460    -1.0666660    -0.0186730
  H       -1.6754580     2.1523000    -0.0063760
units angstrom
no_reorient  #important for SAPT in psi4, default
symmetry c1  #important for SAPT in psi4, default
}

set PROPERTIES_ORIGIN ["COM"]
properties('MP2/aug-cc-pvtz', properties = ['dipole'])
--------------------------------------------------------------------------

    Molecular point group: c1
  Charge       = 0
  Multiplicity = 1
  Basis Set: AUG-CC-PVTZ
    Blend: AUG-CC-PVTZ
  Basis Set: (AUG-CC-PVTZ AUX)
    Blend: AUG-CC-PVTZ-JKFIT

    Orbital Energies [Eh]
    ---------------------

    Doubly Occupied:

       1A    -20.585409     2A    -11.303236     3A    -11.290891
       4A    -11.250177     5A    -11.229751     6A    -11.226363
       7A    -11.216786     8A     -1.400102     9A     -1.107078
      10A     -1.034820    11A     -0.972518    12A     -0.868886
      13A     -0.834768    14A     -0.696286    15A     -0.675292
      16A     -0.657389    17A     -0.649459    18A     -0.582986
      19A     -0.573086    20A     -0.561245    21A     -0.552796
      22A     -0.511518    23A     -0.503089    24A     -0.471971
      25A     -0.411324    26A     -0.277061

  @DF-RHF Final Energy:  -306.78229991240954

   => Energetics <=

    Nuclear Repulsion Energy =            288.5160549730126718
    One-Electron Energy =                -987.7081325357647756
    Two-Electron Energy =                 392.4097776503425052
    Total Energy =                       -306.7822999124095418
  Basis Set: (AUG-CC-PVTZ AUX)
    Blend: AUG-CC-PVTZ-RI
    Molecular point group: c1

    Geometry (in Angstrom), charge = 0, multiplicity = 1:

       Center              X                  Y                   Z               Mass
    ------------   -----------------  -----------------  -----------------  -----------------
         O           -1.819067953690     0.125050981362    -0.023501157120    15.994914619570
         C            1.033624646310    -0.016136018638     0.004117342880    12.000000000000
         C           -1.212544953690    -1.194408018638     0.016190842880    12.000000000000
         C            0.290082046310    -1.204454018638    -0.001787157120    12.000000000000
         C            0.330932046310     1.214681981362     0.017518842880    12.000000000000
         C            2.534036046310    -0.068395018638    -0.008206157120    12.000000000000
         C           -1.019299953690     1.228916981362    -0.000926157120    12.000000000000
         H           -1.618623953690    -1.739889018638    -0.846033157120     1.007825032230
         H           -1.599206953690    -1.687603018638     0.919268842880     1.007825032230
         H            0.760129046310    -2.186703018638    -0.012366157120     1.007825032230
         H            0.875192046310     2.152853981362     0.030749842880     1.007825032230
         H            2.928784046310     0.446737981362     0.874497842880     1.007825032230
         H            2.915634046310     0.459046981362    -0.889393157120     1.007825032230
         H            2.930893046310    -1.087119018638    -0.018212157120     1.007825032230
         H           -1.622510953690     2.131846981362    -0.005915157120     1.007825032230

  Basis Set: AUG-CC-PVTZ
    Blend: AUG-CC-PVTZ
  Basis Set: (AUG-CC-PVTZ AUX)
    Blend: AUG-CC-PVTZ-JKFIT
	 Reference Energy          =    -306.7822999124095418 [Eh]
	 Singles Energy            =      -0.0000000000000000 [Eh]
	 Same-Spin Energy          =      -0.3168850437940899 [Eh]
	 Opposite-Spin Energy      =      -1.0426994605140705 [Eh]
	 Correlation Energy        =      -1.3595845043081605 [Eh]
	 Total Energy              =    -308.1418844167176871 [Eh]

	 ================> DF-SCS-MP2 Energies <==================
	-----------------------------------------------------------
	 SCS Same-Spin Scale       =       0.3333333333333333 [-]
	 SCS Opposite-Spin Scale   =       1.2000000000000000 [-]
	 SCS Same-Spin Energy      =      -0.1056283479313633 [Eh]
	 SCS Opposite-Spin Energy  =      -1.2512393526168846 [Eh]
	 SCS Correlation Energy    =      -1.3568677005482479 [Eh]
	 SCS Total Energy          =    -308.1391676129578059 [Eh]
	-----------------------------------------------------------

  Dipole Moment: [D]
     X:     0.8865      Y:    -0.4627      Z:     0.0326     Total:     1.0005

*** Psi4 exiting successfully. Buy a developer a beer!
