                               Psi4 1.4a3.dev225

  ==> Input File <==

--------------------------------------------------------------------------
#psi4
#
memory 32 gb

molecule  {
0 1
  O       -1.8720150     0.1455040    -0.0239620
  C        0.9797650    -0.0480790     0.0033120
  C       -1.2654920    -1.1739550     0.0157300
  C        0.2371350    -1.1840010    -0.0022480
  C        0.3019751     1.1912687     0.0165881
  C        2.4810890    -0.0479420    -0.0086670
  C       -1.0722470     1.2493700    -0.0013870
  H       -1.6715710    -1.7194360    -0.8464940
  H       -1.6521540    -1.6671500     0.9188080
  H        0.7071820    -2.1662500    -0.0128270
  H        0.8222450     2.1733070     0.0302890
  H        2.8758370     0.4671910     0.8740370
  H        2.8626870     0.4795000    -0.8898540
  H        2.8779460    -1.0666660    -0.0186730
  H       -1.6754580     2.1523000    -0.0063760
units angstrom
no_reorient  #important for SAPT in psi4, default
symmetry c1  #important for SAPT in psi4, default
}

set PROPERTIES_ORIGIN ["COM"]
properties('MP2/aug-cc-pvtz', properties = ['dipole'])
--------------------------------------------------------------------------

    Molecular point group: c1
  Charge       = 0
  Multiplicity = 1
  Basis Set: AUG-CC-PVTZ
    Blend: AUG-CC-PVTZ
  Basis Set: (AUG-CC-PVTZ AUX)
    Blend: AUG-CC-PVTZ-JKFIT

    Orbital Energies [Eh]
    ---------------------

    Doubly Occupied:

       1A    -20.584487     2A    -11.305623     3A    -11.292118
       4A    -11.243292     5A    -11.225669     6A    -11.225615
       7A    -11.219865     8A     -1.399835     9A     -1.112147
      10A     -1.031921    11A     -0.970236    12A     -0.874374
      13A     -0.834024    14A     -0.693997    15A     -0.675793
      16A     -0.654884    17A     -0.649748    18A     -0.585223
      19A     -0.573281    20A     -0.560494    21A     -0.545907
      22A     -0.510946    23A     -0.508269    24A     -0.469708
      25A     -0.414087    26A     -0.278699

  @DF-RHF Final Energy:  -306.78424068899335

   => Energetics <=

    Nuclear Repulsion Energy =            289.0197836469954495
    One-Electron Energy =                -988.7275596449293289
    Two-Electron Energy =                 392.9235353089404725
    Total Energy =                       -306.7842406889933500
  Basis Set: (AUG-CC-PVTZ AUX)
    Blend: AUG-CC-PVTZ-RI
    Molecular point group: c1

    Geometry (in Angstrom), charge = 0, multiplicity = 1:

       Center              X                  Y                   Z               Mass
    ------------   -----------------  -----------------  -----------------  -----------------
         O           -1.821950913970     0.137076564176    -0.023399418073    15.994914619570
         C            1.029829086030    -0.056506435824     0.003874581927    12.000000000000
         C           -1.215427913970    -1.182382435824     0.016292581927    12.000000000000
         C            0.287199086030    -1.192428435824    -0.001685418073    12.000000000000
         C            0.352039186030     1.182841264176     0.017150681927    12.000000000000
         C            2.531153086030    -0.056369435824    -0.008104418073    12.000000000000
         C           -1.022182913970     1.240942564176    -0.000824418073    12.000000000000
         H           -1.621506913970    -1.727863435824    -0.845931418073     1.007825032230
         H           -1.602089913970    -1.675577435824     0.919370581927     1.007825032230
         H            0.757246086030    -2.174677435824    -0.012264418073     1.007825032230
         H            0.872309086030     2.164879564176     0.030851581927     1.007825032230
         H            2.925901086030     0.458763564176     0.874599581927     1.007825032230
         H            2.912751086030     0.471072564176    -0.889291418073     1.007825032230
         H            2.928010086030    -1.075093435824    -0.018110418073     1.007825032230
         H           -1.625393913970     2.143872564176    -0.005813418073     1.007825032230

  Basis Set: AUG-CC-PVTZ
    Blend: AUG-CC-PVTZ
  Basis Set: (AUG-CC-PVTZ AUX)
    Blend: AUG-CC-PVTZ-JKFIT
	 Reference Energy          =    -306.7842406889933500 [Eh]
	 Singles Energy            =      -0.0000000000000000 [Eh]
	 Same-Spin Energy          =      -0.3167933163509394 [Eh]
	 Opposite-Spin Energy      =      -1.0423405717705800 [Eh]
	 Correlation Energy        =      -1.3591338881215194 [Eh]
	 Total Energy              =    -308.1433745771148551 [Eh]

	 ================> DF-SCS-MP2 Energies <==================
	-----------------------------------------------------------
	 SCS Same-Spin Scale       =       0.3333333333333333 [-]
	 SCS Opposite-Spin Scale   =       1.2000000000000000 [-]
	 SCS Same-Spin Energy      =      -0.1055977721169798 [Eh]
	 SCS Opposite-Spin Energy  =      -1.2508086861246961 [Eh]
	 SCS Correlation Energy    =      -1.3564064582416759 [Eh]
	 SCS Total Energy          =    -308.1406471472350290 [Eh]
	-----------------------------------------------------------

  Dipole Moment: [D]
     X:     0.8414      Y:    -0.4953      Z:     0.0313     Total:     0.9769

*** Psi4 exiting successfully. Buy a developer a beer!
