                               Psi4 1.4a3.dev225

  ==> Input File <==

--------------------------------------------------------------------------
#psi4
#
memory 32 gb

molecule  {
0 1
  O       -1.8720150     0.1455040    -0.0239620
  C        0.9797650    -0.0480790     0.0033120
  C       -1.2654920    -1.1739550     0.0157300
  C        0.1979445    -1.1573937    -0.0018436
  C        0.2779850     1.2351350     0.0170580
  C        2.4810890    -0.0479420    -0.0086670
  C       -1.0722470     1.2493700    -0.0013870
  H       -1.6715710    -1.7194360    -0.8464940
  H       -1.6521540    -1.6671500     0.9188080
  H        0.7071820    -2.1662500    -0.0128270
  H        0.8222450     2.1733070     0.0302890
  H        2.8758370     0.4671910     0.8740370
  H        2.8626870     0.4795000    -0.8898540
  H        2.8779460    -1.0666660    -0.0186730
  H       -1.6754580     2.1523000    -0.0063760
units angstrom
no_reorient  #important for SAPT in psi4, default
symmetry c1  #important for SAPT in psi4, default
}

set PROPERTIES_ORIGIN ["COM"]
properties('MP2/aug-cc-pvtz', properties = ['dipole'])
--------------------------------------------------------------------------

    Molecular point group: c1
  Charge       = 0
  Multiplicity = 1
  Basis Set: AUG-CC-PVTZ
    Blend: AUG-CC-PVTZ
  Basis Set: (AUG-CC-PVTZ AUX)
    Blend: AUG-CC-PVTZ-JKFIT

    Orbital Energies [Eh]
    ---------------------

    Doubly Occupied:

       1A    -20.582736     2A    -11.298752     3A    -11.291143
       4A    -11.246860     5A    -11.228143     6A    -11.227761
       7A    -11.217212     8A     -1.399069     9A     -1.107345
      10A     -1.038281    11A     -0.974877    12A     -0.874896
      13A     -0.828255    14A     -0.695032    15A     -0.671804
      16A     -0.654698    17A     -0.651016    18A     -0.587290
      19A     -0.573747    20A     -0.559368    21A     -0.549409
      22A     -0.512459    23A     -0.504230    24A     -0.469592
      25A     -0.410375    26A     -0.284052

  @DF-RHF Final Energy:  -306.78672171897864

   => Energetics <=

    Nuclear Repulsion Energy =            289.1098233315113930
    One-Electron Energy =                -988.9162857252773620
    Two-Electron Energy =                 393.0197406747873288
    Total Energy =                       -306.7867217189786402
  Basis Set: (AUG-CC-PVTZ AUX)
    Blend: AUG-CC-PVTZ-RI
    Molecular point group: c1

    Geometry (in Angstrom), charge = 0, multiplicity = 1:

       Center              X                  Y                   Z               Mass
    ------------   -----------------  -----------------  -----------------  -----------------
         O           -1.814058067679     0.128272638724    -0.023508640137    15.994914619570
         C            1.037721932321    -0.065310361276     0.003765359863    12.000000000000
         C           -1.207535067679    -1.191186361276     0.016183359863    12.000000000000
         C            0.255901432321    -1.174625061276    -0.001390240137    12.000000000000
         C            0.335941932321     1.217903638724     0.017511359863    12.000000000000
         C            2.539045932321    -0.065173361276    -0.008213640137    12.000000000000
         C           -1.014290067679     1.232138638724    -0.000933640137    12.000000000000
         H           -1.613614067679    -1.736667361276    -0.846040640137     1.007825032230
         H           -1.594197067679    -1.684381361276     0.919261359863     1.007825032230
         H            0.765138932321    -2.183481361276    -0.012373640137     1.007825032230
         H            0.880201932321     2.156075638724     0.030742359863     1.007825032230
         H            2.933793932321     0.449959638724     0.874490359863     1.007825032230
         H            2.920643932321     0.462268638724    -0.889400640137     1.007825032230
         H            2.935902932321    -1.083897361276    -0.018219640137     1.007825032230
         H           -1.617501067679     2.135068638724    -0.005922640137     1.007825032230

  Basis Set: AUG-CC-PVTZ
    Blend: AUG-CC-PVTZ
  Basis Set: (AUG-CC-PVTZ AUX)
    Blend: AUG-CC-PVTZ-JKFIT
	 Reference Energy          =    -306.7867217189786402 [Eh]
	 Singles Energy            =      -0.0000000000000000 [Eh]
	 Same-Spin Energy          =      -0.3160443684901925 [Eh]
	 Opposite-Spin Energy      =      -1.0412959270024078 [Eh]
	 Correlation Energy        =      -1.3573402954926004 [Eh]
	 Total Energy              =    -308.1440620144712170 [Eh]

	 ================> DF-SCS-MP2 Energies <==================
	-----------------------------------------------------------
	 SCS Same-Spin Scale       =       0.3333333333333333 [-]
	 SCS Opposite-Spin Scale   =       1.2000000000000000 [-]
	 SCS Same-Spin Energy      =      -0.1053481228300641 [Eh]
	 SCS Opposite-Spin Energy  =      -1.2495551124028894 [Eh]
	 SCS Correlation Energy    =      -1.3549032352329535 [Eh]
	 SCS Total Energy          =    -308.1416249542115793 [Eh]
	-----------------------------------------------------------

  Dipole Moment: [D]
     X:     0.9347      Y:    -0.5286      Z:     0.0328     Total:     1.0743

*** Psi4 exiting successfully. Buy a developer a beer!
