                               Psi4 1.4a3.dev225

  ==> Input File <==

--------------------------------------------------------------------------
#psi4
#
memory 32 gb

molecule  {
0 1
  O       -1.8720150     0.1455040    -0.0239620
  C        0.9797650    -0.0480790     0.0033120
  C       -1.2654920    -1.1739550     0.0157300
  C        0.2371350    -1.1840010    -0.0022480
  C        0.2779850     1.2351350     0.0170580
  C        2.4810890    -0.0479420    -0.0086670
  C       -1.0722878     1.2258013    -0.0015323
  H       -1.6715710    -1.7194360    -0.8464940
  H       -1.6521540    -1.6671500     0.9188080
  H        0.7071820    -2.1662500    -0.0128270
  H        0.8222450     2.1733070     0.0302890
  H        2.8758370     0.4671910     0.8740370
  H        2.8626870     0.4795000    -0.8898540
  H        2.8779460    -1.0666660    -0.0186730
  H       -1.6754580     2.1523000    -0.0063760
units angstrom
no_reorient  #important for SAPT in psi4, default
symmetry c1  #important for SAPT in psi4, default
}

set PROPERTIES_ORIGIN ["COM"]
properties('MP2/aug-cc-pvtz', properties = ['dipole'])
--------------------------------------------------------------------------

    Molecular point group: c1
  Charge       = 0
  Multiplicity = 1
  Basis Set: AUG-CC-PVTZ
    Blend: AUG-CC-PVTZ
  Basis Set: (AUG-CC-PVTZ AUX)
    Blend: AUG-CC-PVTZ-JKFIT

    Orbital Energies [Eh]
    ---------------------

    Doubly Occupied:

       1A    -20.587813     2A    -11.301523     3A    -11.292932
       4A    -11.246399     5A    -11.225641     6A    -11.225257
       7A    -11.216159     8A     -1.408941     9A     -1.106124
      10A     -1.034991    11A     -0.972166    12A     -0.877873
      13A     -0.825231    14A     -0.695679    15A     -0.675438
      16A     -0.656993    17A     -0.652920    18A     -0.583538
      19A     -0.572521    20A     -0.559329    21A     -0.553348
      22A     -0.515330    23A     -0.503679    24A     -0.468082
      25A     -0.409810    26A     -0.284131

  @DF-RHF Final Energy:  -306.78954836432411

   => Energetics <=

    Nuclear Repulsion Energy =            288.9407209265370966
    One-Electron Energy =                -988.5568467025933614
    Two-Electron Energy =                 392.8265774117321598
    Total Energy =                       -306.7895483643241050
  Basis Set: (AUG-CC-PVTZ AUX)
    Blend: AUG-CC-PVTZ-RI
    Molecular point group: c1

    Geometry (in Angstrom), charge = 0, multiplicity = 1:

       Center              X                  Y                   Z               Mass
    ------------   -----------------  -----------------  -----------------  -----------------
         O           -1.818948850047     0.134540883336    -0.023439968779    15.994914619570
         C            1.032831149953    -0.059042116664     0.003834031221    12.000000000000
         C           -1.212425850047    -1.184918116664     0.016252031221    12.000000000000
         C            0.290201149953    -1.194964116664    -0.001725968779    12.000000000000
         C            0.331051149953     1.224171883336     0.017580031221    12.000000000000
         C            2.534155149953    -0.058905116664    -0.008144968779    12.000000000000
         C           -1.019221650047     1.214838183336    -0.001010268779    12.000000000000
         H           -1.618504850047    -1.730399116664    -0.845971968779     1.007825032230
         H           -1.599087850047    -1.678113116664     0.919330031221     1.007825032230
         H            0.760248149953    -2.177213116664    -0.012304968779     1.007825032230
         H            0.875311149953     2.162343883336     0.030811031221     1.007825032230
         H            2.928903149953     0.456227883336     0.874559031221     1.007825032230
         H            2.915753149953     0.468536883336    -0.889331968779     1.007825032230
         H            2.931012149953    -1.077629116664    -0.018150968779     1.007825032230
         H           -1.622391850047     2.141336883336    -0.005853968779     1.007825032230

  Basis Set: AUG-CC-PVTZ
    Blend: AUG-CC-PVTZ
  Basis Set: (AUG-CC-PVTZ AUX)
    Blend: AUG-CC-PVTZ-JKFIT
	 Reference Energy          =    -306.7895483643241050 [Eh]
	 Singles Energy            =      -0.0000000000000000 [Eh]
	 Same-Spin Energy          =      -0.3156792008979650 [Eh]
	 Opposite-Spin Energy      =      -1.0405596560903114 [Eh]
	 Correlation Energy        =      -1.3562388569882764 [Eh]
	 Total Energy              =    -308.1457872213123892 [Eh]

	 ================> DF-SCS-MP2 Energies <==================
	-----------------------------------------------------------
	 SCS Same-Spin Scale       =       0.3333333333333333 [-]
	 SCS Opposite-Spin Scale   =       1.2000000000000000 [-]
	 SCS Same-Spin Energy      =      -0.1052264002993216 [Eh]
	 SCS Opposite-Spin Energy  =      -1.2486715873083736 [Eh]
	 SCS Correlation Energy    =      -1.3538979876076953 [Eh]
	 SCS Total Energy          =    -308.1434463519318001 [Eh]
	-----------------------------------------------------------

  Dipole Moment: [D]
     X:     0.8370      Y:    -0.5763      Z:     0.0313     Total:     1.0167

*** Psi4 exiting successfully. Buy a developer a beer!
