                               Psi4 1.4a3.dev225

  ==> Input File <==

--------------------------------------------------------------------------
#psi4
#
memory 32 gb

molecule  {
0 1
  O       -1.8720150     0.1455040    -0.0239620
  C        0.9797650    -0.0480790     0.0033120
  C       -1.2654920    -1.1739550     0.0157300
  C        0.2371350    -1.1840010    -0.0022480
  C        0.1820244     1.4106002     0.0189376
  C        2.4810890    -0.0479420    -0.0086670
  C       -1.0722470     1.2493700    -0.0013870
  H       -1.6715710    -1.7194360    -0.8464940
  H       -1.6521540    -1.6671500     0.9188080
  H        0.7071820    -2.1662500    -0.0128270
  H        0.8222450     2.1733070     0.0302890
  H        2.8758370     0.4671910     0.8740370
  H        2.8626870     0.4795000    -0.8898540
  H        2.8779460    -1.0666660    -0.0186730
  H       -1.6754580     2.1523000    -0.0063760
units angstrom
no_reorient  #important for SAPT in psi4, default
symmetry c1  #important for SAPT in psi4, default
}

set PROPERTIES_ORIGIN ["COM"]
properties('MP2/aug-cc-pvtz', properties = ['dipole'])
--------------------------------------------------------------------------

    Molecular point group: c1
  Charge       = 0
  Multiplicity = 1
  Basis Set: AUG-CC-PVTZ
    Blend: AUG-CC-PVTZ
  Basis Set: (AUG-CC-PVTZ AUX)
    Blend: AUG-CC-PVTZ-JKFIT

    Orbital Energies [Eh]
    ---------------------

    Doubly Occupied:

       1A    -20.584961     2A    -11.291169     3A    -11.284968
       4A    -11.254663     5A    -11.227940     6A    -11.227183
       7A    -11.215456     8A     -1.397411     9A     -1.090856
      10A     -1.049692    11A     -0.977228    12A     -0.882102
      13A     -0.808196    14A     -0.708341    15A     -0.671955
      16A     -0.663098    17A     -0.650086    18A     -0.591334
      19A     -0.571332    20A     -0.565841    21A     -0.548909
      22A     -0.514765    23A     -0.494768    24A     -0.437996
      25A     -0.401968    26A     -0.308721

  @DF-RHF Final Energy:  -306.75683242357076

   => Energetics <=

    Nuclear Repulsion Energy =            286.8121704394052927
    One-Electron Energy =                -984.2961227426206960
    Two-Electron Energy =                 390.7271198796445901
    Total Energy =                       -306.7568324235707564
  Basis Set: (AUG-CC-PVTZ AUX)
    Blend: AUG-CC-PVTZ-RI
    Molecular point group: c1

    Geometry (in Angstrom), charge = 0, multiplicity = 1:

       Center              X                  Y                   Z               Mass
    ------------   -----------------  -----------------  -----------------  -----------------
         O           -1.806966054099     0.109676542393    -0.023692929727    15.994914619570
         C            1.044813945901    -0.083906457607     0.003581070273    12.000000000000
         C           -1.200443054099    -1.209782457607     0.015999070273    12.000000000000
         C            0.302183945901    -1.219828457607    -0.001978929727    12.000000000000
         C            0.247073345901     1.374772742393     0.019206670273    12.000000000000
         C            2.546137945901    -0.083769457607    -0.008397929727    12.000000000000
         C           -1.007198054099     1.213542542393    -0.001117929727    12.000000000000
         H           -1.606522054099    -1.755263457607    -0.846224929727     1.007825032230
         H           -1.587105054099    -1.702977457607     0.919077070273     1.007825032230
         H            0.772230945901    -2.202077457607    -0.012557929727     1.007825032230
         H            0.887293945901     2.137479542393     0.030558070273     1.007825032230
         H            2.940885945901     0.431363542393     0.874306070273     1.007825032230
         H            2.927735945901     0.443672542393    -0.889584929727     1.007825032230
         H            2.942994945901    -1.102493457607    -0.018403929727     1.007825032230
         H           -1.610409054099     2.116472542393    -0.006106929727     1.007825032230

  Basis Set: AUG-CC-PVTZ
    Blend: AUG-CC-PVTZ
  Basis Set: (AUG-CC-PVTZ AUX)
    Blend: AUG-CC-PVTZ-JKFIT
	 Reference Energy          =    -306.7568324235707564 [Eh]
	 Singles Energy            =      -0.0000000000000000 [Eh]
	 Same-Spin Energy          =      -0.3135890268513946 [Eh]
	 Opposite-Spin Energy      =      -1.0390071506612579 [Eh]
	 Correlation Energy        =      -1.3525961775126525 [Eh]
	 Total Energy              =    -308.1094286010834367 [Eh]

	 ================> DF-SCS-MP2 Energies <==================
	-----------------------------------------------------------
	 SCS Same-Spin Scale       =       0.3333333333333333 [-]
	 SCS Opposite-Spin Scale   =       1.2000000000000000 [-]
	 SCS Same-Spin Energy      =      -0.1045296756171315 [Eh]
	 SCS Opposite-Spin Energy  =      -1.2468085807935094 [Eh]
	 SCS Correlation Energy    =      -1.3513382564106409 [Eh]
	 SCS Total Energy          =    -308.1081706799814128 [Eh]
	-----------------------------------------------------------

  Dipole Moment: [D]
     X:     1.1312      Y:    -0.5911      Z:     0.0369     Total:     1.2769

*** Psi4 exiting successfully. Buy a developer a beer!
