                               Psi4 1.4a3.dev225

  ==> Input File <==

--------------------------------------------------------------------------
#psi4
#
memory 32 gb

molecule  {
0 1
  O       -1.8720150     0.1455040    -0.0239620
  C        0.9879953    -0.2050108     0.0021928
  C       -1.2654920    -1.1739550     0.0157300
  C        0.2371350    -1.1840010    -0.0022480
  C        0.2779850     1.2351350     0.0170580
  C        2.4810890    -0.0479420    -0.0086670
  C       -1.0722470     1.2493700    -0.0013870
  H       -1.6715710    -1.7194360    -0.8464940
  H       -1.6521540    -1.6671500     0.9188080
  H        0.7071820    -2.1662500    -0.0128270
  H        0.8222450     2.1733070     0.0302890
  H        2.8758370     0.4671910     0.8740370
  H        2.8626870     0.4795000    -0.8898540
  H        2.8779460    -1.0666660    -0.0186730
  H       -1.6754580     2.1523000    -0.0063760
units angstrom
no_reorient  #important for SAPT in psi4, default
symmetry c1  #important for SAPT in psi4, default
}

set PROPERTIES_ORIGIN ["COM"]
properties('MP2/aug-cc-pvtz', properties = ['dipole'])
--------------------------------------------------------------------------

    Molecular point group: c1
  Charge       = 0
  Multiplicity = 1
  Basis Set: AUG-CC-PVTZ
    Blend: AUG-CC-PVTZ
  Basis Set: (AUG-CC-PVTZ AUX)
    Blend: AUG-CC-PVTZ-JKFIT

    Orbital Energies [Eh]
    ---------------------

    Doubly Occupied:

       1A    -20.580246     2A    -11.295081     3A    -11.292345
       4A    -11.237735     5A    -11.228014     6A    -11.220082
       7A    -11.214776     8A     -1.395719     9A     -1.115897
      10A     -1.030423    11A     -0.971631    12A     -0.898775
      13A     -0.806831    14A     -0.691977    15A     -0.665036
      16A     -0.655550    17A     -0.650833    18A     -0.599420
      19A     -0.574356    20A     -0.555894    21A     -0.550303
      22A     -0.511054    23A     -0.509794    24A     -0.436253
      25A     -0.415358    26A     -0.305430

  @DF-RHF Final Energy:  -306.76705140306706

   => Energetics <=

    Nuclear Repulsion Energy =            288.6378089011788575
    One-Electron Energy =                -987.9920963025699621
    Two-Electron Energy =                 392.5872359983239903
    Total Energy =                       -306.7670514030670574
  Basis Set: (AUG-CC-PVTZ AUX)
    Blend: AUG-CC-PVTZ-RI
    Molecular point group: c1

    Geometry (in Angstrom), charge = 0, multiplicity = 1:

       Center              X                  Y                   Z               Mass
    ------------   -----------------  -----------------  -----------------  -----------------
         O           -1.819982118502     0.151201289365    -0.023318304170    15.994914619570
         C            1.040028181498    -0.199313510635     0.002836495830    12.000000000000
         C           -1.213459118502    -1.168257710635     0.016373695830    12.000000000000
         C            0.289167881498    -1.178303710635    -0.001604304170    12.000000000000
         C            0.330017881498     1.240832289365     0.017701695830    12.000000000000
         C            2.533121881498    -0.042244710635    -0.008023304170    12.000000000000
         C           -1.020214118502     1.255067289365    -0.000743304170    12.000000000000
         H           -1.619538118502    -1.713738710635    -0.845850304170     1.007825032230
         H           -1.600121118502    -1.661452710635     0.919451695830     1.007825032230
         H            0.759214881498    -2.160552710635    -0.012183304170     1.007825032230
         H            0.874277881498     2.179004289365     0.030932695830     1.007825032230
         H            2.927869881498     0.472888289365     0.874680695830     1.007825032230
         H            2.914719881498     0.485197289365    -0.889210304170     1.007825032230
         H            2.929978881498    -1.060968710635    -0.018029304170     1.007825032230
         H           -1.623425118502     2.157997289365    -0.005732304170     1.007825032230

  Basis Set: AUG-CC-PVTZ
    Blend: AUG-CC-PVTZ
  Basis Set: (AUG-CC-PVTZ AUX)
    Blend: AUG-CC-PVTZ-JKFIT
	 Reference Energy          =    -306.7670514030670574 [Eh]
	 Singles Energy            =      -0.0000000000000000 [Eh]
	 Same-Spin Energy          =      -0.3136883291071273 [Eh]
	 Opposite-Spin Energy      =      -1.0382486104950117 [Eh]
	 Correlation Energy        =      -1.3519369396021390 [Eh]
	 Total Energy              =    -308.1189883426691836 [Eh]

	 ================> DF-SCS-MP2 Energies <==================
	-----------------------------------------------------------
	 SCS Same-Spin Scale       =       0.3333333333333333 [-]
	 SCS Opposite-Spin Scale   =       1.2000000000000000 [-]
	 SCS Same-Spin Energy      =      -0.1045627763690424 [Eh]
	 SCS Opposite-Spin Energy  =      -1.2458983325940141 [Eh]
	 SCS Correlation Energy    =      -1.3504611089630565 [Eh]
	 SCS Total Energy          =    -308.1175125120300891 [Eh]
	-----------------------------------------------------------

  Dipole Moment: [D]
     X:     0.9937      Y:    -0.7012      Z:     0.0318     Total:     1.2166

*** Psi4 exiting successfully. Buy a developer a beer!
