                               Psi4 1.4a3.dev225

  ==> Input File <==

--------------------------------------------------------------------------
#psi4
#
memory 32 gb

molecule  {
0 1
  O       -1.8720150     0.1455040    -0.0239620
  C        0.9797650    -0.0480790     0.0033120
  C       -1.2654920    -1.1739550     0.0157300
  C        0.2371350    -1.1840010    -0.0022480
  C        0.2779850     1.2351350     0.0170580
  C        2.4810890    -0.0479420    -0.0086670
  C       -1.0722470     1.2493700    -0.0013870
  H       -1.6345917    -1.6697622    -0.7679762
  H       -1.6521540    -1.6671500     0.9188080
  H        0.7071820    -2.1662500    -0.0128270
  H        0.8222450     2.1733070     0.0302890
  H        2.8758370     0.4671910     0.8740370
  H        2.8626870     0.4795000    -0.8898540
  H        2.8779460    -1.0666660    -0.0186730
  H       -1.6754580     2.1523000    -0.0063760
units angstrom
no_reorient  #important for SAPT in psi4, default
symmetry c1  #important for SAPT in psi4, default
}

set PROPERTIES_ORIGIN ["COM"]
properties('MP2/aug-cc-pvtz', properties = ['dipole'])
--------------------------------------------------------------------------

    Molecular point group: c1
  Charge       = 0
  Multiplicity = 1
  Basis Set: AUG-CC-PVTZ
    Blend: AUG-CC-PVTZ
  Basis Set: (AUG-CC-PVTZ AUX)
    Blend: AUG-CC-PVTZ-JKFIT

    Orbital Energies [Eh]
    ---------------------

    Doubly Occupied:

       1A    -20.582612     2A    -11.299552     3A    -11.279477
       4A    -11.246263     5A    -11.225717     6A    -11.225595
       7A    -11.217576     8A     -1.398201     9A     -1.105530
      10A     -1.039089    11A     -0.972907    12A     -0.881664
      13A     -0.827660    14A     -0.695466    15A     -0.676027
      16A     -0.659642    17A     -0.655886    18A     -0.587629
      19A     -0.572679    20A     -0.557495    21A     -0.552010
      22A     -0.517111    23A     -0.504309    24A     -0.468895
      25A     -0.409773    26A     -0.285597

  @DF-RHF Final Energy:  -306.78438660035943

   => Energetics <=

    Nuclear Repulsion Energy =            289.0553888082996536
    One-Electron Energy =                -988.7908249387619435
    Two-Electron Energy =                 392.9510495301028641
    Total Energy =                       -306.7843866003594258
  Basis Set: (AUG-CC-PVTZ AUX)
    Blend: AUG-CC-PVTZ-RI
    Molecular point group: c1

    Geometry (in Angstrom), charge = 0, multiplicity = 1:

       Center              X                  Y                   Z               Mass
    ------------   -----------------  -----------------  -----------------  -----------------
         O           -1.819341929800     0.131075387695    -0.024281920649    15.994914619570
         C            1.032438070200    -0.062507612305     0.002992079351    12.000000000000
         C           -1.212818929800    -1.188383612305     0.015410079351    12.000000000000
         C            0.289808070200    -1.198429612305    -0.002567920649    12.000000000000
         C            0.330658070200     1.220706387695     0.016738079351    12.000000000000
         C            2.533762070200    -0.062370612305    -0.008986920649    12.000000000000
         C           -1.019573929800     1.234941387695    -0.001706920649    12.000000000000
         H           -1.581918629800    -1.684190812305    -0.768296120649     1.007825032230
         H           -1.599480929800    -1.681578612305     0.918488079351     1.007825032230
         H            0.759855070200    -2.180678612305    -0.013146920649     1.007825032230
         H            0.874918070200     2.158878387695     0.029969079351     1.007825032230
         H            2.928510070200     0.452762387695     0.873717079351     1.007825032230
         H            2.915360070200     0.465071387695    -0.890173920649     1.007825032230
         H            2.930619070200    -1.081094612305    -0.018992920649     1.007825032230
         H           -1.622784929800     2.137871387695    -0.006695920649     1.007825032230

  Basis Set: AUG-CC-PVTZ
    Blend: AUG-CC-PVTZ
  Basis Set: (AUG-CC-PVTZ AUX)
    Blend: AUG-CC-PVTZ-JKFIT
	 Reference Energy          =    -306.7843866003594258 [Eh]
	 Singles Energy            =      -0.0000000000000000 [Eh]
	 Same-Spin Energy          =      -0.3154903439738792 [Eh]
	 Opposite-Spin Energy      =      -1.0402077438501214 [Eh]
	 Correlation Energy        =      -1.3556980878240006 [Eh]
	 Total Energy              =    -308.1400846881834354 [Eh]

	 ================> DF-SCS-MP2 Energies <==================
	-----------------------------------------------------------
	 SCS Same-Spin Scale       =       0.3333333333333333 [-]
	 SCS Opposite-Spin Scale   =       1.2000000000000000 [-]
	 SCS Same-Spin Energy      =      -0.1051634479912930 [Eh]
	 SCS Opposite-Spin Energy  =      -1.2482492926201456 [Eh]
	 SCS Correlation Energy    =      -1.3534127406114387 [Eh]
	 SCS Total Energy          =    -308.1377993409708438 [Eh]
	-----------------------------------------------------------

  Dipole Moment: [D]
     X:     0.8700      Y:    -0.5723      Z:     0.0033     Total:     1.0414

*** Psi4 exiting successfully. Buy a developer a beer!
