                               Psi4 1.4a3.dev225

  ==> Input File <==

--------------------------------------------------------------------------
#psi4
#
memory 32 gb

molecule  {
0 1
  O       -1.8972098     0.1316914    -0.0657430
  C        0.9797650    -0.0480790     0.0033120
  C       -1.2654920    -1.1739550     0.0157300
  C        0.2371350    -1.1840010    -0.0022480
  C        0.2779850     1.2351350     0.0170580
  C        2.4810890    -0.0479420    -0.0086670
  C       -1.0722470     1.2493700    -0.0013870
  H       -1.6715710    -1.7194360    -0.8464940
  H       -1.6521540    -1.6671500     0.9188080
  H        0.7071820    -2.1662500    -0.0128270
  H        0.8222450     2.1733070     0.0302890
  H        2.8758370     0.4671910     0.8740370
  H        2.8626870     0.4795000    -0.8898540
  H        2.8779460    -1.0666660    -0.0186730
  H       -1.6754580     2.1523000    -0.0063760
units angstrom
no_reorient  #important for SAPT in psi4, default
symmetry c1  #important for SAPT in psi4, default
}

set PROPERTIES_ORIGIN ["COM"]
properties('MP2/aug-cc-pvtz', properties = ['dipole'])
--------------------------------------------------------------------------

    Molecular point group: c1
  Charge       = 0
  Multiplicity = 1
  Basis Set: AUG-CC-PVTZ
    Blend: AUG-CC-PVTZ
  Basis Set: (AUG-CC-PVTZ AUX)
    Blend: AUG-CC-PVTZ-JKFIT

    Orbital Energies [Eh]
    ---------------------

    Doubly Occupied:

       1A    -20.583259     2A    -11.301087     3A    -11.289820
       4A    -11.247255     5A    -11.228079     6A    -11.226830
       7A    -11.222304     8A     -1.388617     9A     -1.107416
      10A     -1.032699    11A     -0.972830    12A     -0.874459
      13A     -0.827293    14A     -0.691079    15A     -0.672020
      16A     -0.657622    17A     -0.646151    18A     -0.583630
      19A     -0.573607    20A     -0.558079    21A     -0.553171
      22A     -0.507162    23A     -0.502067    24A     -0.471847
      25A     -0.412308    26A     -0.287904

  @DF-RHF Final Energy:  -306.78732087367098

   => Energetics <=

    Nuclear Repulsion Energy =            287.8411017676477286
    One-Electron Energy =                -986.4196549248683823
    Two-Electron Energy =                 391.7912322835496752
    Total Energy =                       -306.7873208736709785
  Basis Set: (AUG-CC-PVTZ AUX)
    Blend: AUG-CC-PVTZ-RI
    Molecular point group: c1

    Geometry (in Angstrom), charge = 0, multiplicity = 1:

       Center              X                  Y                   Z               Mass
    ------------   -----------------  -----------------  -----------------  -----------------
         O           -1.839953461748     0.120083950173    -0.058282001759    15.994914619570
         C            1.037021338252    -0.059686449827     0.010772998241    12.000000000000
         C           -1.208235661748    -1.185562449827     0.023190998241    12.000000000000
         C            0.294391338252    -1.195608449827     0.005212998241    12.000000000000
         C            0.335241338252     1.223527550173     0.024518998241    12.000000000000
         C            2.538345338252    -0.059549449827    -0.001206001759    12.000000000000
         C           -1.014990661748     1.237762550173     0.006073998241    12.000000000000
         H           -1.614314661748    -1.731043449827    -0.839033001759     1.007825032230
         H           -1.594897661748    -1.678757449827     0.926268998241     1.007825032230
         H            0.764438338252    -2.177857449827    -0.005366001759     1.007825032230
         H            0.879501338252     2.161699550173     0.037749998241     1.007825032230
         H            2.933093338252     0.455583550173     0.881497998241     1.007825032230
         H            2.919943338252     0.467892550173    -0.882393001759     1.007825032230
         H            2.935202338252    -1.078273449827    -0.011212001759     1.007825032230
         H           -1.618201661748     2.140692550173     0.001084998241     1.007825032230

  Basis Set: AUG-CC-PVTZ
    Blend: AUG-CC-PVTZ
  Basis Set: (AUG-CC-PVTZ AUX)
    Blend: AUG-CC-PVTZ-JKFIT
	 Reference Energy          =    -306.7873208736709785 [Eh]
	 Singles Energy            =      -0.0000000000000000 [Eh]
	 Same-Spin Energy          =      -0.3157073756198621 [Eh]
	 Opposite-Spin Energy      =      -1.0417533713227336 [Eh]
	 Correlation Energy        =      -1.3574607469425957 [Eh]
	 Total Energy              =    -308.1447816206135712 [Eh]

	 ================> DF-SCS-MP2 Energies <==================
	-----------------------------------------------------------
	 SCS Same-Spin Scale       =       0.3333333333333333 [-]
	 SCS Opposite-Spin Scale   =       1.2000000000000000 [-]
	 SCS Same-Spin Energy      =      -0.1052357918732874 [Eh]
	 SCS Opposite-Spin Energy  =      -1.2501040455872803 [Eh]
	 SCS Correlation Energy    =      -1.3553398374605676 [Eh]
	 SCS Total Energy          =    -308.1426607111315548 [Eh]
	-----------------------------------------------------------

  Dipole Moment: [D]
     X:     1.0470      Y:    -0.4476      Z:     0.0739     Total:     1.1410

*** Psi4 exiting successfully. Buy a developer a beer!
