                               Psi4 1.4a3.dev225

  ==> Input File <==

--------------------------------------------------------------------------
#psi4
#
memory 32 gb

molecule  {
0 1
  O       -1.8720150     0.1455040    -0.0239620
  C        0.9799946    -0.0742809     0.0031343
  C       -1.2654920    -1.1739550     0.0157300
  C        0.2371350    -1.1840010    -0.0022480
  C        0.2779850     1.2351350     0.0170580
  C        2.4810890    -0.0479420    -0.0086670
  C       -1.0722470     1.2493700    -0.0013870
  H       -1.6715710    -1.7194360    -0.8464940
  H       -1.6521540    -1.6671500     0.9188080
  H        0.7071820    -2.1662500    -0.0128270
  H        0.8222450     2.1733070     0.0302890
  H        2.8758370     0.4671910     0.8740370
  H        2.8626870     0.4795000    -0.8898540
  H        2.8779460    -1.0666660    -0.0186730
  H       -1.6754580     2.1523000    -0.0063760
units angstrom
no_reorient  #important for SAPT in psi4, default
symmetry c1  #important for SAPT in psi4, default
}

set PROPERTIES_ORIGIN ["COM"]
properties('MP2/aug-cc-pvtz', properties = ['dipole'])
--------------------------------------------------------------------------

    Molecular point group: c1
  Charge       = 0
  Multiplicity = 1
  Basis Set: AUG-CC-PVTZ
    Blend: AUG-CC-PVTZ
  Basis Set: (AUG-CC-PVTZ AUX)
    Blend: AUG-CC-PVTZ-JKFIT

    Orbital Energies [Eh]
    ---------------------

    Doubly Occupied:

       1A    -20.583173     2A    -11.298693     3A    -11.292353
       4A    -11.245117     5A    -11.226150     6A    -11.224613
       7A    -11.218821     8A     -1.398277     9A     -1.106343
      10A     -1.034398    11A     -0.971782    12A     -0.880027
      13A     -0.823472    14A     -0.693176    15A     -0.672457
      16A     -0.657629    17A     -0.649908    18A     -0.587623
      19A     -0.572893    20A     -0.556501    21A     -0.552182
      22A     -0.511070    23A     -0.504967    24A     -0.466146
      25A     -0.410114    26A     -0.289433

  @DF-RHF Final Energy:  -306.79068901266879

   => Energetics <=

    Nuclear Repulsion Energy =            288.5468568587035634
    One-Electron Energy =                -987.8204522157075189
    Two-Electron Energy =                 392.4829063443351629
    Total Energy =                       -306.7906890126687927
  Basis Set: (AUG-CC-PVTZ AUX)
    Blend: AUG-CC-PVTZ-RI
    Molecular point group: c1

    Geometry (in Angstrom), charge = 0, multiplicity = 1:

       Center              X                  Y                   Z               Mass
    ------------   -----------------  -----------------  -----------------  -----------------
         O           -1.818982629809     0.134869836256    -0.023435921204    15.994914619570
         C            1.033026970191    -0.084915063744     0.003660378796    12.000000000000
         C           -1.212459629809    -1.184589163744     0.016256078796    12.000000000000
         C            0.290167370191    -1.194635163744    -0.001721921204    12.000000000000
         C            0.331017370191     1.224500836256     0.017584078796    12.000000000000
         C            2.534121370191    -0.058576163744    -0.008140921204    12.000000000000
         C           -1.019214629809     1.238735836256    -0.000860921204    12.000000000000
         H           -1.618538629809    -1.730070163744    -0.845967921204     1.007825032230
         H           -1.599121629809    -1.677784163744     0.919334078796     1.007825032230
         H            0.760214370191    -2.176884163744    -0.012300921204     1.007825032230
         H            0.875277370191     2.162672836256     0.030815078796     1.007825032230
         H            2.928869370191     0.456556836256     0.874563078796     1.007825032230
         H            2.915719370191     0.468865836256    -0.889327921204     1.007825032230
         H            2.930978370191    -1.077300163744    -0.018146921204     1.007825032230
         H           -1.622425629809     2.141665836256    -0.005849921204     1.007825032230

  Basis Set: AUG-CC-PVTZ
    Blend: AUG-CC-PVTZ
  Basis Set: (AUG-CC-PVTZ AUX)
    Blend: AUG-CC-PVTZ-JKFIT
	 Reference Energy          =    -306.7906890126687927 [Eh]
	 Singles Energy            =      -0.0000000000000000 [Eh]
	 Same-Spin Energy          =      -0.3150833332266907 [Eh]
	 Opposite-Spin Energy      =      -1.0400672101386268 [Eh]
	 Correlation Energy        =      -1.3551505433653175 [Eh]
	 Total Energy              =    -308.1458395560341046 [Eh]

	 ================> DF-SCS-MP2 Energies <==================
	-----------------------------------------------------------
	 SCS Same-Spin Scale       =       0.3333333333333333 [-]
	 SCS Opposite-Spin Scale   =       1.2000000000000000 [-]
	 SCS Same-Spin Energy      =      -0.1050277777422302 [Eh]
	 SCS Opposite-Spin Energy  =      -1.2480806521663521 [Eh]
	 SCS Correlation Energy    =      -1.3531084299085823 [Eh]
	 SCS Total Energy          =    -308.1437974425773518 [Eh]
	-----------------------------------------------------------

  Dipole Moment: [D]
     X:     0.9191      Y:    -0.5488      Z:     0.0325     Total:     1.0710

*** Psi4 exiting successfully. Buy a developer a beer!
