                               Psi4 1.4a3.dev225

  ==> Input File <==

--------------------------------------------------------------------------
#psi4
#
memory 32 gb

molecule  {
0 1
  O       -1.8720150     0.1455040    -0.0239620
  C        0.9797650    -0.0480790     0.0033120
  C       -1.2654920    -1.1739550     0.0157300
  C        0.2371350    -1.1840010    -0.0022480
  C        0.2779850     1.2351350     0.0170580
  C        2.4810890    -0.0479420    -0.0086670
  C       -1.0679729     1.3435298    -0.0007501
  H       -1.6715710    -1.7194360    -0.8464940
  H       -1.6521540    -1.6671500     0.9188080
  H        0.7071820    -2.1662500    -0.0128270
  H        0.8222450     2.1733070     0.0302890
  H        2.8758370     0.4671910     0.8740370
  H        2.8626870     0.4795000    -0.8898540
  H        2.8779460    -1.0666660    -0.0186730
  H       -1.6754580     2.1523000    -0.0063760
units angstrom
no_reorient  #important for SAPT in psi4, default
symmetry c1  #important for SAPT in psi4, default
}

set PROPERTIES_ORIGIN ["COM"]
properties('MP2/aug-cc-pvtz', properties = ['dipole'])
--------------------------------------------------------------------------

    Molecular point group: c1
  Charge       = 0
  Multiplicity = 1
  Basis Set: AUG-CC-PVTZ
    Blend: AUG-CC-PVTZ
  Basis Set: (AUG-CC-PVTZ AUX)
    Blend: AUG-CC-PVTZ-JKFIT

    Orbital Energies [Eh]
    ---------------------

    Doubly Occupied:

       1A    -20.568344     2A    -11.296079     3A    -11.287658
       4A    -11.248731     5A    -11.231397     6A    -11.228172
       7A    -11.227624     8A     -1.362065     9A     -1.106266
      10A     -1.034825    11A     -0.971575    12A     -0.870449
      13A     -0.837120    14A     -0.694838    15A     -0.673286
      16A     -0.652910    17A     -0.637699    18A     -0.593902
      19A     -0.574421    20A     -0.553005    21A     -0.545635
      22A     -0.507183    23A     -0.494617    24A     -0.467252
      25A     -0.412060    26A     -0.291304

  @DF-RHF Final Energy:  -306.77777424759864

   => Energetics <=

    Nuclear Repulsion Energy =            286.9857247390183375
    One-Electron Energy =                -984.7901636671506367
    Two-Electron Energy =                 391.0266646805336563
    Total Energy =                       -306.7777742475986429
  Basis Set: (AUG-CC-PVTZ AUX)
    Blend: AUG-CC-PVTZ-RI
    Molecular point group: c1

    Geometry (in Angstrom), charge = 0, multiplicity = 1:

       Center              X                  Y                   Z               Mass
    ------------   -----------------  -----------------  -----------------  -----------------
         O           -1.819487889601     0.119833632146    -0.023537685236    15.994914619570
         C            1.032292110399    -0.073749367854     0.003736314764    12.000000000000
         C           -1.212964889601    -1.199625367854     0.016154314764    12.000000000000
         C            0.289662110399    -1.209671367854    -0.001823685236    12.000000000000
         C            0.330512110399     1.209464632146     0.017482314764    12.000000000000
         C            2.533616110399    -0.073612367854    -0.008242685236    12.000000000000
         C           -1.015445789601     1.317859432146    -0.000325785236    12.000000000000
         H           -1.619043889601    -1.745106367854    -0.846069685236     1.007825032230
         H           -1.599626889601    -1.692820367854     0.919232314764     1.007825032230
         H            0.759709110399    -2.191920367854    -0.012402685236     1.007825032230
         H            0.874772110399     2.147636632146     0.030713314764     1.007825032230
         H            2.928364110399     0.441520632146     0.874461314764     1.007825032230
         H            2.915214110399     0.453829632146    -0.889429685236     1.007825032230
         H            2.930473110399    -1.092336367854    -0.018248685236     1.007825032230
         H           -1.622930889601     2.126629632146    -0.005951685236     1.007825032230

  Basis Set: AUG-CC-PVTZ
    Blend: AUG-CC-PVTZ
  Basis Set: (AUG-CC-PVTZ AUX)
    Blend: AUG-CC-PVTZ-JKFIT
	 Reference Energy          =    -306.7777742475986429 [Eh]
	 Singles Energy            =      -0.0000000000000000 [Eh]
	 Same-Spin Energy          =      -0.3155487780094611 [Eh]
	 Opposite-Spin Energy      =      -1.0424135620463810 [Eh]
	 Correlation Energy        =      -1.3579623400558420 [Eh]
	 Total Energy              =    -308.1357365876544918 [Eh]

	 ================> DF-SCS-MP2 Energies <==================
	-----------------------------------------------------------
	 SCS Same-Spin Scale       =       0.3333333333333333 [-]
	 SCS Opposite-Spin Scale   =       1.2000000000000000 [-]
	 SCS Same-Spin Energy      =      -0.1051829260031537 [Eh]
	 SCS Opposite-Spin Energy  =      -1.2508962744556571 [Eh]
	 SCS Correlation Energy    =      -1.3560792004588107 [Eh]
	 SCS Total Energy          =    -308.1338534480574367 [Eh]
	-----------------------------------------------------------

  Dipole Moment: [D]
     X:     1.2017      Y:    -0.3113      Z:     0.0376     Total:     1.2419

*** Psi4 exiting successfully. Buy a developer a beer!
