                               Psi4 1.4a3.dev225

  ==> Input File <==

--------------------------------------------------------------------------
#psi4
#
memory 32 gb

molecule  {
0 1
  O       -1.8720150     0.1455040    -0.0239620
  C        0.9797650    -0.0480790     0.0033120
  C       -1.2583200    -1.3310866     0.0148492
  C        0.2371350    -1.1840010    -0.0022480
  C        0.2779850     1.2351350     0.0170580
  C        2.4810890    -0.0479420    -0.0086670
  C       -1.0722470     1.2493700    -0.0013870
  H       -1.6715710    -1.7194360    -0.8464940
  H       -1.6521540    -1.6671500     0.9188080
  H        0.7071820    -2.1662500    -0.0128270
  H        0.8222450     2.1733070     0.0302890
  H        2.8758370     0.4671910     0.8740370
  H        2.8626870     0.4795000    -0.8898540
  H        2.8779460    -1.0666660    -0.0186730
  H       -1.6754580     2.1523000    -0.0063760
units angstrom
no_reorient  #important for SAPT in psi4, default
symmetry c1  #important for SAPT in psi4, default
}

set PROPERTIES_ORIGIN ["COM"]
properties('MP2/aug-cc-pvtz', properties = ['dipole'])
--------------------------------------------------------------------------

    Molecular point group: c1
  Charge       = 0
  Multiplicity = 1
  Basis Set: AUG-CC-PVTZ
    Blend: AUG-CC-PVTZ
  Basis Set: (AUG-CC-PVTZ AUX)
    Blend: AUG-CC-PVTZ-JKFIT

    Orbital Energies [Eh]
    ---------------------

    Doubly Occupied:

       1A    -20.567867     2A    -11.297407     3A    -11.295184
       4A    -11.251776     5A    -11.227208     6A    -11.226332
       7A    -11.210008     8A     -1.358978     9A     -1.103465
      10A     -1.033788    11A     -0.972853    12A     -0.880905
      13A     -0.818923    14A     -0.682527    15A     -0.670052
      16A     -0.661957    17A     -0.650594    18A     -0.585254
      19A     -0.574092    20A     -0.546732    21A     -0.539860
      22A     -0.526411    23A     -0.509805    24A     -0.452285
      25A     -0.405244    26A     -0.286392

  @DF-RHF Final Energy:  -306.76885963945045

   => Energetics <=

    Nuclear Repulsion Energy =            286.2284049227995411
    One-Electron Energy =                -983.3227351955237054
    Two-Electron Energy =                 390.3254706332737101
    Total Energy =                       -306.7688596394504543
  Basis Set: (AUG-CC-PVTZ AUX)
    Blend: AUG-CC-PVTZ-RI
    Molecular point group: c1

    Geometry (in Angstrom), charge = 0, multiplicity = 1:

       Center              X                  Y                   Z               Mass
    ------------   -----------------  -----------------  -----------------  -----------------
         O           -1.819849910210     0.151226249411    -0.023348086327    15.994914619570
         C            1.031930089790    -0.042356750589     0.003925913673    12.000000000000
         C           -1.206154910210    -1.325364350589     0.015463113673    12.000000000000
         C            0.289300089790    -1.178278750589    -0.001634086327    12.000000000000
         C            0.330150089790     1.240857249411     0.017671913673    12.000000000000
         C            2.533254089790    -0.042219750589    -0.008053086327    12.000000000000
         C           -1.020081910210     1.255092249411    -0.000773086327    12.000000000000
         H           -1.619405910210    -1.713713750589    -0.845880086327     1.007825032230
         H           -1.599988910210    -1.661427750589     0.919421913673     1.007825032230
         H            0.759347089790    -2.160527750589    -0.012213086327     1.007825032230
         H            0.874410089790     2.179029249411     0.030902913673     1.007825032230
         H            2.928002089790     0.472913249411     0.874650913673     1.007825032230
         H            2.914852089790     0.485222249411    -0.889240086327     1.007825032230
         H            2.930111089790    -1.060943750589    -0.018059086327     1.007825032230
         H           -1.623292910210     2.158022249411    -0.005762086327     1.007825032230

  Basis Set: AUG-CC-PVTZ
    Blend: AUG-CC-PVTZ
  Basis Set: (AUG-CC-PVTZ AUX)
    Blend: AUG-CC-PVTZ-JKFIT
	 Reference Energy          =    -306.7688596394504543 [Eh]
	 Singles Energy            =      -0.0000000000000000 [Eh]
	 Same-Spin Energy          =      -0.3162909254904294 [Eh]
	 Opposite-Spin Energy      =      -1.0432364122287310 [Eh]
	 Correlation Energy        =      -1.3595273377191603 [Eh]
	 Total Energy              =    -308.1283869771696118 [Eh]

	 ================> DF-SCS-MP2 Energies <==================
	-----------------------------------------------------------
	 SCS Same-Spin Scale       =       0.3333333333333333 [-]
	 SCS Opposite-Spin Scale   =       1.2000000000000000 [-]
	 SCS Same-Spin Energy      =      -0.1054303084968098 [Eh]
	 SCS Opposite-Spin Energy  =      -1.2518836946744771 [Eh]
	 SCS Correlation Energy    =      -1.3573140031712869 [Eh]
	 SCS Total Energy          =    -308.1261736426217226 [Eh]
	-----------------------------------------------------------

  Dipole Moment: [D]
     X:     0.8571      Y:    -0.9667      Z:     0.0450     Total:     1.2927

*** Psi4 exiting successfully. Buy a developer a beer!
