                               Psi4 1.4a3.dev225

  ==> Input File <==

--------------------------------------------------------------------------
#psi4
#
memory 32 gb

molecule  {
0 1
  O       -1.8720150     0.1455040    -0.0239620
  C        0.9797650    -0.0480790     0.0033120
  C       -1.2654920    -1.1739550     0.0157300
  C        0.2371350    -1.1840010    -0.0022480
  C        0.2779850     1.2351350     0.0170580
  C        2.4810890    -0.0479420    -0.0086670
  C       -1.0722470     1.2493700    -0.0013870
  H       -1.6715710    -1.7194360    -0.8464940
  H       -1.6521540    -1.6671500     0.9188080
  H        0.7071820    -2.1662500    -0.0128270
  H        0.8222450     2.1733070     0.0302890
  H        2.9478972     0.5612271     1.0351722
  H        2.8626870     0.4795000    -0.8898540
  H        2.8779460    -1.0666660    -0.0186730
  H       -1.6754580     2.1523000    -0.0063760
units angstrom
no_reorient  #important for SAPT in psi4, default
symmetry c1  #important for SAPT in psi4, default
}

set PROPERTIES_ORIGIN ["COM"]
properties('MP2/aug-cc-pvtz', properties = ['dipole'])
--------------------------------------------------------------------------

    Molecular point group: c1
  Charge       = 0
  Multiplicity = 1
  Basis Set: AUG-CC-PVTZ
    Blend: AUG-CC-PVTZ
  Basis Set: (AUG-CC-PVTZ AUX)
    Blend: AUG-CC-PVTZ-JKFIT

    Orbital Energies [Eh]
    ---------------------

    Doubly Occupied:

       1A    -20.584563     2A    -11.300465     3A    -11.293260
       4A    -11.249344     5A    -11.248615     6A    -11.229041
       7A    -11.218638     8A     -1.399609     9A     -1.106247
      10A     -1.035732    11A     -0.964296    12A     -0.874466
      13A     -0.825465    14A     -0.693746    15A     -0.674884
      16A     -0.658067    17A     -0.650548    18A     -0.586479
      19A     -0.562069    20A     -0.559047    21A     -0.534769
      22A     -0.512061    23A     -0.499727    24A     -0.470680
      25A     -0.407209    26A     -0.286431

  @DF-RHF Final Energy:  -306.77010833519802

   => Energetics <=

    Nuclear Repulsion Energy =            287.7840829862466308
    One-Electron Energy =                -986.2574715436172710
    Two-Electron Energy =                 391.7032802221726229
    Total Energy =                       -306.7701083351980174
  Basis Set: (AUG-CC-PVTZ AUX)
    Blend: AUG-CC-PVTZ-RI
    Molecular point group: c1

    Geometry (in Angstrom), charge = 0, multiplicity = 1:

       Center              X                  Y                   Z               Mass
    ------------   -----------------  -----------------  -----------------  -----------------
         O           -1.819709994799     0.130609943253    -0.025148733453    15.994914619570
         C            1.032070005201    -0.062973056747     0.002125266547    12.000000000000
         C           -1.213186994799    -1.188849056747     0.014543266547    12.000000000000
         C            0.289440005201    -1.198895056747    -0.003434733453    12.000000000000
         C            0.330290005201     1.220240943253     0.015871266547    12.000000000000
         C            2.533394005201    -0.062836056747    -0.009853733453    12.000000000000
         C           -1.019941994799     1.234475943253    -0.002573733453    12.000000000000
         H           -1.619265994799    -1.734330056747    -0.847680733453     1.007825032230
         H           -1.599848994799    -1.682044056747     0.917621266547     1.007825032230
         H            0.759487005201    -2.181144056747    -0.014013733453     1.007825032230
         H            0.874550005201     2.158412943253     0.029102266547     1.007825032230
         H            3.000202205201     0.546333043253     1.033985466547     1.007825032230
         H            2.914992005201     0.464605943253    -0.891040733453     1.007825032230
         H            2.930251005201    -1.081560056747    -0.019859733453     1.007825032230
         H           -1.623152994799     2.137405943253    -0.007562733453     1.007825032230

  Basis Set: AUG-CC-PVTZ
    Blend: AUG-CC-PVTZ
  Basis Set: (AUG-CC-PVTZ AUX)
    Blend: AUG-CC-PVTZ-JKFIT
	 Reference Energy          =    -306.7701083351980174 [Eh]
	 Singles Energy            =      -0.0000000000000000 [Eh]
	 Same-Spin Energy          =      -0.3155661876098032 [Eh]
	 Opposite-Spin Energy      =      -1.0422655177287496 [Eh]
	 Correlation Energy        =      -1.3578317053385529 [Eh]
	 Total Energy              =    -308.1279400405365436 [Eh]

	 ================> DF-SCS-MP2 Energies <==================
	-----------------------------------------------------------
	 SCS Same-Spin Scale       =       0.3333333333333333 [-]
	 SCS Opposite-Spin Scale   =       1.2000000000000000 [-]
	 SCS Same-Spin Energy      =      -0.1051887292032677 [Eh]
	 SCS Opposite-Spin Energy  =      -1.2507186212744996 [Eh]
	 SCS Correlation Energy    =      -1.3559073504777672 [Eh]
	 SCS Total Energy          =    -308.1260156856757817 [Eh]
	-----------------------------------------------------------

  Dipole Moment: [D]
     X:     0.7936      Y:    -0.5898      Z:    -0.0550     Total:     0.9903

*** Psi4 exiting successfully. Buy a developer a beer!
