                               Psi4 1.4a3.dev225

  ==> Input File <==

--------------------------------------------------------------------------
#psi4
#
memory 32 gb

molecule  {
0 1
  O       -1.8720150     0.1455040    -0.0239620
  C        0.9797650    -0.0480790     0.0033120
  C       -1.2654920    -1.1739550     0.0157300
  C        0.2371350    -1.1840010    -0.0022480
  C        0.2779850     1.2351350     0.0170580
  C        2.4810890    -0.0479420    -0.0086670
  C       -1.0663262     1.1081438    -0.0021729
  H       -1.6715710    -1.7194360    -0.8464940
  H       -1.6521540    -1.6671500     0.9188080
  H        0.7071820    -2.1662500    -0.0128270
  H        0.8222450     2.1733070     0.0302890
  H        2.8758370     0.4671910     0.8740370
  H        2.8626870     0.4795000    -0.8898540
  H        2.8779460    -1.0666660    -0.0186730
  H       -1.6754580     2.1523000    -0.0063760
units angstrom
no_reorient  #important for SAPT in psi4, default
symmetry c1  #important for SAPT in psi4, default
}

set PROPERTIES_ORIGIN ["COM"]
properties('MP2/aug-cc-pvtz', properties = ['dipole'])
--------------------------------------------------------------------------

    Molecular point group: c1
  Charge       = 0
  Multiplicity = 1
  Basis Set: AUG-CC-PVTZ
    Blend: AUG-CC-PVTZ
  Basis Set: (AUG-CC-PVTZ AUX)
    Blend: AUG-CC-PVTZ-JKFIT

    Orbital Energies [Eh]
    ---------------------

    Doubly Occupied:

       1A    -20.608120     2A    -11.310679     3A    -11.298764
       4A    -11.245106     5A    -11.223633     6A    -11.219899
       7A    -11.208011     8A     -1.464077     9A     -1.108253
      10A     -1.037974    11A     -0.973736    12A     -0.887167
      13A     -0.818569    14A     -0.710039    15A     -0.688328
      16A     -0.675084    17A     -0.649897    18A     -0.583331
      19A     -0.571183    20A     -0.559605    21A     -0.552458
      22A     -0.535789    23A     -0.504564    24A     -0.449762
      25A     -0.408896    26A     -0.278417

  @DF-RHF Final Energy:  -306.76867718435795

   => Energetics <=

    Nuclear Repulsion Energy =            291.0740391181794848
    One-Electron Energy =                -992.5427563070973065
    Two-Electron Energy =                 394.7000400045598667
    Total Energy =                       -306.7686771843579550
  Basis Set: (AUG-CC-PVTZ AUX)
    Blend: AUG-CC-PVTZ-RI
    Molecular point group: c1

    Geometry (in Angstrom), charge = 0, multiplicity = 1:

       Center              X                  Y                   Z               Mass
    ------------   -----------------  -----------------  -----------------  -----------------
         O           -1.819693603855     0.149239264840    -0.023359941724    15.994914619570
         C            1.032086396145    -0.044343735160     0.003914058276    12.000000000000
         C           -1.213170603855    -1.170219735160     0.016332058276    12.000000000000
         C            0.289456396145    -1.180265735160    -0.001645941724    12.000000000000
         C            0.330306396145     1.238870264840     0.017660058276    12.000000000000
         C            2.533410396145    -0.044206735160    -0.008064941724    12.000000000000
         C           -1.014004803855     1.111879064840    -0.001570841724    12.000000000000
         H           -1.619249603855    -1.715700735160    -0.845891941724     1.007825032230
         H           -1.599832603855    -1.663414735160     0.919410058276     1.007825032230
         H            0.759503396145    -2.162514735160    -0.012224941724     1.007825032230
         H            0.874566396145     2.177042264840     0.030891058276     1.007825032230
         H            2.928158396145     0.470926264840     0.874639058276     1.007825032230
         H            2.915008396145     0.483235264840    -0.889251941724     1.007825032230
         H            2.930267396145    -1.062930735160    -0.018070941724     1.007825032230
         H           -1.623136603855     2.156035264840    -0.005773941724     1.007825032230

  Basis Set: AUG-CC-PVTZ
    Blend: AUG-CC-PVTZ
  Basis Set: (AUG-CC-PVTZ AUX)
    Blend: AUG-CC-PVTZ-JKFIT
	 Reference Energy          =    -306.7686771843579550 [Eh]
	 Singles Energy            =      -0.0000000000000000 [Eh]
	 Same-Spin Energy          =      -0.3163854803257523 [Eh]
	 Opposite-Spin Energy      =      -1.0401955016713518 [Eh]
	 Correlation Energy        =      -1.3565809819971040 [Eh]
	 Total Energy              =    -308.1252581663550814 [Eh]

	 ================> DF-SCS-MP2 Energies <==================
	-----------------------------------------------------------
	 SCS Same-Spin Scale       =       0.3333333333333333 [-]
	 SCS Opposite-Spin Scale   =       1.2000000000000000 [-]
	 SCS Same-Spin Energy      =      -0.1054618267752507 [Eh]
	 SCS Opposite-Spin Energy  =      -1.2482346020056221 [Eh]
	 SCS Correlation Energy    =      -1.3536964287808728 [Eh]
	 SCS Total Energy          =    -308.1223736131388478 [Eh]
	-----------------------------------------------------------

  Dipole Moment: [D]
     X:     0.5248      Y:    -0.9050      Z:     0.0252     Total:     1.0465

*** Psi4 exiting successfully. Buy a developer a beer!
