                               Psi4 1.4a3.dev225

  ==> Input File <==

--------------------------------------------------------------------------
#psi4
#
memory 32 gb

molecule  {
0 1
  O       -1.8720150     0.1455040    -0.0239620
  C        0.9797650    -0.0480790     0.0033120
  C       -1.2654920    -1.1739550     0.0157300
  C        0.2371350    -1.1840010    -0.0022480
  C        0.2779850     1.2351350     0.0170580
  C        2.4810890    -0.0479420    -0.0086670
  C       -1.0922440     1.2495808    -0.0016602
  H       -1.6715710    -1.7194360    -0.8464940
  H       -1.6521540    -1.6671500     0.9188080
  H        0.7071820    -2.1662500    -0.0128270
  H        0.8222450     2.1733070     0.0302890
  H        2.8758370     0.4671910     0.8740370
  H        2.8626870     0.4795000    -0.8898540
  H        2.8779460    -1.0666660    -0.0186730
  H       -1.6754580     2.1523000    -0.0063760
units angstrom
no_reorient  #important for SAPT in psi4, default
symmetry c1  #important for SAPT in psi4, default
}

set PROPERTIES_ORIGIN ["COM"]
properties('MP2/aug-cc-pvtz', properties = ['dipole'])
--------------------------------------------------------------------------

    Molecular point group: c1
  Charge       = 0
  Multiplicity = 1
  Basis Set: AUG-CC-PVTZ
    Blend: AUG-CC-PVTZ
  Basis Set: (AUG-CC-PVTZ AUX)
    Blend: AUG-CC-PVTZ-JKFIT

    Orbital Energies [Eh]
    ---------------------

    Doubly Occupied:

       1A    -20.585796     2A    -11.302687     3A    -11.293210
       4A    -11.246617     5A    -11.225723     6A    -11.225668
       7A    -11.219107     8A     -1.404277     9A     -1.104419
      10A     -1.033690    11A     -0.970274    12A     -0.876406
      13A     -0.828878    14A     -0.695461    15A     -0.673413
      16A     -0.659567    17A     -0.651499    18A     -0.587275
      19A     -0.572450    20A     -0.558358    21A     -0.551659
      22A     -0.513219    23A     -0.505217    24A     -0.468384
      25A     -0.407905    26A     -0.282147

  @DF-RHF Final Energy:  -306.78870041219642

   => Energetics <=

    Nuclear Repulsion Energy =            288.3947826994684647
    One-Electron Energy =                -987.4803536974811777
    Two-Electron Energy =                 392.2968705858162934
    Total Energy =                       -306.7887004121964196
  Basis Set: (AUG-CC-PVTZ AUX)
    Blend: AUG-CC-PVTZ-RI
    Molecular point group: c1

    Geometry (in Angstrom), charge = 0, multiplicity = 1:

       Center              X                  Y                   Z               Mass
    ------------   -----------------  -----------------  -----------------  -----------------
         O           -1.816455818655     0.131570225596    -0.023423990851    15.994914619570
         C            1.035324181345    -0.062012774404     0.003850009149    12.000000000000
         C           -1.209932818655    -1.187888774404     0.016268009149    12.000000000000
         C            0.292694181345    -1.197934774404    -0.001709990851    12.000000000000
         C            0.333544181345     1.221201225596     0.017596009149    12.000000000000
         C            2.536648181345    -0.061875774404    -0.008128990851    12.000000000000
         C           -1.036684818655     1.235647025596    -0.001122190851    12.000000000000
         H           -1.616011818655    -1.733369774404    -0.845955990851     1.007825032230
         H           -1.596594818655    -1.681083774404     0.919346009149     1.007825032230
         H            0.762741181345    -2.180183774404    -0.012288990851     1.007825032230
         H            0.877804181345     2.159373225596     0.030827009149     1.007825032230
         H            2.931396181345     0.453257225596     0.874575009149     1.007825032230
         H            2.918246181345     0.465566225596    -0.889315990851     1.007825032230
         H            2.933505181345    -1.080599774404    -0.018134990851     1.007825032230
         H           -1.619898818655     2.138366225596    -0.005837990851     1.007825032230

  Basis Set: AUG-CC-PVTZ
    Blend: AUG-CC-PVTZ
  Basis Set: (AUG-CC-PVTZ AUX)
    Blend: AUG-CC-PVTZ-JKFIT
	 Reference Energy          =    -306.7887004121964196 [Eh]
	 Singles Energy            =      -0.0000000000000000 [Eh]
	 Same-Spin Energy          =      -0.3157754502497548 [Eh]
	 Opposite-Spin Energy      =      -1.0409757158864610 [Eh]
	 Correlation Energy        =      -1.3567511661362159 [Eh]
	 Total Energy              =    -308.1454515783326542 [Eh]

	 ================> DF-SCS-MP2 Energies <==================
	-----------------------------------------------------------
	 SCS Same-Spin Scale       =       0.3333333333333333 [-]
	 SCS Opposite-Spin Scale   =       1.2000000000000000 [-]
	 SCS Same-Spin Energy      =      -0.1052584834165849 [Eh]
	 SCS Opposite-Spin Energy  =      -1.2491708590637531 [Eh]
	 SCS Correlation Energy    =      -1.3544293424803380 [Eh]
	 SCS Total Energy          =    -308.1431297546767496 [Eh]
	-----------------------------------------------------------

  Dipole Moment: [D]
     X:     0.8292      Y:    -0.5519      Z:     0.0310     Total:     0.9966

*** Psi4 exiting successfully. Buy a developer a beer!
