                               Psi4 1.4a3.dev225

  ==> Input File <==

--------------------------------------------------------------------------
#psi4
#
memory 32 gb

molecule  {
0 1
  O       -1.8720150     0.1455040    -0.0239620
  C        0.9797650    -0.0480790     0.0033120
  C       -1.2654920    -1.1739550     0.0157300
  C        0.2371350    -1.1840010    -0.0022480
  C        0.2779850     1.2351350     0.0170580
  C        2.4810890    -0.0479420    -0.0086670
  C       -1.0722470     1.2493700    -0.0013870
  H       -1.6715710    -1.7194360    -0.8464940
  H       -1.6521540    -1.6671500     0.9188080
  H        0.7071820    -2.1662500    -0.0128270
  H        0.8222450     2.1733070     0.0302890
  H        2.8758370     0.4671910     0.8740370
  H        2.8626870     0.4795000    -0.8898540
  H        2.9142436    -1.1598413    -0.0195882
  H       -1.6754580     2.1523000    -0.0063760
units angstrom
no_reorient  #important for SAPT in psi4, default
symmetry c1  #important for SAPT in psi4, default
}

set PROPERTIES_ORIGIN ["COM"]
properties('MP2/aug-cc-pvtz', properties = ['dipole'])
--------------------------------------------------------------------------

    Molecular point group: c1
  Charge       = 0
  Multiplicity = 1
  Basis Set: AUG-CC-PVTZ
    Blend: AUG-CC-PVTZ
  Basis Set: (AUG-CC-PVTZ AUX)
    Blend: AUG-CC-PVTZ-JKFIT

    Orbital Energies [Eh]
    ---------------------

    Doubly Occupied:

       1A    -20.584275     2A    -11.300762     3A    -11.292106
       4A    -11.247645     5A    -11.237877     6A    -11.226879
       7A    -11.219142     8A     -1.399268     9A     -1.105805
      10A     -1.035165    11A     -0.967182    12A     -0.876021
      13A     -0.825033    14A     -0.693593    15A     -0.672110
      16A     -0.657927    17A     -0.650102    18A     -0.585946
      19A     -0.574488    20A     -0.557839    21A     -0.540105
      22A     -0.511504    23A     -0.497936    24A     -0.469802
      25A     -0.410896    26A     -0.285875

  @DF-RHF Final Energy:  -306.78302761243242

   => Energetics <=

    Nuclear Repulsion Energy =            288.1418514199119727
    One-Electron Energy =                -986.9991871976760649
    Two-Electron Energy =                 392.0743081653316722
    Total Energy =                       -306.7830276124324200
  Basis Set: (AUG-CC-PVTZ AUX)
    Blend: AUG-CC-PVTZ-RI
    Molecular point group: c1

    Geometry (in Angstrom), charge = 0, multiplicity = 1:

       Center              X                  Y                   Z               Mass
    ------------   -----------------  -----------------  -----------------  -----------------
         O           -1.819334777477     0.132574144965    -0.023448518225    15.994914619570
         C            1.032445222523    -0.061008855035     0.003825481775    12.000000000000
         C           -1.212811777477    -1.186884855035     0.016243481775    12.000000000000
         C            0.289815222523    -1.196930855035    -0.001734518225    12.000000000000
         C            0.330665222523     1.222205144965     0.017571481775    12.000000000000
         C            2.533769222523    -0.060871855035    -0.008153518225    12.000000000000
         C           -1.019566777477     1.236440144965    -0.000873518225    12.000000000000
         H           -1.618890777477    -1.732365855035    -0.845980518225     1.007825032230
         H           -1.599473777477    -1.680079855035     0.919321481775     1.007825032230
         H            0.759862222523    -2.179179855035    -0.012313518225     1.007825032230
         H            0.874925222523     2.160377144965     0.030802481775     1.007825032230
         H            2.928517222523     0.454261144965     0.874550481775     1.007825032230
         H            2.915367222523     0.466570144965    -0.889340518225     1.007825032230
         H            2.966923822523    -1.172771155035    -0.019074718225     1.007825032230
         H           -1.622777777477     2.139370144965    -0.005862518225     1.007825032230

  Basis Set: AUG-CC-PVTZ
    Blend: AUG-CC-PVTZ
  Basis Set: (AUG-CC-PVTZ AUX)
    Blend: AUG-CC-PVTZ-JKFIT
	 Reference Energy          =    -306.7830276124324200 [Eh]
	 Singles Energy            =      -0.0000000000000000 [Eh]
	 Same-Spin Energy          =      -0.3156625595987023 [Eh]
	 Opposite-Spin Energy      =      -1.0416540958638705 [Eh]
	 Correlation Energy        =      -1.3573166554625726 [Eh]
	 Total Energy              =    -308.1403442678949887 [Eh]

	 ================> DF-SCS-MP2 Energies <==================
	-----------------------------------------------------------
	 SCS Same-Spin Scale       =       0.3333333333333333 [-]
	 SCS Opposite-Spin Scale   =       1.2000000000000000 [-]
	 SCS Same-Spin Energy      =      -0.1052208531995674 [Eh]
	 SCS Opposite-Spin Energy  =      -1.2499849150366444 [Eh]
	 SCS Correlation Energy    =      -1.3552057682362117 [Eh]
	 SCS Total Energy          =    -308.1382333806686233 [Eh]
	-----------------------------------------------------------

  Dipole Moment: [D]
     X:     0.8564      Y:    -0.4702      Z:     0.0332     Total:     0.9775

*** Psi4 exiting successfully. Buy a developer a beer!
