                               Psi4 1.4a3.dev225

  ==> Input File <==

--------------------------------------------------------------------------
#psi4
#
memory 32 gb

molecule  {
0 1
  O       -1.8720150     0.1455040    -0.0239620
  C        0.9797650    -0.0480790     0.0033120
  C       -1.2654920    -1.1739550     0.0157300
  C        0.2371350    -1.1840010    -0.0022480
  C        0.2779850     1.2351350     0.0170580
  C        2.4810890    -0.0479420    -0.0086670
  C       -1.0722470     1.2493700    -0.0013870
  H       -1.6715710    -1.7194360    -0.8464940
  H       -1.6521540    -1.6671500     0.9188080
  H        0.7071820    -2.1662500    -0.0128270
  H        0.8222450     2.1733070     0.0302890
  H        2.8578220     0.4436820     0.8337532
  H        2.8626870     0.4795000    -0.8898540
  H        2.8779460    -1.0666660    -0.0186730
  H       -1.6754580     2.1523000    -0.0063760
units angstrom
no_reorient  #important for SAPT in psi4, default
symmetry c1  #important for SAPT in psi4, default
}

set PROPERTIES_ORIGIN ["COM"]
properties('MP2/aug-cc-pvtz', properties = ['dipole'])
--------------------------------------------------------------------------

    Molecular point group: c1
  Charge       = 0
  Multiplicity = 1
  Basis Set: AUG-CC-PVTZ
    Blend: AUG-CC-PVTZ
  Basis Set: (AUG-CC-PVTZ AUX)
    Blend: AUG-CC-PVTZ-JKFIT

    Orbital Energies [Eh]
    ---------------------

    Doubly Occupied:

       1A    -20.583762     2A    -11.300084     3A    -11.291620
       4A    -11.246361     5A    -11.226035     6A    -11.219977
       7A    -11.218176     8A     -1.398737     9A     -1.106306
      10A     -1.034574    11A     -0.975343    12A     -0.877051
      13A     -0.827960    14A     -0.694343    15A     -0.673386
      16A     -0.657814    17A     -0.649667    18A     -0.587612
      19A     -0.578850    20A     -0.557588    21A     -0.552982
      22A     -0.511051    23A     -0.504355    24A     -0.469242
      25A     -0.410716    26A     -0.285321

  @DF-RHF Final Energy:  -306.78874079608823

   => Energetics <=

    Nuclear Repulsion Energy =            288.7509129415651614
    One-Electron Energy =                -988.2014866203679730
    Two-Electron Energy =                 392.6618328827145774
    Total Energy =                       -306.7887407960882342
  Basis Set: (AUG-CC-PVTZ AUX)
    Blend: AUG-CC-PVTZ-RI
    Molecular point group: c1

    Geometry (in Angstrom), charge = 0, multiplicity = 1:

       Center              X                  Y                   Z               Mass
    ------------   -----------------  -----------------  -----------------  -----------------
         O           -1.818764935566     0.131843213698    -0.023035467142    15.994914619570
         C            1.033015064434    -0.061739786302     0.004238532858    12.000000000000
         C           -1.212241935566    -1.187615786302     0.016656532858    12.000000000000
         C            0.290385064434    -1.197661786302    -0.001321467142    12.000000000000
         C            0.331235064434     1.221474213698     0.017984532858    12.000000000000
         C            2.534339064434    -0.061602786302    -0.007740467142    12.000000000000
         C           -1.018996935566     1.235709213698    -0.000460467142    12.000000000000
         H           -1.618320935566    -1.733096786302    -0.845567467142     1.007825032230
         H           -1.598903935566    -1.680810786302     0.919734532858     1.007825032230
         H            0.760432064434    -2.179910786302    -0.011900467142     1.007825032230
         H            0.875495064434     2.159646213698     0.031215532858     1.007825032230
         H            2.911072064434     0.430021213698     0.834679732858     1.007825032230
         H            2.915937064434     0.465839213698    -0.888927467142     1.007825032230
         H            2.931196064434    -1.080326786302    -0.017746467142     1.007825032230
         H           -1.622207935566     2.138639213698    -0.005449467142     1.007825032230

  Basis Set: AUG-CC-PVTZ
    Blend: AUG-CC-PVTZ
  Basis Set: (AUG-CC-PVTZ AUX)
    Blend: AUG-CC-PVTZ-JKFIT
	 Reference Energy          =    -306.7887407960882342 [Eh]
	 Singles Energy            =      -0.0000000000000000 [Eh]
	 Same-Spin Energy          =      -0.3156218574277617 [Eh]
	 Opposite-Spin Energy      =      -1.0405571800072966 [Eh]
	 Correlation Energy        =      -1.3561790374350582 [Eh]
	 Total Energy              =    -308.1449198335233177 [Eh]

	 ================> DF-SCS-MP2 Energies <==================
	-----------------------------------------------------------
	 SCS Same-Spin Scale       =       0.3333333333333333 [-]
	 SCS Opposite-Spin Scale   =       1.2000000000000000 [-]
	 SCS Same-Spin Energy      =      -0.1052072858092539 [Eh]
	 SCS Opposite-Spin Energy  =      -1.2486686160087559 [Eh]
	 SCS Correlation Energy    =      -1.3538759018180098 [Eh]
	 SCS Total Energy          =    -308.1426166979062486 [Eh]
	-----------------------------------------------------------

  Dipole Moment: [D]
     X:     0.9265      Y:    -0.5069      Z:     0.0473     Total:     1.0572

*** Psi4 exiting successfully. Buy a developer a beer!
