                               Psi4 1.4a3.dev225

  ==> Input File <==

--------------------------------------------------------------------------
#psi4
#
memory 32 gb

molecule  {
0 1
  O       -1.9470736     0.2039953    -0.0243830
  C        0.9797650    -0.0480790     0.0033120
  C       -1.2654920    -1.1739550     0.0157300
  C        0.2371350    -1.1840010    -0.0022480
  C        0.2779850     1.2351350     0.0170580
  C        2.4810890    -0.0479420    -0.0086670
  C       -1.0722470     1.2493700    -0.0013870
  H       -1.6715710    -1.7194360    -0.8464940
  H       -1.6521540    -1.6671500     0.9188080
  H        0.7071820    -2.1662500    -0.0128270
  H        0.8222450     2.1733070     0.0302890
  H        2.8758370     0.4671910     0.8740370
  H        2.8626870     0.4795000    -0.8898540
  H        2.8779460    -1.0666660    -0.0186730
  H       -1.6754580     2.1523000    -0.0063760
units angstrom
no_reorient  #important for SAPT in psi4, default
symmetry c1  #important for SAPT in psi4, default
}

set PROPERTIES_ORIGIN ["COM"]
properties('MP2/aug-cc-pvtz', properties = ['dipole'])
--------------------------------------------------------------------------

    Molecular point group: c1
  Charge       = 0
  Multiplicity = 1
  Basis Set: AUG-CC-PVTZ
    Blend: AUG-CC-PVTZ
  Basis Set: (AUG-CC-PVTZ AUX)
    Blend: AUG-CC-PVTZ-JKFIT

    Orbital Energies [Eh]
    ---------------------

    Doubly Occupied:

       1A    -20.589016     2A    -11.298988     3A    -11.298569
       4A    -11.248664     5A    -11.228810     6A    -11.227004
       7A    -11.217911     8A     -1.382869     9A     -1.108334
      10A     -1.027866    11A     -0.975145    12A     -0.874076
      13A     -0.824816    14A     -0.689057    15A     -0.673204
      16A     -0.652970    17A     -0.640093    18A     -0.583586
      19A     -0.573453    20A     -0.554117    21A     -0.549786
      22A     -0.519733    23A     -0.504488    24A     -0.472075
      25A     -0.410826    26A     -0.287027

  @DF-RHF Final Energy:  -306.78063287437612

   => Energetics <=

    Nuclear Repulsion Energy =            286.5211276159158729
    One-Electron Energy =                -983.7785531285018124
    Two-Electron Energy =                 390.4767926382098722
    Total Energy =                       -306.7806328743761242
  Basis Set: (AUG-CC-PVTZ AUX)
    Blend: AUG-CC-PVTZ-RI
    Molecular point group: c1

    Geometry (in Angstrom), charge = 0, multiplicity = 1:

       Center              X                  Y                   Z               Mass
    ------------   -----------------  -----------------  -----------------  -----------------
         O           -1.881514244284     0.180348243396    -0.023809018038    15.994914619570
         C            1.045324355716    -0.071726056604     0.003885981962    12.000000000000
         C           -1.199932644284    -1.197602056604     0.016303981962    12.000000000000
         C            0.302694355716    -1.207648056604    -0.001674018038    12.000000000000
         C            0.343544355716     1.211487943396     0.017631981962    12.000000000000
         C            2.546648355716    -0.071589056604    -0.008093018038    12.000000000000
         C           -1.006687644284     1.225722943396    -0.000813018038    12.000000000000
         H           -1.606011644284    -1.743083056604    -0.845920018038     1.007825032230
         H           -1.586594644284    -1.690797056604     0.919381981962     1.007825032230
         H            0.772741355716    -2.189897056604    -0.012253018038     1.007825032230
         H            0.887804355716     2.149659943396     0.030862981962     1.007825032230
         H            2.941396355716     0.443543943396     0.874610981962     1.007825032230
         H            2.928246355716     0.455852943396    -0.889280018038     1.007825032230
         H            2.943505355716    -1.090313056604    -0.018099018038     1.007825032230
         H           -1.609898644284     2.128652943396    -0.005802018038     1.007825032230

  Basis Set: AUG-CC-PVTZ
    Blend: AUG-CC-PVTZ
  Basis Set: (AUG-CC-PVTZ AUX)
    Blend: AUG-CC-PVTZ-JKFIT
	 Reference Energy          =    -306.7806328743761242 [Eh]
	 Singles Energy            =      -0.0000000000000000 [Eh]
	 Same-Spin Energy          =      -0.3163532591477231 [Eh]
	 Opposite-Spin Energy      =      -1.0435698863969023 [Eh]
	 Correlation Energy        =      -1.3599231455446255 [Eh]
	 Total Energy              =    -308.1405560199207230 [Eh]

	 ================> DF-SCS-MP2 Energies <==================
	-----------------------------------------------------------
	 SCS Same-Spin Scale       =       0.3333333333333333 [-]
	 SCS Opposite-Spin Scale   =       1.2000000000000000 [-]
	 SCS Same-Spin Energy      =      -0.1054510863825743 [Eh]
	 SCS Opposite-Spin Energy  =      -1.2522838636762827 [Eh]
	 SCS Correlation Energy    =      -1.3577349500588571 [Eh]
	 SCS Total Energy          =    -308.1383678244349653 [Eh]
	-----------------------------------------------------------

  Dipole Moment: [D]
     X:     1.0167      Y:    -0.7356      Z:     0.0371     Total:     1.2554

*** Psi4 exiting successfully. Buy a developer a beer!
