                               Psi4 1.4a3.dev225

  ==> Input File <==

--------------------------------------------------------------------------
#psi4
#
memory 32 gb

molecule  {
0 1
  O       -1.8720150     0.1455040    -0.0239620
  C        0.9797650    -0.0480790     0.0033120
  C       -1.2237414    -1.2647813     0.0184622
  C        0.2371350    -1.1840010    -0.0022480
  C        0.2779850     1.2351350     0.0170580
  C        2.4810890    -0.0479420    -0.0086670
  C       -1.0722470     1.2493700    -0.0013870
  H       -1.6715710    -1.7194360    -0.8464940
  H       -1.6521540    -1.6671500     0.9188080
  H        0.7071820    -2.1662500    -0.0128270
  H        0.8222450     2.1733070     0.0302890
  H        2.8758370     0.4671910     0.8740370
  H        2.8626870     0.4795000    -0.8898540
  H        2.8779460    -1.0666660    -0.0186730
  H       -1.6754580     2.1523000    -0.0063760
units angstrom
no_reorient  #important for SAPT in psi4, default
symmetry c1  #important for SAPT in psi4, default
}

set PROPERTIES_ORIGIN ["COM"]
properties('MP2/aug-cc-pvtz', properties = ['dipole'])
--------------------------------------------------------------------------

    Molecular point group: c1
  Charge       = 0
  Multiplicity = 1
  Basis Set: AUG-CC-PVTZ
    Blend: AUG-CC-PVTZ
  Basis Set: (AUG-CC-PVTZ AUX)
    Blend: AUG-CC-PVTZ-JKFIT

    Orbital Energies [Eh]
    ---------------------

    Doubly Occupied:

       1A    -20.574641     2A    -11.297066     3A    -11.294949
       4A    -11.250707     5A    -11.227190     6A    -11.224336
       7A    -11.213151     8A     -1.371807     9A     -1.106897
      10A     -1.035903    11A     -0.974578    12A     -0.875665
      13A     -0.824072    14A     -0.686504    15A     -0.668172
      16A     -0.658142    17A     -0.647942    18A     -0.589368
      19A     -0.573534    20A     -0.549369    21A     -0.544910
      22A     -0.520789    23A     -0.509564    24A     -0.463811
      25A     -0.407410    26A     -0.285510

  @DF-RHF Final Energy:  -306.78030939581890

   => Energetics <=

    Nuclear Repulsion Energy =            287.5010035796616990
    One-Electron Energy =                -985.8106516226409894
    Two-Electron Energy =                 391.5293386471603299
    Total Energy =                       -306.7803093958189038
  Basis Set: (AUG-CC-PVTZ AUX)
    Blend: AUG-CC-PVTZ-RI
    Molecular point group: c1

    Geometry (in Angstrom), charge = 0, multiplicity = 1:

       Center              X                  Y                   Z               Mass
    ------------   -----------------  -----------------  -----------------  -----------------
         O           -1.824169647198     0.142943049486    -0.023799440914    15.994914619570
         C            1.027610352802    -0.050639950514     0.003474559086    12.000000000000
         C           -1.175896047198    -1.267342250514     0.018624759086    12.000000000000
         C            0.284980352802    -1.186561950514    -0.002085440914    12.000000000000
         C            0.325830352802     1.232574049486     0.017220559086    12.000000000000
         C            2.528934352802    -0.050502950514    -0.008504440914    12.000000000000
         C           -1.024401647198     1.246809049486    -0.001224440914    12.000000000000
         H           -1.623725647198    -1.721996950514    -0.846331440914     1.007825032230
         H           -1.604308647198    -1.669710950514     0.918970559086     1.007825032230
         H            0.755027352802    -2.168810950514    -0.012664440914     1.007825032230
         H            0.870090352802     2.170746049486     0.030451559086     1.007825032230
         H            2.923682352802     0.464630049486     0.874199559086     1.007825032230
         H            2.910532352802     0.476939049486    -0.889691440914     1.007825032230
         H            2.925791352802    -1.069226950514    -0.018510440914     1.007825032230
         H           -1.627612647198     2.149739049486    -0.006213440914     1.007825032230

  Basis Set: AUG-CC-PVTZ
    Blend: AUG-CC-PVTZ
  Basis Set: (AUG-CC-PVTZ AUX)
    Blend: AUG-CC-PVTZ-JKFIT
	 Reference Energy          =    -306.7803093958189038 [Eh]
	 Singles Energy            =      -0.0000000000000000 [Eh]
	 Same-Spin Energy          =      -0.3164098211709181 [Eh]
	 Opposite-Spin Energy      =      -1.0426982145104979 [Eh]
	 Correlation Energy        =      -1.3591080356814160 [Eh]
	 Total Energy              =    -308.1394174315003056 [Eh]

	 ================> DF-SCS-MP2 Energies <==================
	-----------------------------------------------------------
	 SCS Same-Spin Scale       =       0.3333333333333333 [-]
	 SCS Opposite-Spin Scale   =       1.2000000000000000 [-]
	 SCS Same-Spin Energy      =      -0.1054699403903060 [Eh]
	 SCS Opposite-Spin Energy  =      -1.2512378574125975 [Eh]
	 SCS Correlation Energy    =      -1.3567077978029036 [Eh]
	 SCS Total Energy          =    -308.1370171936218298 [Eh]
	-----------------------------------------------------------

  Dipole Moment: [D]
     X:     0.9235      Y:    -0.7917      Z:     0.0449     Total:     1.2172

*** Psi4 exiting successfully. Buy a developer a beer!
