                               Psi4 1.4a3.dev225

  ==> Input File <==

--------------------------------------------------------------------------
#psi4
#
memory 32 gb

molecule  {
0 1
  O       -1.8720150     0.1455040    -0.0239620
  C        0.9797650    -0.0480790     0.0033120
  C       -1.2654920    -1.1739550     0.0157300
  C        0.3181815    -1.2330330    -0.0030360
  C        0.2779850     1.2351350     0.0170580
  C        2.4810890    -0.0479420    -0.0086670
  C       -1.0722470     1.2493700    -0.0013870
  H       -1.6715710    -1.7194360    -0.8464940
  H       -1.6521540    -1.6671500     0.9188080
  H        0.7071820    -2.1662500    -0.0128270
  H        0.8222450     2.1733070     0.0302890
  H        2.8758370     0.4671910     0.8740370
  H        2.8626870     0.4795000    -0.8898540
  H        2.8779460    -1.0666660    -0.0186730
  H       -1.6754580     2.1523000    -0.0063760
units angstrom
no_reorient  #important for SAPT in psi4, default
symmetry c1  #important for SAPT in psi4, default
}

set PROPERTIES_ORIGIN ["COM"]
properties('MP2/aug-cc-pvtz', properties = ['dipole'])
--------------------------------------------------------------------------

    Molecular point group: c1
  Charge       = 0
  Multiplicity = 1
  Basis Set: AUG-CC-PVTZ
    Blend: AUG-CC-PVTZ
  Basis Set: (AUG-CC-PVTZ AUX)
    Blend: AUG-CC-PVTZ-JKFIT

    Orbital Energies [Eh]
    ---------------------

    Doubly Occupied:

       1A    -20.586076     2A    -11.303112     3A    -11.292659
       4A    -11.248066     5A    -11.224205     6A    -11.223220
       7A    -11.220609     8A     -1.398850     9A     -1.104536
      10A     -1.029940    11A     -0.965771    12A     -0.880233
      13A     -0.825651    14A     -0.695347    15A     -0.683345
      16A     -0.661854    17A     -0.646219    18A     -0.581811
      19A     -0.571519    20A     -0.559376    21A     -0.554744
      22A     -0.508858    23A     -0.507022    24A     -0.457333
      25A     -0.410201    26A     -0.288708

  @DF-RHF Final Energy:  -306.78044883749061

   => Energetics <=

    Nuclear Repulsion Energy =            287.4770200689239914
    One-Electron Energy =                -985.6564073214560722
    Two-Electron Energy =                 391.3989384150414139
    Total Energy =                       -306.7804488374906100
  Basis Set: (AUG-CC-PVTZ AUX)
    Blend: AUG-CC-PVTZ-RI
    Molecular point group: c1

    Geometry (in Angstrom), charge = 0, multiplicity = 1:

       Center              X                  Y                   Z               Mass
    ------------   -----------------  -----------------  -----------------  -----------------
         O           -1.829078693623     0.137721890052    -0.023359679381    15.994914619570
         C            1.022701306377    -0.055861109948     0.003914320619    12.000000000000
         C           -1.222555693623    -1.181737109948     0.016332320619    12.000000000000
         C            0.361117806377    -1.240815109948    -0.002433679381    12.000000000000
         C            0.320921306377     1.227352890052     0.017660320619    12.000000000000
         C            2.524025306377    -0.055724109948    -0.008064679381    12.000000000000
         C           -1.029310693623     1.241587890052    -0.000784679381    12.000000000000
         H           -1.628634693623    -1.727218109948    -0.845891679381     1.007825032230
         H           -1.609217693623    -1.674932109948     0.919410320619     1.007825032230
         H            0.750118306377    -2.174032109948    -0.012224679381     1.007825032230
         H            0.865181306377     2.165524890052     0.030891320619     1.007825032230
         H            2.918773306377     0.459408890052     0.874639320619     1.007825032230
         H            2.905623306377     0.471717890052    -0.889251679381     1.007825032230
         H            2.920882306377    -1.074448109948    -0.018070679381     1.007825032230
         H           -1.632521693623     2.144517890052    -0.005773679381     1.007825032230

  Basis Set: AUG-CC-PVTZ
    Blend: AUG-CC-PVTZ
  Basis Set: (AUG-CC-PVTZ AUX)
    Blend: AUG-CC-PVTZ-JKFIT
	 Reference Energy          =    -306.7804488374906100 [Eh]
	 Singles Energy            =      -0.0000000000000000 [Eh]
	 Same-Spin Energy          =      -0.3151986130233039 [Eh]
	 Opposite-Spin Energy      =      -1.0408323573247755 [Eh]
	 Correlation Energy        =      -1.3560309703480793 [Eh]
	 Total Energy              =    -308.1364798078386684 [Eh]

	 ================> DF-SCS-MP2 Energies <==================
	-----------------------------------------------------------
	 SCS Same-Spin Scale       =       0.3333333333333333 [-]
	 SCS Opposite-Spin Scale   =       1.2000000000000000 [-]
	 SCS Same-Spin Energy      =      -0.1050662043411013 [Eh]
	 SCS Opposite-Spin Energy  =      -1.2489988287897307 [Eh]
	 SCS Correlation Energy    =      -1.3540650331308319 [Eh]
	 SCS Total Energy          =    -308.1345138706214470 [Eh]
	-----------------------------------------------------------

  Dipole Moment: [D]
     X:     0.8540      Y:    -0.4763      Z:     0.0320     Total:     0.9783

*** Psi4 exiting successfully. Buy a developer a beer!
