                               Psi4 1.4a3.dev225

  ==> Input File <==

--------------------------------------------------------------------------
#psi4
#
memory 32 gb

molecule  {
0 1
  O       -1.8720150     0.1455040    -0.0239620
  C        0.9797650    -0.0480790     0.0033120
  C       -1.2562009    -1.0169335     0.0164138
  C        0.2371350    -1.1840010    -0.0022480
  C        0.2779850     1.2351350     0.0170580
  C        2.4810890    -0.0479420    -0.0086670
  C       -1.0722470     1.2493700    -0.0013870
  H       -1.6715710    -1.7194360    -0.8464940
  H       -1.6521540    -1.6671500     0.9188080
  H        0.7071820    -2.1662500    -0.0128270
  H        0.8222450     2.1733070     0.0302890
  H        2.8758370     0.4671910     0.8740370
  H        2.8626870     0.4795000    -0.8898540
  H        2.8779460    -1.0666660    -0.0186730
  H       -1.6754580     2.1523000    -0.0063760
units angstrom
no_reorient  #important for SAPT in psi4, default
symmetry c1  #important for SAPT in psi4, default
}

set PROPERTIES_ORIGIN ["COM"]
properties('MP2/aug-cc-pvtz', properties = ['dipole'])
--------------------------------------------------------------------------

    Molecular point group: c1
  Charge       = 0
  Multiplicity = 1
  Basis Set: AUG-CC-PVTZ
    Blend: AUG-CC-PVTZ
  Basis Set: (AUG-CC-PVTZ AUX)
    Blend: AUG-CC-PVTZ-JKFIT

    Orbital Energies [Eh]
    ---------------------

    Doubly Occupied:

       1A    -20.597981     2A    -11.305279     3A    -11.297202
       4A    -11.243108     5A    -11.230761     6A    -11.227895
       7A    -11.225692     8A     -1.453858     9A     -1.111804
      10A     -1.040435    11A     -0.971785    12A     -0.884235
      13A     -0.828719    14A     -0.713845    15A     -0.689273
      16A     -0.663422    17A     -0.655280    18A     -0.584471
      19A     -0.579089    20A     -0.573433    21A     -0.558150
      22A     -0.502275    23A     -0.474629    24A     -0.467896
      25A     -0.416782    26A     -0.281520

  @DF-RHF Final Energy:  -306.76610503299923

   => Energetics <=

    Nuclear Repulsion Energy =            291.1586223157685822
    One-Electron Energy =                -992.6918200283238320
    Two-Electron Energy =                 394.7670926795559581
    Total Energy =                       -306.7661050329992349
  Basis Set: (AUG-CC-PVTZ AUX)
    Blend: AUG-CC-PVTZ-RI
    Molecular point group: c1

    Geometry (in Angstrom), charge = 0, multiplicity = 1:

       Center              X                  Y                   Z               Mass
    ------------   -----------------  -----------------  -----------------  -----------------
         O           -1.820114639107     0.111980624487    -0.023543544225    15.994914619570
         C            1.031665360893    -0.081602375513     0.003730455775    12.000000000000
         C           -1.204300539107    -1.050456875513     0.016832255775    12.000000000000
         C            0.289035360893    -1.217524375513    -0.001829544225    12.000000000000
         C            0.329885360893     1.201611624487     0.017476455775    12.000000000000
         C            2.532989360893    -0.081465375513    -0.008248544225    12.000000000000
         C           -1.020346639107     1.215846624487    -0.000968544225    12.000000000000
         H           -1.619670639107    -1.752959375513    -0.846075544225     1.007825032230
         H           -1.600253639107    -1.700673375513     0.919226455775     1.007825032230
         H            0.759082360893    -2.199773375513    -0.012408544225     1.007825032230
         H            0.874145360893     2.139783624487     0.030707455775     1.007825032230
         H            2.927737360893     0.433667624487     0.874455455775     1.007825032230
         H            2.914587360893     0.445976624487    -0.889435544225     1.007825032230
         H            2.929846360893    -1.100189375513    -0.018254544225     1.007825032230
         H           -1.623557639107     2.118776624487    -0.005957544225     1.007825032230

  Basis Set: AUG-CC-PVTZ
    Blend: AUG-CC-PVTZ
  Basis Set: (AUG-CC-PVTZ AUX)
    Blend: AUG-CC-PVTZ-JKFIT
	 Reference Energy          =    -306.7661050329992349 [Eh]
	 Singles Energy            =      -0.0000000000000000 [Eh]
	 Same-Spin Energy          =      -0.3163365874718641 [Eh]
	 Opposite-Spin Energy      =      -1.0409280821848381 [Eh]
	 Correlation Energy        =      -1.3572646696567021 [Eh]
	 Total Energy              =    -308.1233697026559639 [Eh]

	 ================> DF-SCS-MP2 Energies <==================
	-----------------------------------------------------------
	 SCS Same-Spin Scale       =       0.3333333333333333 [-]
	 SCS Opposite-Spin Scale   =       1.2000000000000000 [-]
	 SCS Same-Spin Energy      =      -0.1054455291572880 [Eh]
	 SCS Opposite-Spin Energy  =      -1.2491136986218057 [Eh]
	 SCS Correlation Energy    =      -1.3545592277790937 [Eh]
	 SCS Total Energy          =    -308.1206642607783124 [Eh]
	-----------------------------------------------------------

  Dipole Moment: [D]
     X:     1.0330      Y:     0.0455      Z:     0.0161     Total:     1.0341

*** Psi4 exiting successfully. Buy a developer a beer!
