                               Psi4 1.4a3.dev225

  ==> Input File <==

--------------------------------------------------------------------------
#psi4
#
memory 32 gb

molecule  {
0 1
  O       -1.8720150     0.1455040    -0.0239620
  C        0.9797650    -0.0480790     0.0033120
  C       -1.2654920    -1.1739550     0.0157300
  C        0.2371350    -1.1840010    -0.0022480
  C        0.2779850     1.2351350     0.0170580
  C        2.4810890    -0.0479420    -0.0086670
  C       -1.0722470     1.2493700    -0.0013870
  H       -1.6715710    -1.7194360    -0.8464940
  H       -1.6521540    -1.6671500     0.9188080
  H        0.7071820    -2.1662500    -0.0128270
  H        0.8222450     2.1733070     0.0302890
  H        2.8037768     0.3731549     0.7129018
  H        2.8626870     0.4795000    -0.8898540
  H        2.8779460    -1.0666660    -0.0186730
  H       -1.6754580     2.1523000    -0.0063760
units angstrom
no_reorient  #important for SAPT in psi4, default
symmetry c1  #important for SAPT in psi4, default
}

set PROPERTIES_ORIGIN ["COM"]
properties('MP2/aug-cc-pvtz', properties = ['dipole'])
--------------------------------------------------------------------------

    Molecular point group: c1
  Charge       = 0
  Multiplicity = 1
  Basis Set: AUG-CC-PVTZ
    Blend: AUG-CC-PVTZ
  Basis Set: (AUG-CC-PVTZ AUX)
    Blend: AUG-CC-PVTZ-JKFIT

    Orbital Energies [Eh]
    ---------------------

    Doubly Occupied:

       1A    -20.583584     2A    -11.300028     3A    -11.291171
       4A    -11.245384     5A    -11.225296     6A    -11.218147
       7A    -11.201382     8A     -1.398535     9A     -1.108508
      10A     -1.034300    11A     -0.990125    12A     -0.880449
      13A     -0.830863    14A     -0.696432    15A     -0.672996
      16A     -0.659206    17A     -0.649713    18A     -0.608759
      19A     -0.582655    20A     -0.557337    21A     -0.552985
      22A     -0.510813    23A     -0.505063    24A     -0.468781
      25A     -0.412079    26A     -0.285038

  @DF-RHF Final Energy:  -306.75601955673454

   => Energetics <=

    Nuclear Repulsion Energy =            289.4996302068880141
    One-Electron Energy =                -989.5720411031863932
    Two-Electron Energy =                 393.3163913395638360
    Total Energy =                       -306.7560195567345431
  Basis Set: (AUG-CC-PVTZ AUX)
    Blend: AUG-CC-PVTZ-RI
    Molecular point group: c1

    Geometry (in Angstrom), charge = 0, multiplicity = 1:

       Center              X                  Y                   Z               Mass
    ------------   -----------------  -----------------  -----------------  -----------------
         O           -1.818197899187     0.132583176386    -0.021767507355    15.994914619570
         C            1.033582100813    -0.060999823614     0.005506492645    12.000000000000
         C           -1.211674899187    -1.186875823614     0.017924492645    12.000000000000
         C            0.290952100813    -1.196921823614    -0.000053507355    12.000000000000
         C            0.331802100813     1.222214176386     0.019252492645    12.000000000000
         C            2.534906100813    -0.060862823614    -0.006472507355    12.000000000000
         C           -1.018429899187     1.236449176386     0.000807492645    12.000000000000
         H           -1.617753899187    -1.732356823614    -0.844299507355     1.007825032230
         H           -1.598336899187    -1.680070823614     0.921002492645     1.007825032230
         H            0.760999100813    -2.179170823614    -0.010632507355     1.007825032230
         H            0.876062100813     2.160386176386     0.032483492645     1.007825032230
         H            2.857593900813     0.360234076386     0.715096292645     1.007825032230
         H            2.916504100813     0.466579176386    -0.887659507355     1.007825032230
         H            2.931763100813    -1.079586823614    -0.016478507355     1.007825032230
         H           -1.621640899187     2.139379176386    -0.004181507355     1.007825032230

  Basis Set: AUG-CC-PVTZ
    Blend: AUG-CC-PVTZ
  Basis Set: (AUG-CC-PVTZ AUX)
    Blend: AUG-CC-PVTZ-JKFIT
	 Reference Energy          =    -306.7560195567345431 [Eh]
	 Singles Energy            =      -0.0000000000000000 [Eh]
	 Same-Spin Energy          =      -0.3157523084028112 [Eh]
	 Opposite-Spin Energy      =      -1.0402443448110072 [Eh]
	 Correlation Energy        =      -1.3559966532138183 [Eh]
	 Total Energy              =    -308.1120162099483650 [Eh]

	 ================> DF-SCS-MP2 Energies <==================
	-----------------------------------------------------------
	 SCS Same-Spin Scale       =       0.3333333333333333 [-]
	 SCS Opposite-Spin Scale   =       1.2000000000000000 [-]
	 SCS Same-Spin Energy      =      -0.1052507694676037 [Eh]
	 SCS Opposite-Spin Energy  =      -1.2482932137732086 [Eh]
	 SCS Correlation Energy    =      -1.3535439832408123 [Eh]
	 SCS Total Energy          =    -308.1095635399753405 [Eh]
	-----------------------------------------------------------

  Dipole Moment: [D]
     X:     0.9641      Y:    -0.4829      Z:     0.0741     Total:     1.0808

*** Psi4 exiting successfully. Buy a developer a beer!
