                               Psi4 1.4a3.dev225

  ==> Input File <==

--------------------------------------------------------------------------
#psi4
#
memory 32 gb

molecule  {
0 1
  O       -1.9216349     0.1162880    -0.1074248
  C        0.9797650    -0.0480790     0.0033120
  C       -1.2654920    -1.1739550     0.0157300
  C        0.2371350    -1.1840010    -0.0022480
  C        0.2779850     1.2351350     0.0170580
  C        2.4810890    -0.0479420    -0.0086670
  C       -1.0722470     1.2493700    -0.0013870
  H       -1.6715710    -1.7194360    -0.8464940
  H       -1.6521540    -1.6671500     0.9188080
  H        0.7071820    -2.1662500    -0.0128270
  H        0.8222450     2.1733070     0.0302890
  H        2.8758370     0.4671910     0.8740370
  H        2.8626870     0.4795000    -0.8898540
  H        2.8779460    -1.0666660    -0.0186730
  H       -1.6754580     2.1523000    -0.0063760
units angstrom
no_reorient  #important for SAPT in psi4, default
symmetry c1  #important for SAPT in psi4, default
}

set PROPERTIES_ORIGIN ["COM"]
properties('MP2/aug-cc-pvtz', properties = ['dipole'])
--------------------------------------------------------------------------

    Molecular point group: c1
  Charge       = 0
  Multiplicity = 1
  Basis Set: AUG-CC-PVTZ
    Blend: AUG-CC-PVTZ
  Basis Set: (AUG-CC-PVTZ AUX)
    Blend: AUG-CC-PVTZ-JKFIT

    Orbital Energies [Eh]
    ---------------------

    Doubly Occupied:

       1A    -20.582631     2A    -11.302030     3A    -11.287848
       4A    -11.247691     5A    -11.229734     6A    -11.227540
       7A    -11.226466     8A     -1.378481     9A     -1.108886
      10A     -1.030859    11A     -0.973614    12A     -0.872602
      13A     -0.827361    14A     -0.688741    15A     -0.671199
      16A     -0.656826    17A     -0.642347    18A     -0.581733
      19A     -0.574322    20A     -0.558284    21A     -0.553512
      22A     -0.505403    23A     -0.497563    24A     -0.473683
      25A     -0.414450    26A     -0.290438

  @DF-RHF Final Energy:  -306.78317808984843

   => Energetics <=

    Nuclear Repulsion Energy =            287.1416959470462302
    One-Electron Energy =                -985.0412611031582628
    Two-Electron Energy =                 391.1163870662635418
    Total Energy =                       -306.7831780898484340
  Basis Set: (AUG-CC-PVTZ AUX)
    Blend: AUG-CC-PVTZ-RI
    Molecular point group: c1

    Geometry (in Angstrom), charge = 0, multiplicity = 1:

       Center              X                  Y                   Z               Mass
    ------------   -----------------  -----------------  -----------------  -----------------
         O           -1.860311442277     0.107245430893    -0.093023201297    15.994914619570
         C            1.041088457723    -0.057121569107     0.017713598703    12.000000000000
         C           -1.204168542277    -1.182997569107     0.030131598703    12.000000000000
         C            0.298458457723    -1.193043569107     0.012153598703    12.000000000000
         C            0.339308457723     1.226092430893     0.031459598703    12.000000000000
         C            2.542412457723    -0.056984569107     0.005734598703    12.000000000000
         C           -1.010923542277     1.240327430893     0.013014598703    12.000000000000
         H           -1.610247542277    -1.728478569107    -0.832092401297     1.007825032230
         H           -1.590830542277    -1.676192569107     0.933209598703     1.007825032230
         H            0.768505457723    -2.175292569107     0.001574598703     1.007825032230
         H            0.883568457723     2.164264430893     0.044690598703     1.007825032230
         H            2.937160457723     0.458148430893     0.888438598703     1.007825032230
         H            2.924010457723     0.470457430893    -0.875452401297     1.007825032230
         H            2.939269457723    -1.075708569107    -0.004271401297     1.007825032230
         H           -1.614134542277     2.143257430893     0.008025598703     1.007825032230

  Basis Set: AUG-CC-PVTZ
    Blend: AUG-CC-PVTZ
  Basis Set: (AUG-CC-PVTZ AUX)
    Blend: AUG-CC-PVTZ-JKFIT
	 Reference Energy          =    -306.7831780898484340 [Eh]
	 Singles Energy            =      -0.0000000000000000 [Eh]
	 Same-Spin Energy          =      -0.3158669296333056 [Eh]
	 Opposite-Spin Energy      =      -1.0428316747107225 [Eh]
	 Correlation Energy        =      -1.3586986043440281 [Eh]
	 Total Energy              =    -308.1418766941924900 [Eh]

	 ================> DF-SCS-MP2 Energies <==================
	-----------------------------------------------------------
	 SCS Same-Spin Scale       =       0.3333333333333333 [-]
	 SCS Opposite-Spin Scale   =       1.2000000000000000 [-]
	 SCS Same-Spin Energy      =      -0.1052889765444352 [Eh]
	 SCS Opposite-Spin Energy  =      -1.2513980096528670 [Eh]
	 SCS Correlation Energy    =      -1.3566869861973021 [Eh]
	 SCS Total Energy          =    -308.1398650760457372 [Eh]
	-----------------------------------------------------------

  Dipole Moment: [D]
     X:     1.1870      Y:    -0.3731      Z:     0.1183     Total:     1.2498

*** Psi4 exiting successfully. Buy a developer a beer!
