                               Psi4 1.4a3.dev225

  ==> Input File <==

--------------------------------------------------------------------------
#psi4
#
memory 32 gb

molecule  {
0 1
  O       -1.8720150     0.1455040    -0.0239620
  C        0.9797650    -0.0480790     0.0033120
  C       -1.2654920    -1.1739550     0.0157300
  C        0.2371350    -1.1840010    -0.0022480
  C        0.2779850     1.2351350     0.0170580
  C        2.4810890    -0.0479420    -0.0086670
  C       -1.0722470     1.2493700    -0.0013870
  H       -1.6715710    -1.7194360    -0.8464940
  H       -1.6521540    -1.6671500     0.9188080
  H        0.7071820    -2.1662500    -0.0128270
  H        0.8222450     2.1733070     0.0302890
  H        2.8758370     0.4671910     0.8740370
  H        2.9323482     0.5757852    -1.0507157
  H        2.8779460    -1.0666660    -0.0186730
  H       -1.6754580     2.1523000    -0.0063760
units angstrom
no_reorient  #important for SAPT in psi4, default
symmetry c1  #important for SAPT in psi4, default
}

set PROPERTIES_ORIGIN ["COM"]
properties('MP2/aug-cc-pvtz', properties = ['dipole'])
--------------------------------------------------------------------------

    Molecular point group: c1
  Charge       = 0
  Multiplicity = 1
  Basis Set: AUG-CC-PVTZ
    Blend: AUG-CC-PVTZ
  Basis Set: (AUG-CC-PVTZ AUX)
    Blend: AUG-CC-PVTZ-JKFIT

    Orbital Energies [Eh]
    ---------------------

    Doubly Occupied:

       1A    -20.584558     2A    -11.300459     3A    -11.293260
       4A    -11.249334     5A    -11.248600     6A    -11.229049
       7A    -11.218644     8A     -1.399604     9A     -1.106246
      10A     -1.035731    11A     -0.964300    12A     -0.874472
      13A     -0.825460    14A     -0.693721    15A     -0.674899
      16A     -0.657861    17A     -0.650748    18A     -0.586664
      19A     -0.561992    20A     -0.558833    21A     -0.534645
      22A     -0.512130    23A     -0.499796    24A     -0.470808
      25A     -0.407111    26A     -0.286437

  @DF-RHF Final Energy:  -306.77010151802716

   => Energetics <=

    Nuclear Repulsion Energy =            287.7846117534887185
    One-Electron Energy =                -986.2587035317844766
    Two-Electron Energy =                 391.7039902602686539
    Total Energy =                       -306.7701015180271611
  Basis Set: (AUG-CC-PVTZ AUX)
    Blend: AUG-CC-PVTZ-RI
    Molecular point group: c1

    Geometry (in Angstrom), charge = 0, multiplicity = 1:

       Center              X                  Y                   Z               Mass
    ------------   -----------------  -----------------  -----------------  -----------------
         O           -1.819684824751     0.130586345939    -0.021770376887    15.994914619570
         C            1.032095175249    -0.062996654061     0.005503623113    12.000000000000
         C           -1.213161824751    -1.188872654061     0.017921623113    12.000000000000
         C            0.289465175249    -1.198918654061    -0.000056376887    12.000000000000
         C            0.330315175249     1.220217345939     0.019249623113    12.000000000000
         C            2.533419175249    -0.062859654061    -0.006475376887    12.000000000000
         C           -1.019916824751     1.234452345939     0.000804623113    12.000000000000
         H           -1.619240824751    -1.734353654061    -0.844302376887     1.007825032230
         H           -1.599823824751    -1.682067654061     0.920999623113     1.007825032230
         H            0.759512175249    -2.181167654061    -0.010635376887     1.007825032230
         H            0.874575175249     2.158389345939     0.032480623113     1.007825032230
         H            2.928167175249     0.452273345939     0.876228623113     1.007825032230
         H            2.984678375249     0.560867545939    -1.048524076887     1.007825032230
         H            2.930276175249    -1.081583654061    -0.016481376887     1.007825032230
         H           -1.623127824751     2.137382345939    -0.004184376887     1.007825032230

  Basis Set: AUG-CC-PVTZ
    Blend: AUG-CC-PVTZ
  Basis Set: (AUG-CC-PVTZ AUX)
    Blend: AUG-CC-PVTZ-JKFIT
	 Reference Energy          =    -306.7701015180271611 [Eh]
	 Singles Energy            =      -0.0000000000000000 [Eh]
	 Same-Spin Energy          =      -0.3155674675226188 [Eh]
	 Opposite-Spin Energy      =      -1.0422690433938773 [Eh]
	 Correlation Energy        =      -1.3578365109164960 [Eh]
	 Total Energy              =    -308.1279380289436745 [Eh]

	 ================> DF-SCS-MP2 Energies <==================
	-----------------------------------------------------------
	 SCS Same-Spin Scale       =       0.3333333333333333 [-]
	 SCS Opposite-Spin Scale   =       1.2000000000000000 [-]
	 SCS Same-Spin Energy      =      -0.1051891558408729 [Eh]
	 SCS Opposite-Spin Energy  =      -1.2507228520726528 [Eh]
	 SCS Correlation Energy    =      -1.3559120079135256 [Eh]
	 SCS Total Energy          =    -308.1260135259406638 [Eh]
	-----------------------------------------------------------

  Dipole Moment: [D]
     X:     0.7944      Y:    -0.5910      Z:     0.1204     Total:     0.9974

*** Psi4 exiting successfully. Buy a developer a beer!
