                               Psi4 1.4a3.dev225

  ==> Input File <==

--------------------------------------------------------------------------
#psi4
#
memory 32 gb

molecule  {
0 1
  O       -1.8720150     0.1455040    -0.0239620
  C        0.9994763    -0.0612116     0.0031009
  C       -1.2654920    -1.1739550     0.0157300
  C        0.2371350    -1.1840010    -0.0022480
  C        0.2779850     1.2351350     0.0170580
  C        2.4810890    -0.0479420    -0.0086670
  C       -1.0722470     1.2493700    -0.0013870
  H       -1.6715710    -1.7194360    -0.8464940
  H       -1.6521540    -1.6671500     0.9188080
  H        0.7071820    -2.1662500    -0.0128270
  H        0.8222450     2.1733070     0.0302890
  H        2.8758370     0.4671910     0.8740370
  H        2.8626870     0.4795000    -0.8898540
  H        2.8779460    -1.0666660    -0.0186730
  H       -1.6754580     2.1523000    -0.0063760
units angstrom
no_reorient  #important for SAPT in psi4, default
symmetry c1  #important for SAPT in psi4, default
}

set PROPERTIES_ORIGIN ["COM"]
properties('MP2/aug-cc-pvtz', properties = ['dipole'])
--------------------------------------------------------------------------

    Molecular point group: c1
  Charge       = 0
  Multiplicity = 1
  Basis Set: AUG-CC-PVTZ
    Blend: AUG-CC-PVTZ
  Basis Set: (AUG-CC-PVTZ AUX)
    Blend: AUG-CC-PVTZ-JKFIT

    Orbital Energies [Eh]
    ---------------------

    Doubly Occupied:

       1A    -20.583116     2A    -11.299065     3A    -11.292600
       4A    -11.247408     5A    -11.227121     6A    -11.225786
       7A    -11.219085     8A     -1.398159     9A     -1.105409
      10A     -1.033912    11A     -0.974971    12A     -0.876714
      13A     -0.824438    14A     -0.693351    15A     -0.672870
      16A     -0.657388    17A     -0.649693    18A     -0.586994
      19A     -0.574976    20A     -0.559773    21A     -0.552835
      22A     -0.511029    23A     -0.501202    24A     -0.470142
      25A     -0.407313    26A     -0.286610

  @DF-RHF Final Energy:  -306.78926456330498

   => Energetics <=

    Nuclear Repulsion Energy =            288.3648603063386986
    One-Electron Energy =                -987.4443308635131871
    Two-Electron Energy =                 392.2902059938695629
    Total Energy =                       -306.7892645633049824
  Basis Set: (AUG-CC-PVTZ AUX)
    Blend: AUG-CC-PVTZ-RI
    Molecular point group: c1

    Geometry (in Angstrom), charge = 0, multiplicity = 1:

       Center              X                  Y                   Z               Mass
    ------------   -----------------  -----------------  -----------------  -----------------
         O           -1.821416384214     0.133237151919    -0.023431748704    15.994914619570
         C            1.050074915786    -0.073478448081     0.003631151296    12.000000000000
         C           -1.214893384214    -1.186221848081     0.016260251296    12.000000000000
         C            0.287733615786    -1.196267848081    -0.001717748704    12.000000000000
         C            0.328583615786     1.222868151919     0.017588251296    12.000000000000
         C            2.531687615786    -0.060208848081    -0.008136748704    12.000000000000
         C           -1.021648384214     1.237103151919    -0.000856748704    12.000000000000
         H           -1.620972384214    -1.731702848081    -0.845963748704     1.007825032230
         H           -1.601555384214    -1.679416848081     0.919338251296     1.007825032230
         H            0.757780615786    -2.178516848081    -0.012296748704     1.007825032230
         H            0.872843615786     2.161040151919     0.030819251296     1.007825032230
         H            2.926435615786     0.454924151919     0.874567251296     1.007825032230
         H            2.913285615786     0.467233151919    -0.889323748704     1.007825032230
         H            2.928544615786    -1.078932848081    -0.018142748704     1.007825032230
         H           -1.624859384214     2.140033151919    -0.005845748704     1.007825032230

  Basis Set: AUG-CC-PVTZ
    Blend: AUG-CC-PVTZ
  Basis Set: (AUG-CC-PVTZ AUX)
    Blend: AUG-CC-PVTZ-JKFIT
	 Reference Energy          =    -306.7892645633049824 [Eh]
	 Singles Energy            =      -0.0000000000000000 [Eh]
	 Same-Spin Energy          =      -0.3154927156504901 [Eh]
	 Opposite-Spin Energy      =      -1.0407770192161621 [Eh]
	 Correlation Energy        =      -1.3562697348666521 [Eh]
	 Total Energy              =    -308.1455342981716399 [Eh]

	 ================> DF-SCS-MP2 Energies <==================
	-----------------------------------------------------------
	 SCS Same-Spin Scale       =       0.3333333333333333 [-]
	 SCS Opposite-Spin Scale   =       1.2000000000000000 [-]
	 SCS Same-Spin Energy      =      -0.1051642385501634 [Eh]
	 SCS Opposite-Spin Energy  =      -1.2489324230593943 [Eh]
	 SCS Correlation Energy    =      -1.3540966616095578 [Eh]
	 SCS Total Energy          =    -308.1433612249145426 [Eh]
	-----------------------------------------------------------

  Dipole Moment: [D]
     X:     0.9429      Y:    -0.5446      Z:     0.0323     Total:     1.0894

*** Psi4 exiting successfully. Buy a developer a beer!
