                               Psi4 1.4a3.dev225

  ==> Input File <==

--------------------------------------------------------------------------
#psi4
#
memory 32 gb

molecule  {
0 1
  O       -1.8720150     0.1455040    -0.0239620
  C        0.9797650    -0.0480790     0.0033120
  C       -1.2654920    -1.1739550     0.0157300
  C        0.2371350    -1.1840010    -0.0022480
  C        0.2875811     1.2175885     0.0168700
  C        2.4810890    -0.0479420    -0.0086670
  C       -1.0722470     1.2493700    -0.0013870
  H       -1.6715710    -1.7194360    -0.8464940
  H       -1.6521540    -1.6671500     0.9188080
  H        0.7071820    -2.1662500    -0.0128270
  H        0.8222450     2.1733070     0.0302890
  H        2.8758370     0.4671910     0.8740370
  H        2.8626870     0.4795000    -0.8898540
  H        2.8779460    -1.0666660    -0.0186730
  H       -1.6754580     2.1523000    -0.0063760
units angstrom
no_reorient  #important for SAPT in psi4, default
symmetry c1  #important for SAPT in psi4, default
}

set PROPERTIES_ORIGIN ["COM"]
properties('MP2/aug-cc-pvtz', properties = ['dipole'])
--------------------------------------------------------------------------

    Molecular point group: c1
  Charge       = 0
  Multiplicity = 1
  Basis Set: AUG-CC-PVTZ
    Blend: AUG-CC-PVTZ
  Basis Set: (AUG-CC-PVTZ AUX)
    Blend: AUG-CC-PVTZ-JKFIT

    Orbital Energies [Eh]
    ---------------------

    Doubly Occupied:

       1A    -20.584064     2A    -11.302254     3A    -11.291955
       4A    -11.245471     5A    -11.226156     6A    -11.225927
       7A    -11.218859     8A     -1.399212     9A     -1.108322
      10A     -1.033549    11A     -0.971296    12A     -0.875479
      13A     -0.829874    14A     -0.693797    15A     -0.674555
      16A     -0.656466    17A     -0.649754    18A     -0.585498
      19A     -0.573028    20A     -0.558788    21A     -0.549946
      22A     -0.511014    23A     -0.505753    24A     -0.469893
      25A     -0.411647    26A     -0.282804

  @DF-RHF Final Energy:  -306.78832663654123

   => Energetics <=

    Nuclear Repulsion Energy =            288.7247304147890077
    One-Electron Energy =                -988.1553921548895687
    Two-Electron Energy =                 392.6423351035592759
    Total Energy =                       -306.7883266365412283
  Basis Set: (AUG-CC-PVTZ AUX)
    Blend: AUG-CC-PVTZ-RI
    Molecular point group: c1

    Geometry (in Angstrom), charge = 0, multiplicity = 1:

       Center              X                  Y                   Z               Mass
    ------------   -----------------  -----------------  -----------------  -----------------
         O           -1.820152741279     0.133788559063    -0.023434634475    15.994914619570
         C            1.031627258721    -0.059794440937     0.003839365525    12.000000000000
         C           -1.213629741279    -1.185670440937     0.016257365525    12.000000000000
         C            0.288997258721    -1.195716440937    -0.001720634475    12.000000000000
         C            0.339443358721     1.205873059063     0.017397365525    12.000000000000
         C            2.532951258721    -0.059657440937    -0.008139634475    12.000000000000
         C           -1.020384741279     1.237654559063    -0.000859634475    12.000000000000
         H           -1.619708741279    -1.731151440937    -0.845966634475     1.007825032230
         H           -1.600291741279    -1.678865440937     0.919335365525     1.007825032230
         H            0.759044258721    -2.177965440937    -0.012299634475     1.007825032230
         H            0.874107258721     2.161591559063     0.030816365525     1.007825032230
         H            2.927699258721     0.455475559063     0.874564365525     1.007825032230
         H            2.914549258721     0.467784559063    -0.889326634475     1.007825032230
         H            2.929808258721    -1.078381440937    -0.018145634475     1.007825032230
         H           -1.623595741279     2.140584559063    -0.005848634475     1.007825032230

  Basis Set: AUG-CC-PVTZ
    Blend: AUG-CC-PVTZ
  Basis Set: (AUG-CC-PVTZ AUX)
    Blend: AUG-CC-PVTZ-JKFIT
	 Reference Energy          =    -306.7883266365412283 [Eh]
	 Singles Energy            =      -0.0000000000000000 [Eh]
	 Same-Spin Energy          =      -0.3160453832415531 [Eh]
	 Opposite-Spin Energy      =      -1.0413669412427935 [Eh]
	 Correlation Energy        =      -1.3574123244843466 [Eh]
	 Total Energy              =    -308.1457389610255859 [Eh]

	 ================> DF-SCS-MP2 Energies <==================
	-----------------------------------------------------------
	 SCS Same-Spin Scale       =       0.3333333333333333 [-]
	 SCS Opposite-Spin Scale   =       1.2000000000000000 [-]
	 SCS Same-Spin Energy      =      -0.1053484610805177 [Eh]
	 SCS Opposite-Spin Energy  =      -1.2496403294913521 [Eh]
	 SCS Correlation Energy    =      -1.3549887905718698 [Eh]
	 SCS Total Energy          =    -308.1433154271131230 [Eh]
	-----------------------------------------------------------

  Dipole Moment: [D]
     X:     0.8810      Y:    -0.5095      Z:     0.0321     Total:     1.0183

*** Psi4 exiting successfully. Buy a developer a beer!
