                               Psi4 1.4a3.dev225

  ==> Input File <==

--------------------------------------------------------------------------
#psi4
#
memory 32 gb

molecule  {
0 1
  O       -1.8720150     0.1455040    -0.0239620
  C        0.9598275    -0.0352924     0.0035214
  C       -1.2654920    -1.1739550     0.0157300
  C        0.2371350    -1.1840010    -0.0022480
  C        0.2779850     1.2351350     0.0170580
  C        2.4810890    -0.0479420    -0.0086670
  C       -1.0722470     1.2493700    -0.0013870
  H       -1.6715710    -1.7194360    -0.8464940
  H       -1.6521540    -1.6671500     0.9188080
  H        0.7071820    -2.1662500    -0.0128270
  H        0.8222450     2.1733070     0.0302890
  H        2.8758370     0.4671910     0.8740370
  H        2.8626870     0.4795000    -0.8898540
  H        2.8779460    -1.0666660    -0.0186730
  H       -1.6754580     2.1523000    -0.0063760
units angstrom
no_reorient  #important for SAPT in psi4, default
symmetry c1  #important for SAPT in psi4, default
}

set PROPERTIES_ORIGIN ["COM"]
properties('MP2/aug-cc-pvtz', properties = ['dipole'])
--------------------------------------------------------------------------

    Molecular point group: c1
  Charge       = 0
  Multiplicity = 1
  Basis Set: AUG-CC-PVTZ
    Blend: AUG-CC-PVTZ
  Basis Set: (AUG-CC-PVTZ AUX)
    Blend: AUG-CC-PVTZ-JKFIT

    Orbital Energies [Eh]
    ---------------------

    Doubly Occupied:

       1A    -20.584662     2A    -11.301244     3A    -11.291114
       4A    -11.246229     5A    -11.226417     6A    -11.225804
       7A    -11.217295     8A     -1.399595     9A     -1.106994
      10A     -1.035551    11A     -0.968943    12A     -0.875800
      13A     -0.829934    14A     -0.694743    15A     -0.674419
      16A     -0.657917    17A     -0.649830    18A     -0.584975
      19A     -0.570826    20A     -0.555766    21A     -0.551926
      22A     -0.511410    23A     -0.507177    24A     -0.467477
      25A     -0.413150    26A     -0.284328

  @DF-RHF Final Energy:  -306.78895411445433

   => Energetics <=

    Nuclear Repulsion Energy =            288.7118473523695457
    One-Electron Energy =                -988.1345530251629725
    Two-Electron Energy =                 392.6337515583390996
    Total Energy =                       -306.7889541144543273
  Basis Set: (AUG-CC-PVTZ AUX)
    Blend: AUG-CC-PVTZ-RI
    Molecular point group: c1

    Geometry (in Angstrom), charge = 0, multiplicity = 1:

       Center              X                  Y                   Z               Mass
    ------------   -----------------  -----------------  -----------------  -----------------
         O           -1.816463251702     0.129999191824    -0.023484279732    15.994914619570
         C            1.015379248298    -0.050797208176     0.003999120268    12.000000000000
         C           -1.209940251702    -1.189459808176     0.016207720268    12.000000000000
         C            0.292686748298    -1.199505808176    -0.001770279732    12.000000000000
         C            0.333536748298     1.219630191824     0.017535720268    12.000000000000
         C            2.536640748298    -0.063446808176    -0.008189279732    12.000000000000
         C           -1.016695251702     1.233865191824    -0.000909279732    12.000000000000
         H           -1.616019251702    -1.734940808176    -0.846016279732     1.007825032230
         H           -1.596602251702    -1.682654808176     0.919285720268     1.007825032230
         H            0.762733748298    -2.181754808176    -0.012349279732     1.007825032230
         H            0.877796748298     2.157802191823     0.030766720268     1.007825032230
         H            2.931388748298     0.451686191824     0.874514720268     1.007825032230
         H            2.918238748298     0.463995191824    -0.889376279732     1.007825032230
         H            2.933497748298    -1.082170808176    -0.018195279732     1.007825032230
         H           -1.619906251702     2.136795191823    -0.005898279732     1.007825032230

  Basis Set: AUG-CC-PVTZ
    Blend: AUG-CC-PVTZ
  Basis Set: (AUG-CC-PVTZ AUX)
    Blend: AUG-CC-PVTZ-JKFIT
	 Reference Energy          =    -306.7889541144543273 [Eh]
	 Singles Energy            =      -0.0000000000000000 [Eh]
	 Same-Spin Energy          =      -0.3157721642285591 [Eh]
	 Opposite-Spin Energy      =      -1.0409347033420269 [Eh]
	 Correlation Energy        =      -1.3567068675705860 [Eh]
	 Total Energy              =    -308.1456609820249355 [Eh]

	 ================> DF-SCS-MP2 Energies <==================
	-----------------------------------------------------------
	 SCS Same-Spin Scale       =       0.3333333333333333 [-]
	 SCS Opposite-Spin Scale   =       1.2000000000000000 [-]
	 SCS Same-Spin Energy      =      -0.1052573880761864 [Eh]
	 SCS Opposite-Spin Energy  =      -1.2491216440104322 [Eh]
	 SCS Correlation Energy    =      -1.3543790320866187 [Eh]
	 SCS Total Energy          =    -308.1433331465409537 [Eh]
	-----------------------------------------------------------

  Dipole Moment: [D]
     X:     0.8708      Y:    -0.4927      Z:     0.0328     Total:     1.0011

*** Psi4 exiting successfully. Buy a developer a beer!
