                               Psi4 1.4a3.dev225

  ==> Input File <==

--------------------------------------------------------------------------
#psi4
#
memory 32 gb

molecule  {
0 1
  O       -1.8720150     0.1455040    -0.0239620
  C        0.9797650    -0.0480790     0.0033120
  C       -1.3489933    -0.9923024     0.0102655
  C        0.2371350    -1.1840010    -0.0022480
  C        0.2779850     1.2351350     0.0170580
  C        2.4810890    -0.0479420    -0.0086670
  C       -1.0722470     1.2493700    -0.0013870
  H       -1.6715710    -1.7194360    -0.8464940
  H       -1.6521540    -1.6671500     0.9188080
  H        0.7071820    -2.1662500    -0.0128270
  H        0.8222450     2.1733070     0.0302890
  H        2.8758370     0.4671910     0.8740370
  H        2.8626870     0.4795000    -0.8898540
  H        2.8779460    -1.0666660    -0.0186730
  H       -1.6754580     2.1523000    -0.0063760
units angstrom
no_reorient  #important for SAPT in psi4, default
symmetry c1  #important for SAPT in psi4, default
}

set PROPERTIES_ORIGIN ["COM"]
properties('MP2/aug-cc-pvtz', properties = ['dipole'])
--------------------------------------------------------------------------

    Molecular point group: c1
  Charge       = 0
  Multiplicity = 1
  Basis Set: AUG-CC-PVTZ
    Blend: AUG-CC-PVTZ
  Basis Set: (AUG-CC-PVTZ AUX)
    Blend: AUG-CC-PVTZ-JKFIT

    Orbital Energies [Eh]
    ---------------------

    Doubly Occupied:

       1A    -20.599273     2A    -11.307221     3A    -11.297799
       4A    -11.240494     5A    -11.232532     6A    -11.230910
       7A    -11.224563     8A     -1.479843     9A     -1.109083
      10A     -1.041639    11A     -0.964146    12A     -0.892770
      13A     -0.824128    14A     -0.719149    15A     -0.697879
      16A     -0.678595    17A     -0.655799    18A     -0.593385
      19A     -0.572818    20A     -0.571848    21A     -0.559353
      22A     -0.504494    23A     -0.469889    24A     -0.442625
      25A     -0.417534    26A     -0.283421

  @DF-RHF Final Energy:  -306.75126991590940

   => Energetics <=

    Nuclear Repulsion Energy =            290.9833227663064008
    One-Electron Energy =                -992.2468047236219491
    Two-Electron Energy =                 394.5122120414061442
    Total Energy =                       -306.7512699159094041
  Basis Set: (AUG-CC-PVTZ AUX)
    Blend: AUG-CC-PVTZ-RI
    Molecular point group: c1

    Geometry (in Angstrom), charge = 0, multiplicity = 1:

       Center              X                  Y                   Z               Mass
    ------------   -----------------  -----------------  -----------------  -----------------
         O           -1.808522534091     0.108903580485    -0.022775466891    15.994914619570
         C            1.043257465909    -0.084679419515     0.004498533109    12.000000000000
         C           -1.285500834091    -1.028902819515     0.011452033109    12.000000000000
         C            0.300627465909    -1.220601419515    -0.001061466891    12.000000000000
         C            0.341477465909     1.198534580485     0.018244533109    12.000000000000
         C            2.544581465909    -0.084542419515    -0.007480466891    12.000000000000
         C           -1.008754534091     1.212769580485    -0.000200466891    12.000000000000
         H           -1.608078534091    -1.756036419515    -0.845307466891     1.007825032230
         H           -1.588661534091    -1.703750419515     0.919994533109     1.007825032230
         H            0.770674465909    -2.202850419515    -0.011640466891     1.007825032230
         H            0.885737465909     2.136706580485     0.031475533109     1.007825032230
         H            2.939329465909     0.430590580485     0.875223533109     1.007825032230
         H            2.926179465909     0.442899580485    -0.888667466891     1.007825032230
         H            2.941438465909    -1.103266419515    -0.017486466891     1.007825032230
         H           -1.611965534091     2.115699580485    -0.005189466891     1.007825032230

  Basis Set: AUG-CC-PVTZ
    Blend: AUG-CC-PVTZ
  Basis Set: (AUG-CC-PVTZ AUX)
    Blend: AUG-CC-PVTZ-JKFIT
	 Reference Energy          =    -306.7512699159094041 [Eh]
	 Singles Energy            =      -0.0000000000000000 [Eh]
	 Same-Spin Energy          =      -0.3160119776627229 [Eh]
	 Opposite-Spin Energy      =      -1.0402754748260112 [Eh]
	 Correlation Energy        =      -1.3562874524887341 [Eh]
	 Total Energy              =    -308.1075573683981474 [Eh]

	 ================> DF-SCS-MP2 Energies <==================
	-----------------------------------------------------------
	 SCS Same-Spin Scale       =       0.3333333333333333 [-]
	 SCS Opposite-Spin Scale   =       1.2000000000000000 [-]
	 SCS Same-Spin Energy      =      -0.1053373258875743 [Eh]
	 SCS Opposite-Spin Energy  =      -1.2483305697912135 [Eh]
	 SCS Correlation Energy    =      -1.3536678956787878 [Eh]
	 SCS Total Energy          =    -308.1049378115881723 [Eh]
	-----------------------------------------------------------

  Dipole Moment: [D]
     X:     0.9398      Y:     0.2242      Z:    -0.0020     Total:     0.9662

*** Psi4 exiting successfully. Buy a developer a beer!
