                               Psi4 1.4a3.dev225

  ==> Input File <==

--------------------------------------------------------------------------
#psi4
#
memory 32 gb

molecule  {
0 1
  O       -1.8720150     0.1455040    -0.0239620
  C        0.9797650    -0.0480790     0.0033120
  C       -1.2654920    -1.1739550     0.0157300
  C        0.2570726    -1.1967876    -0.0024477
  C        0.2779850     1.2351350     0.0170580
  C        2.4810890    -0.0479420    -0.0086670
  C       -1.0722470     1.2493700    -0.0013870
  H       -1.6715710    -1.7194360    -0.8464940
  H       -1.6521540    -1.6671500     0.9188080
  H        0.7071820    -2.1662500    -0.0128270
  H        0.8222450     2.1733070     0.0302890
  H        2.8758370     0.4671910     0.8740370
  H        2.8626870     0.4795000    -0.8898540
  H        2.8779460    -1.0666660    -0.0186730
  H       -1.6754580     2.1523000    -0.0063760
units angstrom
no_reorient  #important for SAPT in psi4, default
symmetry c1  #important for SAPT in psi4, default
}

set PROPERTIES_ORIGIN ["COM"]
properties('MP2/aug-cc-pvtz', properties = ['dipole'])
--------------------------------------------------------------------------

    Molecular point group: c1
  Charge       = 0
  Multiplicity = 1
  Basis Set: AUG-CC-PVTZ
    Blend: AUG-CC-PVTZ
  Basis Set: (AUG-CC-PVTZ AUX)
    Blend: AUG-CC-PVTZ-JKFIT

    Orbital Energies [Eh]
    ---------------------

    Doubly Occupied:

       1A    -20.584432     2A    -11.300846     3A    -11.292147
       4A    -11.246943     5A    -11.225737     6A    -11.225340
       7A    -11.218776     8A     -1.398809     9A     -1.105488
      10A     -1.033248    11A     -0.970465    12A     -0.877057
      13A     -0.826716    14A     -0.693752    15A     -0.675408
      16A     -0.659132    17A     -0.648841    18A     -0.584935
      19A     -0.572482    20A     -0.557239    21A     -0.553776
      22A     -0.510563    23A     -0.504456    24A     -0.467729
      25A     -0.410138    26A     -0.286239

  @DF-RHF Final Energy:  -306.78934005618936

   => Energetics <=

    Nuclear Repulsion Energy =            288.2579293063242858
    One-Electron Energy =                -987.2331500579007297
    Two-Electron Energy =                 392.1858806953870840
    Total Energy =                       -306.7893400561893600
  Basis Set: (AUG-CC-PVTZ AUX)
    Blend: AUG-CC-PVTZ-RI
    Molecular point group: c1

    Geometry (in Angstrom), charge = 0, multiplicity = 1:

       Center              X                  Y                   Z               Mass
    ------------   -----------------  -----------------  -----------------  -----------------
         O           -1.821444654777     0.133193927815    -0.023433172850    15.994914619570
         C            1.030335345223    -0.060389072185     0.003840827150    12.000000000000
         C           -1.214921654777    -1.186265072185     0.016258827150    12.000000000000
         C            0.307642945223    -1.209097672185    -0.001918872850    12.000000000000
         C            0.328555345223     1.222824927815     0.017586827150    12.000000000000
         C            2.531659345223    -0.060252072185    -0.008138172850    12.000000000000
         C           -1.021676654777     1.237059927815    -0.000858172850    12.000000000000
         H           -1.621000654777    -1.731746072185    -0.845965172850     1.007825032230
         H           -1.601583654777    -1.679460072185     0.919336827150     1.007825032230
         H            0.757752345223    -2.178560072185    -0.012298172850     1.007825032230
         H            0.872815345223     2.160996927815     0.030817827150     1.007825032230
         H            2.926407345223     0.454880927815     0.874565827150     1.007825032230
         H            2.913257345223     0.467189927815    -0.889325172850     1.007825032230
         H            2.928516345223    -1.078976072185    -0.018144172850     1.007825032230
         H           -1.624887654777     2.139989927815    -0.005847172850     1.007825032230

  Basis Set: AUG-CC-PVTZ
    Blend: AUG-CC-PVTZ
  Basis Set: (AUG-CC-PVTZ AUX)
    Blend: AUG-CC-PVTZ-JKFIT
	 Reference Energy          =    -306.7893400561893600 [Eh]
	 Singles Energy            =      -0.0000000000000000 [Eh]
	 Same-Spin Energy          =      -0.3154443100354394 [Eh]
	 Opposite-Spin Energy      =      -1.0406918743852696 [Eh]
	 Correlation Energy        =      -1.3561361844207089 [Eh]
	 Total Energy              =    -308.1454762406100940 [Eh]

	 ================> DF-SCS-MP2 Energies <==================
	-----------------------------------------------------------
	 SCS Same-Spin Scale       =       0.3333333333333333 [-]
	 SCS Opposite-Spin Scale   =       1.2000000000000000 [-]
	 SCS Same-Spin Energy      =      -0.1051481033451465 [Eh]
	 SCS Opposite-Spin Energy  =      -1.2488302492623233 [Eh]
	 SCS Correlation Energy    =      -1.3539783526074698 [Eh]
	 SCS Total Energy          =    -308.1433184087968016 [Eh]
	-----------------------------------------------------------

  Dipole Moment: [D]
     X:     0.8935      Y:    -0.5113      Z:     0.0324     Total:     1.0300

*** Psi4 exiting successfully. Buy a developer a beer!
