                               Psi4 1.4a3.dev225

  ==> Input File <==

--------------------------------------------------------------------------
#psi4
#
memory 32 gb

molecule  {
0 1
  O       -1.8720150     0.1455040    -0.0239620
  C        0.9797650    -0.0480790     0.0033120
  C       -1.2654920    -1.1739550     0.0157300
  C        0.2371350    -1.1840010    -0.0022480
  C        0.2779850     1.2351350     0.0170580
  C        2.4810890    -0.0479420    -0.0086670
  C       -1.0722470     1.2493700    -0.0013870
  H       -1.7455296    -1.8187836    -1.0035296
  H       -1.6521540    -1.6671500     0.9188080
  H        0.7071820    -2.1662500    -0.0128270
  H        0.8222450     2.1733070     0.0302890
  H        2.8758370     0.4671910     0.8740370
  H        2.8626870     0.4795000    -0.8898540
  H        2.8779460    -1.0666660    -0.0186730
  H       -1.6754580     2.1523000    -0.0063760
units angstrom
no_reorient  #important for SAPT in psi4, default
symmetry c1  #important for SAPT in psi4, default
}

set PROPERTIES_ORIGIN ["COM"]
properties('MP2/aug-cc-pvtz', properties = ['dipole'])
--------------------------------------------------------------------------

    Molecular point group: c1
  Charge       = 0
  Multiplicity = 1
  Basis Set: AUG-CC-PVTZ
    Blend: AUG-CC-PVTZ
  Basis Set: (AUG-CC-PVTZ AUX)
    Blend: AUG-CC-PVTZ-JKFIT

    Orbital Energies [Eh]
    ---------------------

    Doubly Occupied:

       1A    -20.587982     2A    -11.314539     3A    -11.302219
       4A    -11.249146     5A    -11.228990     6A    -11.227631
       7A    -11.220442     8A     -1.401629     9A     -1.108021
      10A     -1.031443    11A     -0.972015    12A     -0.870844
      13A     -0.827497    14A     -0.694816    15A     -0.674114
      16A     -0.659591    17A     -0.634479    18A     -0.582915
      19A     -0.573664    20A     -0.559028    21A     -0.553998
      22A     -0.508119    23A     -0.489758    24A     -0.470867
      25A     -0.411603    26A     -0.285833

  @DF-RHF Final Energy:  -306.76977750530216

   => Energetics <=

    Nuclear Repulsion Energy =            287.6504756521813988
    One-Electron Energy =                -985.9581395265564652
    Two-Electron Energy =                 391.5378863690729077
    Total Energy =                       -306.7697775053021587
  Basis Set: (AUG-CC-PVTZ AUX)
    Blend: AUG-CC-PVTZ-RI
    Molecular point group: c1

    Geometry (in Angstrom), charge = 0, multiplicity = 1:

       Center              X                  Y                   Z               Mass
    ------------   -----------------  -----------------  -----------------  -----------------
         O           -1.818177981380     0.132638904068    -0.021810519913    15.994914619570
         C            1.033602018620    -0.060944095932     0.005463480087    12.000000000000
         C           -1.211654981380    -1.186820095932     0.017881480087    12.000000000000
         C            0.290972018620    -1.196866095932    -0.000096519913    12.000000000000
         C            0.331822018620     1.222269904068     0.019209480087    12.000000000000
         C            2.534926018620    -0.060807095932    -0.006515519913    12.000000000000
         C           -1.018409981380     1.236504904068     0.000764480087    12.000000000000
         H           -1.691692581380    -1.831648695932    -1.001378119913     1.007825032230
         H           -1.598316981380    -1.680015095932     0.920959480087     1.007825032230
         H            0.761019018620    -2.179115095932    -0.010675519913     1.007825032230
         H            0.876082018620     2.160441904068     0.032440480087     1.007825032230
         H            2.929674018620     0.454325904068     0.876188480087     1.007825032230
         H            2.916524018620     0.466634904068    -0.887702519913     1.007825032230
         H            2.931783018620    -1.079531095932    -0.016521519913     1.007825032230
         H           -1.621620981380     2.139434904068    -0.004224519913     1.007825032230

  Basis Set: AUG-CC-PVTZ
    Blend: AUG-CC-PVTZ
  Basis Set: (AUG-CC-PVTZ AUX)
    Blend: AUG-CC-PVTZ-JKFIT
	 Reference Energy          =    -306.7697775053021587 [Eh]
	 Singles Energy            =      -0.0000000000000000 [Eh]
	 Same-Spin Energy          =      -0.3160163183595701 [Eh]
	 Opposite-Spin Energy      =      -1.0427253455684620 [Eh]
	 Correlation Energy        =      -1.3587416639280321 [Eh]
	 Total Energy              =    -308.1285191692301737 [Eh]

	 ================> DF-SCS-MP2 Energies <==================
	-----------------------------------------------------------
	 SCS Same-Spin Scale       =       0.3333333333333333 [-]
	 SCS Opposite-Spin Scale   =       1.2000000000000000 [-]
	 SCS Same-Spin Energy      =      -0.1053387727865234 [Eh]
	 SCS Opposite-Spin Energy  =      -1.2512704146821543 [Eh]
	 SCS Correlation Energy    =      -1.3566091874686776 [Eh]
	 SCS Total Energy          =    -308.1263866927708364 [Eh]
	-----------------------------------------------------------

  Dipole Moment: [D]
     X:     1.0487      Y:    -0.3312      Z:     0.1538     Total:     1.1104

*** Psi4 exiting successfully. Buy a developer a beer!
