                               Psi4 1.4a3.dev225

  ==> Input File <==

--------------------------------------------------------------------------
#psi4
#
memory 32 gb

molecule  {
0 1
  O       -1.8720150     0.1455040    -0.0239620
  C        0.9797650    -0.0480790     0.0033120
  C       -1.2654920    -1.1739550     0.0157300
  C        0.2371350    -1.1840010    -0.0022480
  C        0.2779850     1.2351350     0.0170580
  C        2.4810890    -0.0479420    -0.0086670
  C       -1.0722470     1.2493700    -0.0013870
  H       -1.6715710    -1.7194360    -0.8464940
  H       -1.6521540    -1.6671500     0.9188080
  H        0.7071820    -2.1662500    -0.0128270
  H        0.8222450     2.1733070     0.0302890
  H        2.8758370     0.4671910     0.8740370
  H        2.8626870     0.4795000    -0.8898540
  H        2.8416484    -0.9734907    -0.0177578
  H       -1.6754580     2.1523000    -0.0063760
units angstrom
no_reorient  #important for SAPT in psi4, default
symmetry c1  #important for SAPT in psi4, default
}

set PROPERTIES_ORIGIN ["COM"]
properties('MP2/aug-cc-pvtz', properties = ['dipole'])
--------------------------------------------------------------------------

    Molecular point group: c1
  Charge       = 0
  Multiplicity = 1
  Basis Set: AUG-CC-PVTZ
    Blend: AUG-CC-PVTZ
  Basis Set: (AUG-CC-PVTZ AUX)
    Blend: AUG-CC-PVTZ-JKFIT

    Orbital Energies [Eh]
    ---------------------

    Doubly Occupied:

       1A    -20.583556     2A    -11.299620     3A    -11.291691
       4A    -11.246159     5A    -11.226163     6A    -11.217483
       7A    -11.213807     8A     -1.398537     9A     -1.106831
      10A     -1.034419    11A     -0.979345    12A     -0.876848
      13A     -0.830102    14A     -0.695213    15A     -0.675594
      16A     -0.657528    17A     -0.649487    18A     -0.586626
      19A     -0.571756    20A     -0.568303    21A     -0.555791
      22A     -0.511002    23A     -0.507008    24A     -0.469105
      25A     -0.409656    26A     -0.285190

  @DF-RHF Final Energy:  -306.78383403753480

   => Energetics <=

    Nuclear Repulsion Energy =            288.9792178690083801
    One-Electron Energy =                -988.6324676926593611
    Two-Electron Energy =                 392.8694157861161784
    Total Energy =                       -306.7838340375348025
  Basis Set: (AUG-CC-PVTZ AUX)
    Blend: AUG-CC-PVTZ-RI
    Molecular point group: c1

    Geometry (in Angstrom), charge = 0, multiplicity = 1:

       Center              X                  Y                   Z               Mass
    ------------   -----------------  -----------------  -----------------  -----------------
         O           -1.818573116509     0.130618974673    -0.023467722583    15.994914619570
         C            1.033206883491    -0.062964025327     0.003806277417    12.000000000000
         C           -1.212050116509    -1.188840025327     0.016224277417    12.000000000000
         C            0.290576883491    -1.198886025327    -0.001753722583    12.000000000000
         C            0.331426883491     1.220249974673     0.017552277417    12.000000000000
         C            2.534530883491    -0.062827025327    -0.008172722583    12.000000000000
         C           -1.018805116509     1.234484974673    -0.000892722583    12.000000000000
         H           -1.618129116509    -1.734321025327    -0.845999722583     1.007825032230
         H           -1.598712116509    -1.682035025327     0.919302277417     1.007825032230
         H            0.760623883491    -2.181135025327    -0.012332722583     1.007825032230
         H            0.875686883491     2.158421974673     0.030783277417     1.007825032230
         H            2.929278883491     0.452305974673     0.874531277417     1.007825032230
         H            2.916128883491     0.464614974673    -0.889359722583     1.007825032230
         H            2.895090283491    -0.988375725327    -0.017263522583     1.007825032230
         H           -1.622016116509     2.137414974673    -0.005881722583     1.007825032230

  Basis Set: AUG-CC-PVTZ
    Blend: AUG-CC-PVTZ
  Basis Set: (AUG-CC-PVTZ AUX)
    Blend: AUG-CC-PVTZ-JKFIT
	 Reference Energy          =    -306.7838340375348025 [Eh]
	 Singles Energy            =      -0.0000000000000000 [Eh]
	 Same-Spin Energy          =      -0.3155784195432138 [Eh]
	 Opposite-Spin Energy      =      -1.0402182871246728 [Eh]
	 Correlation Energy        =      -1.3557967066678867 [Eh]
	 Total Energy              =    -308.1396307442026909 [Eh]

	 ================> DF-SCS-MP2 Energies <==================
	-----------------------------------------------------------
	 SCS Same-Spin Scale       =       0.3333333333333333 [-]
	 SCS Opposite-Spin Scale   =       1.2000000000000000 [-]
	 SCS Same-Spin Energy      =      -0.1051928065144046 [Eh]
	 SCS Opposite-Spin Energy  =      -1.2482619445496073 [Eh]
	 SCS Correlation Energy    =      -1.3534547510640118 [Eh]
	 SCS Total Energy          =    -308.1372887885988234 [Eh]
	-----------------------------------------------------------

  Dipole Moment: [D]
     X:     0.9483      Y:    -0.5564      Z:     0.0321     Total:     1.1000

*** Psi4 exiting successfully. Buy a developer a beer!
