                               Psi4 1.4a3.dev225

  ==> Input File <==

--------------------------------------------------------------------------
#psi4
#
memory 32 gb

molecule  {
0 1
  O       -1.9452606     0.0993127    -0.1489565
  C        0.9797650    -0.0480790     0.0033120
  C       -1.2654920    -1.1739550     0.0157300
  C        0.2371350    -1.1840010    -0.0022480
  C        0.2779850     1.2351350     0.0170580
  C        2.4810890    -0.0479420    -0.0086670
  C       -1.0722470     1.2493700    -0.0013870
  H       -1.6715710    -1.7194360    -0.8464940
  H       -1.6521540    -1.6671500     0.9188080
  H        0.7071820    -2.1662500    -0.0128270
  H        0.8222450     2.1733070     0.0302890
  H        2.8758370     0.4671910     0.8740370
  H        2.8626870     0.4795000    -0.8898540
  H        2.8779460    -1.0666660    -0.0186730
  H       -1.6754580     2.1523000    -0.0063760
units angstrom
no_reorient  #important for SAPT in psi4, default
symmetry c1  #important for SAPT in psi4, default
}

set PROPERTIES_ORIGIN ["COM"]
properties('MP2/aug-cc-pvtz', properties = ['dipole'])
--------------------------------------------------------------------------

    Molecular point group: c1
  Charge       = 0
  Multiplicity = 1
  Basis Set: AUG-CC-PVTZ
    Blend: AUG-CC-PVTZ
  Basis Set: (AUG-CC-PVTZ AUX)
    Blend: AUG-CC-PVTZ-JKFIT

    Orbital Energies [Eh]
    ---------------------

    Doubly Occupied:

       1A    -20.582050     2A    -11.302980     3A    -11.285971
       4A    -11.248104     5A    -11.231376     6A    -11.230623
       7A    -11.228234     8A     -1.368661     9A     -1.110389
      10A     -1.029242    11A     -0.974326    12A     -0.870724
      13A     -0.827369    14A     -0.687159    15A     -0.670759
      16A     -0.655478    17A     -0.638526    18A     -0.580304
      19A     -0.574996    20A     -0.558170    21A     -0.553446
      22A     -0.504728    23A     -0.491895    24A     -0.474742
      25A     -0.416590    26A     -0.293027

  @DF-RHF Final Energy:  -306.77734489076545

   => Energetics <=

    Nuclear Repulsion Energy =            286.4409053941786851
    One-Electron Energy =                -983.6567538378579911
    Two-Electron Energy =                 390.4385035529138577
    Total Energy =                       -306.7773448907654483
  Basis Set: (AUG-CC-PVTZ AUX)
    Blend: AUG-CC-PVTZ-RI
    Molecular point group: c1

    Geometry (in Angstrom), charge = 0, multiplicity = 1:

       Center              X                  Y                   Z               Mass
    ------------   -----------------  -----------------  -----------------  -----------------
         O           -1.880003134044     0.093096754864    -0.127639294576    15.994914619570
         C            1.045022465956    -0.054294945136     0.024629205424    12.000000000000
         C           -1.200234534044    -1.180170945136     0.037047205424    12.000000000000
         C            0.302392465956    -1.190216945136     0.019069205424    12.000000000000
         C            0.343242465956     1.228919054864     0.038375205424    12.000000000000
         C            2.546346465956    -0.054157945136     0.012650205424    12.000000000000
         C           -1.006989534044     1.243154054864     0.019930205424    12.000000000000
         H           -1.606313534044    -1.725651945136    -0.825176794576     1.007825032230
         H           -1.586896534044    -1.673365945136     0.940125205424     1.007825032230
         H            0.772439465956    -2.172465945136     0.008490205424     1.007825032230
         H            0.887502465956     2.167091054864     0.051606205424     1.007825032230
         H            2.941094465956     0.460975054864     0.895354205424     1.007825032230
         H            2.927944465956     0.473284054864    -0.868536794576     1.007825032230
         H            2.943203465956    -1.072881945136     0.002644205424     1.007825032230
         H           -1.610200534044     2.146084054864     0.014941205424     1.007825032230

  Basis Set: AUG-CC-PVTZ
    Blend: AUG-CC-PVTZ
  Basis Set: (AUG-CC-PVTZ AUX)
    Blend: AUG-CC-PVTZ-JKFIT
	 Reference Energy          =    -306.7773448907654483 [Eh]
	 Singles Energy            =      -0.0000000000000000 [Eh]
	 Same-Spin Energy          =      -0.3160892725476634 [Eh]
	 Opposite-Spin Energy      =      -1.0440539345635154 [Eh]
	 Correlation Energy        =      -1.3601432071111788 [Eh]
	 Total Energy              =    -308.1374880978765987 [Eh]

	 ================> DF-SCS-MP2 Energies <==================
	-----------------------------------------------------------
	 SCS Same-Spin Scale       =       0.3333333333333333 [-]
	 SCS Opposite-Spin Scale   =       1.2000000000000000 [-]
	 SCS Same-Spin Energy      =      -0.1053630908492211 [Eh]
	 SCS Opposite-Spin Energy  =      -1.2528647214762183 [Eh]
	 SCS Correlation Energy    =      -1.3582278123254394 [Eh]
	 SCS Total Energy          =    -308.1355727030908724 [Eh]
	-----------------------------------------------------------

  Dipole Moment: [D]
     X:     1.3243      Y:    -0.2969      Z:     0.1651     Total:     1.3672

*** Psi4 exiting successfully. Buy a developer a beer!
