                               Psi4 1.4a3.dev225

  ==> Input File <==

--------------------------------------------------------------------------
#psi4
#
memory 32 gb

molecule  {
0 1
  O       -1.8720150     0.1455040    -0.0239620
  C        0.9797650    -0.0480790     0.0033120
  C       -1.2654920    -1.1739550     0.0157300
  C        0.2371350    -1.1840010    -0.0022480
  C        0.3259653     1.1474024     0.0161182
  C        2.4810890    -0.0479420    -0.0086670
  C       -1.0722470     1.2493700    -0.0013870
  H       -1.6715710    -1.7194360    -0.8464940
  H       -1.6521540    -1.6671500     0.9188080
  H        0.7071820    -2.1662500    -0.0128270
  H        0.8222450     2.1733070     0.0302890
  H        2.8758370     0.4671910     0.8740370
  H        2.8626870     0.4795000    -0.8898540
  H        2.8779460    -1.0666660    -0.0186730
  H       -1.6754580     2.1523000    -0.0063760
units angstrom
no_reorient  #important for SAPT in psi4, default
symmetry c1  #important for SAPT in psi4, default
}

set PROPERTIES_ORIGIN ["COM"]
properties('MP2/aug-cc-pvtz', properties = ['dipole'])
--------------------------------------------------------------------------

    Molecular point group: c1
  Charge       = 0
  Multiplicity = 1
  Basis Set: AUG-CC-PVTZ
    Blend: AUG-CC-PVTZ
  Basis Set: (AUG-CC-PVTZ AUX)
    Blend: AUG-CC-PVTZ-JKFIT

    Orbital Energies [Eh]
    ---------------------

    Doubly Occupied:

       1A    -20.585558     2A    -11.311676     3A    -11.292424
       4A    -11.239173     5A    -11.225090     6A    -11.224671
       7A    -11.221585     8A     -1.401115     9A     -1.119516
      10A     -1.029602    11A     -0.968432    12A     -0.872708
      13A     -0.840979    14A     -0.695596    15A     -0.677188
      16A     -0.652951    17A     -0.649529    18A     -0.585309
      19A     -0.573785    20A     -0.563427    21A     -0.538881
      22A     -0.513059    23A     -0.509911    24A     -0.467476
      25A     -0.418843    26A     -0.271631

  @DF-RHF Final Energy:  -306.77174674052952

   => Energetics <=

    Nuclear Repulsion Energy =            289.5392488671026854
    One-Electron Energy =                -989.7217579385023782
    Two-Electron Energy =                 393.4107623308701136
    Total Energy =                       -306.7717467405295224
  Basis Set: (AUG-CC-PVTZ AUX)
    Blend: AUG-CC-PVTZ-RI
    Molecular point group: c1

    Geometry (in Angstrom), charge = 0, multiplicity = 1:

       Center              X                  Y                   Z               Mass
    ------------   -----------------  -----------------  -----------------  -----------------
         O           -1.824947893440     0.142556568532    -0.023340715743    15.994914619570
         C            1.026832106560    -0.051026431468     0.003933284257    12.000000000000
         C           -1.218424893440    -1.176902431468     0.016351284257    12.000000000000
         C            0.284202106560    -1.186948431468    -0.001626715743    12.000000000000
         C            0.373032406560     1.144454968532     0.016739484257    12.000000000000
         C            2.528156106560    -0.050889431468    -0.008045715743    12.000000000000
         C           -1.025179893440     1.246422568532    -0.000765715743    12.000000000000
         H           -1.624503893440    -1.722383431468    -0.845872715743     1.007825032230
         H           -1.605086893440    -1.670097431468     0.919429284257     1.007825032230
         H            0.754249106560    -2.169197431468    -0.012205715743     1.007825032230
         H            0.869312106560     2.170359568532     0.030910284257     1.007825032230
         H            2.922904106560     0.464243568532     0.874658284257     1.007825032230
         H            2.909754106560     0.476552568532    -0.889232715743     1.007825032230
         H            2.925013106560    -1.069613431468    -0.018051715743     1.007825032230
         H           -1.628390893440     2.149352568532    -0.005754715743     1.007825032230

  Basis Set: AUG-CC-PVTZ
    Blend: AUG-CC-PVTZ
  Basis Set: (AUG-CC-PVTZ AUX)
    Blend: AUG-CC-PVTZ-JKFIT
	 Reference Energy          =    -306.7717467405295224 [Eh]
	 Singles Energy            =      -0.0000000000000000 [Eh]
	 Same-Spin Energy          =      -0.3182735777964438 [Eh]
	 Opposite-Spin Energy      =      -1.0443476088994319 [Eh]
	 Correlation Energy        =      -1.3626211866958757 [Eh]
	 Total Energy              =    -308.1343679272254121 [Eh]

	 ================> DF-SCS-MP2 Energies <==================
	-----------------------------------------------------------
	 SCS Same-Spin Scale       =       0.3333333333333333 [-]
	 SCS Opposite-Spin Scale   =       1.2000000000000000 [-]
	 SCS Same-Spin Energy      =      -0.1060911925988146 [Eh]
	 SCS Opposite-Spin Energy  =      -1.2532171306793183 [Eh]
	 SCS Correlation Energy    =      -1.3593083232781329 [Eh]
	 SCS Total Energy          =    -308.1310550638076506 [Eh]
	-----------------------------------------------------------

  Dipole Moment: [D]
     X:     0.7768      Y:    -0.4749      Z:     0.0300     Total:     0.9109

*** Psi4 exiting successfully. Buy a developer a beer!
