                               Psi4 1.4a3.dev225

  ==> Input File <==

--------------------------------------------------------------------------
#psi4
#
memory 32 gb

molecule  {
0 1
  O       -1.8720150     0.1455040    -0.0239620
  C        0.8569615     0.0233175     0.0045409
  C       -1.2654920    -1.1739550     0.0157300
  C        0.2371350    -1.1840010    -0.0022480
  C        0.2779850     1.2351350     0.0170580
  C        2.4810890    -0.0479420    -0.0086670
  C       -1.0722470     1.2493700    -0.0013870
  H       -1.6715710    -1.7194360    -0.8464940
  H       -1.6521540    -1.6671500     0.9188080
  H        0.7071820    -2.1662500    -0.0128270
  H        0.8222450     2.1733070     0.0302890
  H        2.8758370     0.4671910     0.8740370
  H        2.8626870     0.4795000    -0.8898540
  H        2.8779460    -1.0666660    -0.0186730
  H       -1.6754580     2.1523000    -0.0063760
units angstrom
no_reorient  #important for SAPT in psi4, default
symmetry c1  #important for SAPT in psi4, default
}

set PROPERTIES_ORIGIN ["COM"]
properties('MP2/aug-cc-pvtz', properties = ['dipole'])
--------------------------------------------------------------------------

    Molecular point group: c1
  Charge       = 0
  Multiplicity = 1
  Basis Set: AUG-CC-PVTZ
    Blend: AUG-CC-PVTZ
  Basis Set: (AUG-CC-PVTZ AUX)
    Blend: AUG-CC-PVTZ-JKFIT

    Orbital Energies [Eh]
    ---------------------

    Doubly Occupied:

       1A    -20.589418     2A    -11.307942     3A    -11.287519
       4A    -11.243976     5A    -11.227017     6A    -11.222859
       7A    -11.212257     8A     -1.404174     9A     -1.117761
      10A     -1.039470    11A     -0.953622    12A     -0.875571
      13A     -0.842427    14A     -0.700270    15A     -0.679825
      16A     -0.658983    17A     -0.650789    18A     -0.585842
      19A     -0.561363    20A     -0.554367    21A     -0.543078
      22A     -0.522340    23A     -0.512347    24A     -0.444860
      25A     -0.429391    26A     -0.278554

  @DF-RHF Final Energy:  -306.76567201871325

   => Energetics <=

    Nuclear Repulsion Energy =            289.7288138353568456
    One-Electron Energy =                -990.0969265849442991
    Two-Electron Energy =                 393.6024407308742070
    Total Energy =                       -306.7656720187132464
  Basis Set: (AUG-CC-PVTZ AUX)
    Blend: AUG-CC-PVTZ-RI
    Molecular point group: c1

    Geometry (in Angstrom), charge = 0, multiplicity = 1:

       Center              X                  Y                   Z               Mass
    ------------   -----------------  -----------------  -----------------  -----------------
         O           -1.803612700638     0.122677340942    -0.023611640928    15.994914619570
         C            0.925363799362     0.000490840942     0.004891259072    12.000000000000
         C           -1.197089700638    -1.196781659058     0.016080359072    12.000000000000
         C            0.305537299362    -1.206827659058    -0.001897640928    12.000000000000
         C            0.346387299362     1.212308340942     0.017408359072    12.000000000000
         C            2.549491299362    -0.070768659058    -0.008316640928    12.000000000000
         C           -1.003844700638     1.226543340942    -0.001036640928    12.000000000000
         H           -1.603168700638    -1.742262659058    -0.846143640928     1.007825032230
         H           -1.583751700638    -1.689976659058     0.919158359072     1.007825032230
         H            0.775584299362    -2.189076659058    -0.012476640928     1.007825032230
         H            0.890647299362     2.150480340942     0.030639359072     1.007825032230
         H            2.944239299362     0.444364340942     0.874387359072     1.007825032230
         H            2.931089299362     0.456673340942    -0.889503640928     1.007825032230
         H            2.946348299362    -1.089492659058    -0.018322640928     1.007825032230
         H           -1.607055700638     2.129473340942    -0.006025640928     1.007825032230

  Basis Set: AUG-CC-PVTZ
    Blend: AUG-CC-PVTZ
  Basis Set: (AUG-CC-PVTZ AUX)
    Blend: AUG-CC-PVTZ-JKFIT
	 Reference Energy          =    -306.7656720187132464 [Eh]
	 Singles Energy            =      -0.0000000000000000 [Eh]
	 Same-Spin Energy          =      -0.3174167870255202 [Eh]
	 Opposite-Spin Energy      =      -1.0428694227697686 [Eh]
	 Correlation Energy        =      -1.3602862097952888 [Eh]
	 Total Energy              =    -308.1259582285085230 [Eh]

	 ================> DF-SCS-MP2 Energies <==================
	-----------------------------------------------------------
	 SCS Same-Spin Scale       =       0.3333333333333333 [-]
	 SCS Opposite-Spin Scale   =       1.2000000000000000 [-]
	 SCS Same-Spin Energy      =      -0.1058055956751734 [Eh]
	 SCS Opposite-Spin Energy  =      -1.2514433073237223 [Eh]
	 SCS Correlation Energy    =      -1.3572489029988957 [Eh]
	 SCS Total Energy          =    -308.1229209217121365 [Eh]
	-----------------------------------------------------------

  Dipole Moment: [D]
     X:     0.6713      Y:    -0.3430      Z:     0.0341     Total:     0.7546

*** Psi4 exiting successfully. Buy a developer a beer!
