                               Psi4 1.4a3.dev225

  ==> Input File <==

--------------------------------------------------------------------------
#psi4
#
memory 32 gb

molecule  {
0 1
  O       -1.8720150     0.1455040    -0.0239620
  C        0.9806815    -0.1004749     0.0029529
  C       -1.2654920    -1.1739550     0.0157300
  C        0.2371350    -1.1840010    -0.0022480
  C        0.2779850     1.2351350     0.0170580
  C        2.4810890    -0.0479420    -0.0086670
  C       -1.0722470     1.2493700    -0.0013870
  H       -1.6715710    -1.7194360    -0.8464940
  H       -1.6521540    -1.6671500     0.9188080
  H        0.7071820    -2.1662500    -0.0128270
  H        0.8222450     2.1733070     0.0302890
  H        2.8758370     0.4671910     0.8740370
  H        2.8626870     0.4795000    -0.8898540
  H        2.8779460    -1.0666660    -0.0186730
  H       -1.6754580     2.1523000    -0.0063760
units angstrom
no_reorient  #important for SAPT in psi4, default
symmetry c1  #important for SAPT in psi4, default
}

set PROPERTIES_ORIGIN ["COM"]
properties('MP2/aug-cc-pvtz', properties = ['dipole'])
--------------------------------------------------------------------------

    Molecular point group: c1
  Charge       = 0
  Multiplicity = 1
  Basis Set: AUG-CC-PVTZ
    Blend: AUG-CC-PVTZ
  Basis Set: (AUG-CC-PVTZ AUX)
    Blend: AUG-CC-PVTZ-JKFIT

    Orbital Energies [Eh]
    ---------------------

    Doubly Occupied:

       1A    -20.582524     2A    -11.297330     3A    -11.292864
       4A    -11.243468     5A    -11.226291     6A    -11.222691
       7A    -11.219325     8A     -1.397729     9A     -1.107255
      10A     -1.033883    11A     -0.971634    12A     -0.883864
      13A     -0.819855    14A     -0.692586    15A     -0.671145
      16A     -0.657482    17A     -0.650079    18A     -0.589646
      19A     -0.573001    20A     -0.555730    21A     -0.551858
      22A     -0.510984    23A     -0.506090    24A     -0.461698
      25A     -0.410402    26A     -0.293177

  @DF-RHF Final Energy:  -306.78975974468011

   => Energetics <=

    Nuclear Repulsion Energy =            288.5618176255221101
    One-Electron Energy =                -987.8579741255495037
    Two-Electron Energy =                 392.5063967553472253
    Total Energy =                       -306.7897597446801115
  Basis Set: (AUG-CC-PVTZ AUX)
    Blend: AUG-CC-PVTZ-RI
    Molecular point group: c1

    Geometry (in Angstrom), charge = 0, multiplicity = 1:

       Center              X                  Y                   Z               Mass
    ------------   -----------------  -----------------  -----------------  -----------------
         O           -1.819068440898     0.138142125783    -0.023413259781    15.994914619570
         C            1.033628059102    -0.107836774217     0.003501640219    12.000000000000
         C           -1.212545440898    -1.181316874217     0.016278740219    12.000000000000
         C            0.290081559102    -1.191362874217    -0.001699259781    12.000000000000
         C            0.330931559102     1.227773125783     0.017606740219    12.000000000000
         C            2.534035559102    -0.055303874217    -0.008118259781    12.000000000000
         C           -1.019300440898     1.242008125783    -0.000838259781    12.000000000000
         H           -1.618624440898    -1.726797874217    -0.845945259781     1.007825032230
         H           -1.599207440898    -1.674511874217     0.919356740219     1.007825032230
         H            0.760128559102    -2.173611874217    -0.012278259781     1.007825032230
         H            0.875191559102     2.165945125783     0.030837740219     1.007825032230
         H            2.928783559102     0.459829125783     0.874585740219     1.007825032230
         H            2.915633559102     0.472138125783    -0.889305259781     1.007825032230
         H            2.930892559102    -1.074027874217    -0.018124259781     1.007825032230
         H           -1.622511440898     2.144938125783    -0.005827259781     1.007825032230

  Basis Set: AUG-CC-PVTZ
    Blend: AUG-CC-PVTZ
  Basis Set: (AUG-CC-PVTZ AUX)
    Blend: AUG-CC-PVTZ-JKFIT
	 Reference Energy          =    -306.7897597446801115 [Eh]
	 Singles Energy            =      -0.0000000000000000 [Eh]
	 Same-Spin Energy          =      -0.3146427820708240 [Eh]
	 Opposite-Spin Energy      =      -1.0394543985134339 [Eh]
	 Correlation Energy        =      -1.3540971805842579 [Eh]
	 Total Energy              =    -308.1438569252643447 [Eh]

	 ================> DF-SCS-MP2 Energies <==================
	-----------------------------------------------------------
	 SCS Same-Spin Scale       =       0.3333333333333333 [-]
	 SCS Opposite-Spin Scale   =       1.2000000000000000 [-]
	 SCS Same-Spin Energy      =      -0.1048809273569413 [Eh]
	 SCS Opposite-Spin Energy  =      -1.2473452782161207 [Eh]
	 SCS Correlation Energy    =      -1.3522262055730621 [Eh]
	 SCS Total Energy          =    -308.1419859502531722 [Eh]
	-----------------------------------------------------------

  Dipole Moment: [D]
     X:     0.9319      Y:    -0.5787      Z:     0.0324     Total:     1.0975

*** Psi4 exiting successfully. Buy a developer a beer!
