                               Psi4 1.4a3.dev225

  ==> Input File <==

--------------------------------------------------------------------------
#psi4
#
memory 32 gb

molecule  {
0 1
  O       -1.8720150     0.1455040    -0.0239620
  C        0.9797650    -0.0480790     0.0033120
  C       -1.2654400    -1.2001825     0.0155966
  C        0.2371350    -1.1840010    -0.0022480
  C        0.2779850     1.2351350     0.0170580
  C        2.4810890    -0.0479420    -0.0086670
  C       -1.0722470     1.2493700    -0.0013870
  H       -1.6715710    -1.7194360    -0.8464940
  H       -1.6521540    -1.6671500     0.9188080
  H        0.7071820    -2.1662500    -0.0128270
  H        0.8222450     2.1733070     0.0302890
  H        2.8758370     0.4671910     0.8740370
  H        2.8626870     0.4795000    -0.8898540
  H        2.8779460    -1.0666660    -0.0186730
  H       -1.6754580     2.1523000    -0.0063760
units angstrom
no_reorient  #important for SAPT in psi4, default
symmetry c1  #important for SAPT in psi4, default
}

set PROPERTIES_ORIGIN ["COM"]
properties('MP2/aug-cc-pvtz', properties = ['dipole'])
--------------------------------------------------------------------------

    Molecular point group: c1
  Charge       = 0
  Multiplicity = 1
  Basis Set: AUG-CC-PVTZ
    Blend: AUG-CC-PVTZ
  Basis Set: (AUG-CC-PVTZ AUX)
    Blend: AUG-CC-PVTZ-JKFIT

    Orbital Energies [Eh]
    ---------------------

    Doubly Occupied:

       1A    -20.581418     2A    -11.299324     3A    -11.292034
       4A    -11.247555     5A    -11.226269     6A    -11.226173
       7A    -11.216795     8A     -1.391317     9A     -1.105392
      10A     -1.034244    11A     -0.972129    12A     -0.876427
      13A     -0.826022    14A     -0.691475    15A     -0.671710
      16A     -0.657548    17A     -0.650098    18A     -0.586085
      19A     -0.572953    20A     -0.554292    21A     -0.551380
      22A     -0.515544    23A     -0.505085    24A     -0.467573
      25A     -0.409270    26A     -0.285809

  @DF-RHF Final Energy:  -306.78881112555757

   => Energetics <=

    Nuclear Repulsion Energy =            288.1293868962662259
    One-Electron Energy =                -987.0085543785713753
    Two-Electron Energy =                 392.0903563567475203
    Total Energy =                       -306.7888111255575723
  Basis Set: (AUG-CC-PVTZ AUX)
    Blend: AUG-CC-PVTZ-RI
    Molecular point group: c1

    Geometry (in Angstrom), charge = 0, multiplicity = 1:

       Center              X                  Y                   Z               Mass
    ------------   -----------------  -----------------  -----------------  -----------------
         O           -1.818960443101     0.134873034340    -0.023441455388    15.994914619570
         C            1.032819556899    -0.058709965660     0.003832544612    12.000000000000
         C           -1.212385443101    -1.210813465660     0.016117144612    12.000000000000
         C            0.290189556899    -1.194631965660    -0.001727455388    12.000000000000
         C            0.331039556899     1.224504034340     0.017578544612    12.000000000000
         C            2.534143556899    -0.058572965660    -0.008146455388    12.000000000000
         C           -1.019192443101     1.238739034340    -0.000866455388    12.000000000000
         H           -1.618516443101    -1.730066965660    -0.845973455388     1.007825032230
         H           -1.599099443101    -1.677780965660     0.919328544612     1.007825032230
         H            0.760236556899    -2.176880965660    -0.012306455388     1.007825032230
         H            0.875299556899     2.162676034340     0.030809544612     1.007825032230
         H            2.928891556899     0.456560034340     0.874557544612     1.007825032230
         H            2.915741556899     0.468869034340    -0.889333455388     1.007825032230
         H            2.931000556899    -1.077296965660    -0.018152455388     1.007825032230
         H           -1.622403443101     2.141669034340    -0.005855455388     1.007825032230

  Basis Set: AUG-CC-PVTZ
    Blend: AUG-CC-PVTZ
  Basis Set: (AUG-CC-PVTZ AUX)
    Blend: AUG-CC-PVTZ-JKFIT
	 Reference Energy          =    -306.7888111255575723 [Eh]
	 Singles Energy            =      -0.0000000000000000 [Eh]
	 Same-Spin Energy          =      -0.3156330386657070 [Eh]
	 Opposite-Spin Energy      =      -1.0410771874691840 [Eh]
	 Correlation Energy        =      -1.3567102261348909 [Eh]
	 Total Energy              =    -308.1455213516924800 [Eh]

	 ================> DF-SCS-MP2 Energies <==================
	-----------------------------------------------------------
	 SCS Same-Spin Scale       =       0.3333333333333333 [-]
	 SCS Opposite-Spin Scale   =       1.2000000000000000 [-]
	 SCS Same-Spin Energy      =      -0.1052110128885690 [Eh]
	 SCS Opposite-Spin Energy  =      -1.2492926249630207 [Eh]
	 SCS Correlation Energy    =      -1.3545036378515898 [Eh]
	 SCS Total Energy          =    -308.1433147634091370 [Eh]
	-----------------------------------------------------------

  Dipole Moment: [D]
     X:     0.8945      Y:    -0.6001      Z:     0.0349     Total:     1.0778

*** Psi4 exiting successfully. Buy a developer a beer!
