                               Psi4 1.4a3.dev225

  ==> Input File <==

--------------------------------------------------------------------------
#psi4
#
memory 32 gb

molecule  {
0 1
  O       -1.8720150     0.1455040    -0.0239620
  C        0.9797650    -0.0480790     0.0033120
  C       -1.2654920    -1.1739550     0.0157300
  C        0.2371350    -1.1840010    -0.0022480
  C        0.2779850     1.2351350     0.0170580
  C        2.4810890    -0.0479420    -0.0086670
  C       -1.0722470     1.2493700    -0.0013870
  H       -1.6715710    -1.7194360    -0.8464940
  H       -1.6521540    -1.6671500     0.9188080
  H        0.7071820    -2.1662500    -0.0128270
  H        0.8222450     2.1733070     0.0302890
  H        2.8758370     0.4671910     0.8740370
  H        2.8278564     0.4313574    -0.8094231
  H        2.8779460    -1.0666660    -0.0186730
  H       -1.6754580     2.1523000    -0.0063760
units angstrom
no_reorient  #important for SAPT in psi4, default
symmetry c1  #important for SAPT in psi4, default
}

set PROPERTIES_ORIGIN ["COM"]
properties('MP2/aug-cc-pvtz', properties = ['dipole'])
--------------------------------------------------------------------------

    Molecular point group: c1
  Charge       = 0
  Multiplicity = 1
  Basis Set: AUG-CC-PVTZ
    Blend: AUG-CC-PVTZ
  Basis Set: (AUG-CC-PVTZ AUX)
    Blend: AUG-CC-PVTZ-JKFIT

    Orbital Energies [Eh]
    ---------------------

    Doubly Occupied:

       1A    -20.583683     2A    -11.300057     3A    -11.291430
       4A    -11.245981     5A    -11.225705     6A    -11.218147
       7A    -11.213742     8A     -1.398649     9A     -1.106800
      10A     -1.034452    11A     -0.979437    12A     -0.878042
      13A     -0.828844    14A     -0.694872    15A     -0.673210
      16A     -0.658246    17A     -0.649483    18A     -0.592852
      19A     -0.582103    20A     -0.557546    21A     -0.552969
      22A     -0.510920    23A     -0.504621    24A     -0.469015
      25A     -0.411238    26A     -0.285194

  @DF-RHF Final Energy:  -306.78371474597077

   => Energetics <=

    Nuclear Repulsion Energy =            288.9822571604625523
    One-Electron Energy =                -988.6374670919636856
    Two-Electron Energy =                 392.8714951855303070
    Total Energy =                       -306.7837147459707694
  Basis Set: (AUG-CC-PVTZ AUX)
    Blend: AUG-CC-PVTZ-RI
    Molecular point group: c1

    Geometry (in Angstrom), charge = 0, multiplicity = 1:

       Center              X                  Y                   Z               Mass
    ------------   -----------------  -----------------  -----------------  -----------------
         O           -1.818588508114     0.132101666759    -0.024301992687    15.994914619570
         C            1.033191491886    -0.061481333241     0.002972007313    12.000000000000
         C           -1.212065508114    -1.187357333241     0.015390007313    12.000000000000
         C            0.290561491886    -1.197403333241    -0.002587992687    12.000000000000
         C            0.331411491886     1.221732666759     0.016718007313    12.000000000000
         C            2.534515491886    -0.061344333241    -0.009006992687    12.000000000000
         C           -1.018820508114     1.235967666759    -0.001726992687    12.000000000000
         H           -1.618144508114    -1.732838333241    -0.846833992687     1.007825032230
         H           -1.598727508114    -1.680552333241     0.918468007313     1.007825032230
         H            0.760608491886    -2.179652333241    -0.013166992687     1.007825032230
         H            0.875671491886     2.159904666759     0.029949007313     1.007825032230
         H            2.929263491886     0.453788666759     0.873697007313     1.007825032230
         H            2.881282891886     0.417955066759    -0.809763092687     1.007825032230
         H            2.931372491886    -1.080068333241    -0.019012992687     1.007825032230
         H           -1.622031508114     2.138897666759    -0.006715992687     1.007825032230

  Basis Set: AUG-CC-PVTZ
    Blend: AUG-CC-PVTZ
  Basis Set: (AUG-CC-PVTZ AUX)
    Blend: AUG-CC-PVTZ-JKFIT
	 Reference Energy          =    -306.7837147459707694 [Eh]
	 Singles Energy            =      -0.0000000000000000 [Eh]
	 Same-Spin Energy          =      -0.3156493480083848 [Eh]
	 Opposite-Spin Energy      =      -1.0403678732041408 [Eh]
	 Correlation Energy        =      -1.3560172212125257 [Eh]
	 Total Energy              =    -308.1397319671833088 [Eh]

	 ================> DF-SCS-MP2 Energies <==================
	-----------------------------------------------------------
	 SCS Same-Spin Scale       =       0.3333333333333333 [-]
	 SCS Opposite-Spin Scale   =       1.2000000000000000 [-]
	 SCS Same-Spin Energy      =      -0.1052164493361283 [Eh]
	 SCS Opposite-Spin Energy  =      -1.2484414478449690 [Eh]
	 SCS Correlation Energy    =      -1.3536578971810973 [Eh]
	 SCS Total Energy          =    -308.1373726431518776 [Eh]
	-----------------------------------------------------------

  Dipole Moment: [D]
     X:     0.9421      Y:    -0.4964      Z:     0.0059     Total:     1.0649

*** Psi4 exiting successfully. Buy a developer a beer!
