                               Psi4 1.4a3.dev225

  ==> Input File <==

--------------------------------------------------------------------------
#psi4
#
memory 32 gb

molecule  {
0 1
  O       -1.8720150     0.1455040    -0.0239620
  C        0.9797650    -0.0480790     0.0033120
  C       -1.2611246    -1.0691554     0.0162083
  C        0.2371350    -1.1840010    -0.0022480
  C        0.2779850     1.2351350     0.0170580
  C        2.4810890    -0.0479420    -0.0086670
  C       -1.0722470     1.2493700    -0.0013870
  H       -1.6715710    -1.7194360    -0.8464940
  H       -1.6521540    -1.6671500     0.9188080
  H        0.7071820    -2.1662500    -0.0128270
  H        0.8222450     2.1733070     0.0302890
  H        2.8758370     0.4671910     0.8740370
  H        2.8626870     0.4795000    -0.8898540
  H        2.8779460    -1.0666660    -0.0186730
  H       -1.6754580     2.1523000    -0.0063760
units angstrom
no_reorient  #important for SAPT in psi4, default
symmetry c1  #important for SAPT in psi4, default
}

set PROPERTIES_ORIGIN ["COM"]
properties('MP2/aug-cc-pvtz', properties = ['dipole'])
--------------------------------------------------------------------------

    Molecular point group: c1
  Charge       = 0
  Multiplicity = 1
  Basis Set: AUG-CC-PVTZ
    Blend: AUG-CC-PVTZ
  Basis Set: (AUG-CC-PVTZ AUX)
    Blend: AUG-CC-PVTZ-JKFIT

    Orbital Energies [Eh]
    ---------------------

    Doubly Occupied:

       1A    -20.593249     2A    -11.303444     3A    -11.294194
       4A    -11.244163     5A    -11.228765     6A    -11.225734
       7A    -11.224396     8A     -1.433504     9A     -1.109407
      10A     -1.038018    11A     -0.971666    12A     -0.879655
      13A     -0.829362    14A     -0.706245    15A     -0.683762
      16A     -0.657999    17A     -0.654198    18A     -0.583877
      19A     -0.573148    20A     -0.572684    21A     -0.556385
      22A     -0.501728    23A     -0.487929    24A     -0.471191
      25A     -0.414337    26A     -0.283265

  @DF-RHF Final Energy:  -306.78008999963987

   => Energetics <=

    Nuclear Repulsion Energy =            290.2455583124324221
    One-Electron Energy =                -991.0066884194178556
    Two-Electron Energy =                 393.9810401073455637
    Total Energy =                       -306.7800899996398698
  Basis Set: (AUG-CC-PVTZ AUX)
    Blend: AUG-CC-PVTZ-RI
    Molecular point group: c1

    Geometry (in Angstrom), charge = 0, multiplicity = 1:

       Center              X                  Y                   Z               Mass
    ------------   -----------------  -----------------  -----------------  -----------------
         O           -1.819499545118     0.118504453474    -0.023517872106    15.994914619570
         C            1.032280454882    -0.075078546526     0.003756127894    12.000000000000
         C           -1.208609145118    -1.096154946526     0.016652427894    12.000000000000
         C            0.289650454882    -1.211000546526    -0.001803872106    12.000000000000
         C            0.330500454882     1.208135453474     0.017502127894    12.000000000000
         C            2.533604454882    -0.074941546526    -0.008222872106    12.000000000000
         C           -1.019731545118     1.222370453474    -0.000942872106    12.000000000000
         H           -1.619055545118    -1.746435546526    -0.846049872106     1.007825032230
         H           -1.599638545118    -1.694149546526     0.919252127894     1.007825032230
         H            0.759697454882    -2.193249546526    -0.012382872106     1.007825032230
         H            0.874760454882     2.146307453474     0.030733127894     1.007825032230
         H            2.928352454882     0.440191453474     0.874481127894     1.007825032230
         H            2.915202454882     0.452500453474    -0.889409872106     1.007825032230
         H            2.930461454882    -1.093665546526    -0.018228872106     1.007825032230
         H           -1.622942545118     2.125300453474    -0.005931872106     1.007825032230

  Basis Set: AUG-CC-PVTZ
    Blend: AUG-CC-PVTZ
  Basis Set: (AUG-CC-PVTZ AUX)
    Blend: AUG-CC-PVTZ-JKFIT
	 Reference Energy          =    -306.7800899996398698 [Eh]
	 Singles Energy            =      -0.0000000000000000 [Eh]
	 Same-Spin Energy          =      -0.3159123235992711 [Eh]
	 Opposite-Spin Energy      =      -1.0405281357004732 [Eh]
	 Correlation Energy        =      -1.3564404592997443 [Eh]
	 Total Energy              =    -308.1365304589396032 [Eh]

	 ================> DF-SCS-MP2 Energies <==================
	-----------------------------------------------------------
	 SCS Same-Spin Scale       =       0.3333333333333333 [-]
	 SCS Opposite-Spin Scale   =       1.2000000000000000 [-]
	 SCS Same-Spin Energy      =      -0.1053041078664237 [Eh]
	 SCS Opposite-Spin Energy  =      -1.2486337628405677 [Eh]
	 SCS Correlation Energy    =      -1.3539378707069913 [Eh]
	 SCS Total Energy          =    -308.1340278703468698 [Eh]
	-----------------------------------------------------------

  Dipole Moment: [D]
     X:     0.9807      Y:    -0.1608      Z:     0.0221     Total:     0.9940

*** Psi4 exiting successfully. Buy a developer a beer!
