                               Psi4 1.4a3.dev225

  ==> Input File <==

--------------------------------------------------------------------------
#psi4
#
memory 32 gb

molecule  {
0 1
  O       -1.8720150     0.1455040    -0.0239620
  C        0.9797650    -0.0480790     0.0033120
  C       -1.2654920    -1.1739550     0.0157300
  C        0.1224676    -1.1001586    -0.0010164
  C        0.2779850     1.2351350     0.0170580
  C        2.4810890    -0.0479420    -0.0086670
  C       -1.0722470     1.2493700    -0.0013870
  H       -1.6715710    -1.7194360    -0.8464940
  H       -1.6521540    -1.6671500     0.9188080
  H        0.7071820    -2.1662500    -0.0128270
  H        0.8222450     2.1733070     0.0302890
  H        2.8758370     0.4671910     0.8740370
  H        2.8626870     0.4795000    -0.8898540
  H        2.8779460    -1.0666660    -0.0186730
  H       -1.6754580     2.1523000    -0.0063760
units angstrom
no_reorient  #important for SAPT in psi4, default
symmetry c1  #important for SAPT in psi4, default
}

set PROPERTIES_ORIGIN ["COM"]
properties('MP2/aug-cc-pvtz', properties = ['dipole'])
--------------------------------------------------------------------------

    Molecular point group: c1
  Charge       = 0
  Multiplicity = 1
  Basis Set: AUG-CC-PVTZ
    Blend: AUG-CC-PVTZ
  Basis Set: (AUG-CC-PVTZ AUX)
    Blend: AUG-CC-PVTZ-JKFIT

    Orbital Energies [Eh]
    ---------------------

    Doubly Occupied:

       1A    -20.580612     2A    -11.296342     3A    -11.289462
       4A    -11.248364     5A    -11.232500     6A    -11.231357
       7A    -11.215696     8A     -1.400238     9A     -1.111392
      10A     -1.047572    11A     -0.979956    12A     -0.873922
      13A     -0.830413    14A     -0.699042    15A     -0.672569
      16A     -0.657891    17A     -0.645863    18A     -0.589176
      19A     -0.575833    20A     -0.564774    21A     -0.543469
      22A     -0.515091    23A     -0.508085    24A     -0.457422
      25A     -0.411219    26A     -0.281667

  @DF-RHF Final Energy:  -306.76580312240725

   => Energetics <=

    Nuclear Repulsion Energy =            290.3481962351560810
    One-Electron Energy =                -991.3081431315205236
    Two-Electron Energy =                 394.1941437739572507
    Total Energy =                       -306.7658031224072488
  Basis Set: (AUG-CC-PVTZ AUX)
    Blend: AUG-CC-PVTZ-RI
    Molecular point group: c1

    Geometry (in Angstrom), charge = 0, multiplicity = 1:

       Center              X                  Y                   Z               Mass
    ------------   -----------------  -----------------  -----------------  -----------------
         O           -1.804629104197     0.121122534947    -0.023611978226    15.994914619570
         C            1.047150895803    -0.072460465053     0.003662021774    12.000000000000
         C           -1.198106104197    -1.198336465053     0.016080021774    12.000000000000
         C            0.189853495803    -1.124540065053    -0.000666378226    12.000000000000
         C            0.345370895803     1.210753534947     0.017408021774    12.000000000000
         C            2.548474895803    -0.072323465053    -0.008316978226    12.000000000000
         C           -1.004861104197     1.224988534947    -0.001036978226    12.000000000000
         H           -1.604185104197    -1.743817465053    -0.846143978226     1.007825032230
         H           -1.584768104197    -1.691531465053     0.919158021774     1.007825032230
         H            0.774567895803    -2.190631465053    -0.012476978226     1.007825032230
         H            0.889630895803     2.148925534947     0.030639021774     1.007825032230
         H            2.943222895803     0.442809534947     0.874387021774     1.007825032230
         H            2.930072895803     0.455118534947    -0.889503978226     1.007825032230
         H            2.945331895803    -1.091047465053    -0.018322978226     1.007825032230
         H           -1.608072104197     2.127918534947    -0.006025978226     1.007825032230

  Basis Set: AUG-CC-PVTZ
    Blend: AUG-CC-PVTZ
  Basis Set: (AUG-CC-PVTZ AUX)
    Blend: AUG-CC-PVTZ-JKFIT
	 Reference Energy          =    -306.7658031224072488 [Eh]
	 Singles Energy            =      -0.0000000000000000 [Eh]
	 Same-Spin Energy          =      -0.3174016318394009 [Eh]
	 Opposite-Spin Energy      =      -1.0431997444945500 [Eh]
	 Correlation Energy        =      -1.3606013763339508 [Eh]
	 Total Energy              =    -308.1264044987411808 [Eh]

	 ================> DF-SCS-MP2 Energies <==================
	-----------------------------------------------------------
	 SCS Same-Spin Scale       =       0.3333333333333333 [-]
	 SCS Opposite-Spin Scale   =       1.2000000000000000 [-]
	 SCS Same-Spin Energy      =      -0.1058005439464670 [Eh]
	 SCS Opposite-Spin Energy  =      -1.2518396933934599 [Eh]
	 SCS Correlation Energy    =      -1.3576402373399268 [Eh]
	 SCS Total Energy          =    -308.1234433597471707 [Eh]
	-----------------------------------------------------------

  Dipole Moment: [D]
     X:     0.9845      Y:    -0.5169      Z:     0.0331     Total:     1.1125

*** Psi4 exiting successfully. Buy a developer a beer!
