                               Psi4 1.4a3.dev225

  ==> Input File <==

--------------------------------------------------------------------------
#psi4
#
memory 32 gb

molecule  {
0 1
  O       -1.8720150     0.1455040    -0.0239620
  C        0.9797650    -0.0480790     0.0033120
  C       -1.2654920    -1.1739550     0.0157300
  C        0.2371350    -1.1840010    -0.0022480
  C        0.2779850     1.2351350     0.0170580
  C        2.4810890    -0.0479420    -0.0086670
  C       -1.0722470     1.2493700    -0.0013870
  H       -1.6715710    -1.7194360    -0.8464940
  H       -1.6521540    -1.6671500     0.9188080
  H        0.7071820    -2.1662500    -0.0128270
  H        0.8222450     2.1733070     0.0302890
  H        2.8758370     0.4671910     0.8740370
  H        2.8626870     0.4795000    -0.8898540
  H        2.8960948    -1.1132537    -0.0191306
  H       -1.6754580     2.1523000    -0.0063760
units angstrom
no_reorient  #important for SAPT in psi4, default
symmetry c1  #important for SAPT in psi4, default
}

set PROPERTIES_ORIGIN ["COM"]
properties('MP2/aug-cc-pvtz', properties = ['dipole'])
--------------------------------------------------------------------------

    Molecular point group: c1
  Charge       = 0
  Multiplicity = 1
  Basis Set: AUG-CC-PVTZ
    Blend: AUG-CC-PVTZ
  Basis Set: (AUG-CC-PVTZ AUX)
    Blend: AUG-CC-PVTZ-JKFIT

    Orbital Energies [Eh]
    ---------------------

    Doubly Occupied:

       1A    -20.584058     2A    -11.300428     3A    -11.291969
       4A    -11.247197     5A    -11.232086     6A    -11.226645
       7A    -11.218659     8A     -1.399047     9A     -1.105836
      10A     -1.034932    11A     -0.969301    12A     -0.876067
      13A     -0.826016    14A     -0.693707    15A     -0.672781
      16A     -0.657774    17A     -0.649912    18A     -0.585817
      19A     -0.573620    20A     -0.557514    21A     -0.546057
      22A     -0.511330    23A     -0.501454    24A     -0.469662
      25A     -0.410516    26A     -0.285661

  @DF-RHF Final Energy:  -306.78754700145117

   => Energetics <=

    Nuclear Repulsion Energy =            288.3322015591483591
    One-Electron Energy =                -987.3834063384467754
    Two-Electron Energy =                 392.2636577778471860
    Total Energy =                       -306.7875470014511734
  Basis Set: (AUG-CC-PVTZ AUX)
    Blend: AUG-CC-PVTZ-RI
    Molecular point group: c1

    Geometry (in Angstrom), charge = 0, multiplicity = 1:

       Center              X                  Y                   Z               Mass
    ------------   -----------------  -----------------  -----------------  -----------------
         O           -1.819144362235     0.132085352917    -0.023453319314    15.994914619570
         C            1.032635637765    -0.061497647083     0.003820680686    12.000000000000
         C           -1.212621362235    -1.187373647083     0.016238680686    12.000000000000
         C            0.290005637765    -1.197419647083    -0.001739319314    12.000000000000
         C            0.330855637765     1.221716352917     0.017566680686    12.000000000000
         C            2.533959637765    -0.061360647083    -0.008158319314    12.000000000000
         C           -1.019376362235     1.235951352917    -0.000878319314    12.000000000000
         H           -1.618700362235    -1.732854647083    -0.845985319314     1.007825032230
         H           -1.599283362235    -1.680568647083     0.919316680686     1.007825032230
         H            0.760052637765    -2.179668647083    -0.012318319314     1.007825032230
         H            0.875115637765     2.159888352917     0.030797680686     1.007825032230
         H            2.928707637765     0.453772352917     0.874545680686     1.007825032230
         H            2.915557637765     0.466081352917    -0.889345319314     1.007825032230
         H            2.948965437765    -1.126672347083    -0.018621919314     1.007825032230
         H           -1.622587362235     2.138881352917    -0.005867319314     1.007825032230

  Basis Set: AUG-CC-PVTZ
    Blend: AUG-CC-PVTZ
  Basis Set: (AUG-CC-PVTZ AUX)
    Blend: AUG-CC-PVTZ-JKFIT
	 Reference Energy          =    -306.7875470014511734 [Eh]
	 Singles Energy            =      -0.0000000000000000 [Eh]
	 Same-Spin Energy          =      -0.3156318329574059 [Eh]
	 Opposite-Spin Energy      =      -1.0412088494842473 [Eh]
	 Correlation Energy        =      -1.3568406824416532 [Eh]
	 Total Energy              =    -308.1443876838928304 [Eh]

	 ================> DF-SCS-MP2 Energies <==================
	-----------------------------------------------------------
	 SCS Same-Spin Scale       =       0.3333333333333333 [-]
	 SCS Opposite-Spin Scale   =       1.2000000000000000 [-]
	 SCS Same-Spin Energy      =      -0.1052106109858020 [Eh]
	 SCS Opposite-Spin Energy  =      -1.2494506193810968 [Eh]
	 SCS Correlation Energy    =      -1.3546612303668988 [Eh]
	 SCS Total Energy          =    -308.1422082318180742 [Eh]
	-----------------------------------------------------------

  Dipole Moment: [D]
     X:     0.8830      Y:    -0.4962      Z:     0.0328     Total:     1.0134

*** Psi4 exiting successfully. Buy a developer a beer!
