                               Psi4 1.4a3.dev225

  ==> Input File <==

--------------------------------------------------------------------------
#psi4
#
memory 32 gb

molecule  {
0 1
  O       -1.8720150     0.1455040    -0.0239620
  C        0.9797650    -0.0480790     0.0033120
  C       -1.2654920    -1.1739550     0.0157300
  C        0.2371350    -1.1840010    -0.0022480
  C        0.2779850     1.2351350     0.0170580
  C        2.4810890    -0.0479420    -0.0086670
  C       -1.0722470     1.2493700    -0.0013870
  H       -1.6715710    -1.7194360    -0.8464940
  H       -1.6521540    -1.6671500     0.9188080
  H        0.7071820    -2.1662500    -0.0128270
  H        0.8222450     2.1733070     0.0302890
  H        2.8758370     0.4671910     0.8740370
  H        2.8975176     0.5276426    -0.9702849
  H        2.8779460    -1.0666660    -0.0186730
  H       -1.6754580     2.1523000    -0.0063760
units angstrom
no_reorient  #important for SAPT in psi4, default
symmetry c1  #important for SAPT in psi4, default
}

set PROPERTIES_ORIGIN ["COM"]
properties('MP2/aug-cc-pvtz', properties = ['dipole'])
--------------------------------------------------------------------------

    Molecular point group: c1
  Charge       = 0
  Multiplicity = 1
  Basis Set: AUG-CC-PVTZ
    Blend: AUG-CC-PVTZ
  Basis Set: (AUG-CC-PVTZ AUX)
    Blend: AUG-CC-PVTZ-JKFIT

    Orbital Energies [Eh]
    ---------------------

    Doubly Occupied:

       1A    -20.584154     2A    -11.300255     3A    -11.292461
       4A    -11.247848     5A    -11.237876     6A    -11.227558
       7A    -11.218382     8A     -1.399167     9A     -1.105865
      10A     -1.035152    11A     -0.967146    12A     -0.875032
      13A     -0.826051    14A     -0.693643    15A     -0.674154
      16A     -0.657564    17A     -0.650165    18A     -0.585823
      19A     -0.563384    20A     -0.557865    21A     -0.546615
      22A     -0.511587    23A     -0.502705    24A     -0.470094
      25A     -0.408867    26A     -0.285890

  @DF-RHF Final Energy:  -306.78337205344542

   => Energetics <=

    Nuclear Repulsion Energy =            288.1386394977424743
    One-Electron Energy =                -986.9934133430895145
    Two-Electron Energy =                 392.0714017919016214
    Total Energy =                       -306.7833720534454187
  Basis Set: (AUG-CC-PVTZ AUX)
    Blend: AUG-CC-PVTZ-RI
    Molecular point group: c1

    Geometry (in Angstrom), charge = 0, multiplicity = 1:

       Center              X                  Y                   Z               Mass
    ------------   -----------------  -----------------  -----------------  -----------------
         O           -1.819319385872     0.131091452879    -0.022614248121    15.994914619570
         C            1.032460614128    -0.062491547121     0.004659751879    12.000000000000
         C           -1.212796385872    -1.188367547121     0.017077751879    12.000000000000
         C            0.289830614128    -1.198413547121    -0.000900248121    12.000000000000
         C            0.330680614128     1.220722452879     0.018405751879    12.000000000000
         C            2.533784614128    -0.062354547121    -0.007319248121    12.000000000000
         C           -1.019551385872     1.234957452879    -0.000039248121    12.000000000000
         H           -1.618875385872    -1.733848547121    -0.845146248121     1.007825032230
         H           -1.599458385872    -1.681562547121     0.920155751879     1.007825032230
         H            0.759877614128    -2.180662547121    -0.011479248121     1.007825032230
         H            0.874940614128     2.158894452879     0.031636751879     1.007825032230
         H            2.928532614128     0.452778452879     0.875384751879     1.007825032230
         H            2.950213214128     0.513230052879    -0.968937148121     1.007825032230
         H            2.930641614128    -1.081078547121    -0.017325248121     1.007825032230
         H           -1.622762385872     2.137887452879    -0.005028248121     1.007825032230

  Basis Set: AUG-CC-PVTZ
    Blend: AUG-CC-PVTZ
  Basis Set: (AUG-CC-PVTZ AUX)
    Blend: AUG-CC-PVTZ-JKFIT
	 Reference Energy          =    -306.7833720534454187 [Eh]
	 Singles Energy            =      -0.0000000000000000 [Eh]
	 Same-Spin Energy          =      -0.3155857567270514 [Eh]
	 Opposite-Spin Energy      =      -1.0414698068415731 [Eh]
	 Correlation Energy        =      -1.3570555635686246 [Eh]
	 Total Energy              =    -308.1404276170140406 [Eh]

	 ================> DF-SCS-MP2 Energies <==================
	-----------------------------------------------------------
	 SCS Same-Spin Scale       =       0.3333333333333333 [-]
	 SCS Opposite-Spin Scale   =       1.2000000000000000 [-]
	 SCS Same-Spin Energy      =      -0.1051952522423504 [Eh]
	 SCS Opposite-Spin Energy  =      -1.2497637682098877 [Eh]
	 SCS Correlation Energy    =      -1.3549590204522381 [Eh]
	 SCS Total Energy          =    -308.1383310738976320 [Eh]
	-----------------------------------------------------------

  Dipole Moment: [D]
     X:     0.8581      Y:    -0.5509      Z:     0.0709     Total:     1.0222

*** Psi4 exiting successfully. Buy a developer a beer!
