                               Psi4 1.4a3.dev225

  ==> Input File <==

--------------------------------------------------------------------------
#psi4
#
memory 32 gb

molecule  {
0 1
  O       -1.8720150     0.1455040    -0.0239620
  C        0.9797650    -0.0480790     0.0033120
  C       -1.2654920    -1.1739550     0.0157300
  C        0.2371350    -1.1840010    -0.0022480
  C        0.2779850     1.2351350     0.0170580
  C        2.4810890    -0.0479420    -0.0086670
  C       -1.2722172     1.2514782    -0.0041187
  H       -1.6715710    -1.7194360    -0.8464940
  H       -1.6521540    -1.6671500     0.9188080
  H        0.7071820    -2.1662500    -0.0128270
  H        0.8222450     2.1733070     0.0302890
  H        2.8758370     0.4671910     0.8740370
  H        2.8626870     0.4795000    -0.8898540
  H        2.8779460    -1.0666660    -0.0186730
  H       -1.6754580     2.1523000    -0.0063760
units angstrom
no_reorient  #important for SAPT in psi4, default
symmetry c1  #important for SAPT in psi4, default
}

set PROPERTIES_ORIGIN ["COM"]
properties('MP2/aug-cc-pvtz', properties = ['dipole'])
--------------------------------------------------------------------------

    Molecular point group: c1
  Charge       = 0
  Multiplicity = 1
  Basis Set: AUG-CC-PVTZ
    Blend: AUG-CC-PVTZ
  Basis Set: (AUG-CC-PVTZ AUX)
    Blend: AUG-CC-PVTZ-JKFIT

    Orbital Energies [Eh]
    ---------------------

    Doubly Occupied:

       1A    -20.607986     2A    -11.328001     3A    -11.306772
       4A    -11.244697     5A    -11.221402     6A    -11.219981
       7A    -11.216791     8A     -1.458507     9A     -1.095855
      10A     -1.036817    11A     -0.953500    12A     -0.875951
      13A     -0.844613    14A     -0.727762    15A     -0.683932
      16A     -0.672031    17A     -0.662014    18A     -0.595865
      19A     -0.568044    20A     -0.564515    21A     -0.536065
      22A     -0.534168    23A     -0.507067    24A     -0.450686
      25A     -0.391707    26A     -0.252412

  @DF-RHF Final Energy:  -306.73489566699550

   => Energetics <=

    Nuclear Repulsion Energy =            287.3608830005870232
    One-Electron Energy =                -985.0772727997411948
    Two-Electron Energy =                 390.9814941321586730
    Total Energy =                       -306.7348956669954987
  Basis Set: (AUG-CC-PVTZ AUX)
    Blend: AUG-CC-PVTZ-RI
    Molecular point group: c1

    Geometry (in Angstrom), charge = 0, multiplicity = 1:

       Center              X                  Y                   Z               Mass
    ------------   -----------------  -----------------  -----------------  -----------------
         O           -1.793972638627     0.131333192606    -0.023116862356    15.994914619570
         C            1.057807361373    -0.062249807394     0.004157137644    12.000000000000
         C           -1.187449638627    -1.188125807394     0.016575137644    12.000000000000
         C            0.315177361373    -1.198171807394    -0.001402862356    12.000000000000
         C            0.356027361373     1.220964192606     0.017903137644    12.000000000000
         C            2.559131361373    -0.062112807394    -0.007821862356    12.000000000000
         C           -1.194174838627     1.237307392606    -0.003273562356    12.000000000000
         H           -1.593528638627    -1.733606807394    -0.845648862356     1.007825032230
         H           -1.574111638627    -1.681320807394     0.919653137644     1.007825032230
         H            0.785224361373    -2.180420807394    -0.011981862356     1.007825032230
         H            0.900287361373     2.159136192606     0.031134137644     1.007825032230
         H            2.953879361373     0.453020192606     0.874882137644     1.007825032230
         H            2.940729361373     0.465329192606    -0.889008862356     1.007825032230
         H            2.955988361373    -1.080836807394    -0.017827862356     1.007825032230
         H           -1.597415638627     2.138129192606    -0.005530862356     1.007825032230

  Basis Set: AUG-CC-PVTZ
    Blend: AUG-CC-PVTZ
  Basis Set: (AUG-CC-PVTZ AUX)
    Blend: AUG-CC-PVTZ-JKFIT
	 Reference Energy          =    -306.7348956669954987 [Eh]
	 Singles Energy            =      -0.0000000000000000 [Eh]
	 Same-Spin Energy          =      -0.3182060212969994 [Eh]
	 Opposite-Spin Energy      =      -1.0440028796197947 [Eh]
	 Correlation Energy        =      -1.3622089009167939 [Eh]
	 Total Energy              =    -308.0971045679123108 [Eh]

	 ================> DF-SCS-MP2 Energies <==================
	-----------------------------------------------------------
	 SCS Same-Spin Scale       =       0.3333333333333333 [-]
	 SCS Opposite-Spin Scale   =       1.2000000000000000 [-]
	 SCS Same-Spin Energy      =      -0.1060686737656664 [Eh]
	 SCS Opposite-Spin Energy  =      -1.2528034555437535 [Eh]
	 SCS Correlation Energy    =      -1.3588721293094199 [Eh]
	 SCS Total Energy          =    -308.0937677963049168 [Eh]
	-----------------------------------------------------------

  Dipole Moment: [D]
     X:     0.1707      Y:    -0.9176      Z:     0.0160     Total:     0.9335

*** Psi4 exiting successfully. Buy a developer a beer!
