                               Psi4 1.4a3.dev225

  ==> Input File <==

--------------------------------------------------------------------------
#psi4
#
memory 32 gb

molecule  {
0 1
  O       -1.8720150     0.1455040    -0.0239620
  C        0.9797650    -0.0480790     0.0033120
  C       -1.2654920    -1.1739550     0.0157300
  C        0.2371350    -1.1840010    -0.0022480
  C        0.2779850     1.2351350     0.0170580
  C        2.4810890    -0.0479420    -0.0086670
  C       -1.0699429     1.1551409    -0.0019340
  H       -1.6715710    -1.7194360    -0.8464940
  H       -1.6521540    -1.6671500     0.9188080
  H        0.7071820    -2.1662500    -0.0128270
  H        0.8222450     2.1733070     0.0302890
  H        2.8758370     0.4671910     0.8740370
  H        2.8626870     0.4795000    -0.8898540
  H        2.8779460    -1.0666660    -0.0186730
  H       -1.6754580     2.1523000    -0.0063760
units angstrom
no_reorient  #important for SAPT in psi4, default
symmetry c1  #important for SAPT in psi4, default
}

set PROPERTIES_ORIGIN ["COM"]
properties('MP2/aug-cc-pvtz', properties = ['dipole'])
--------------------------------------------------------------------------

    Molecular point group: c1
  Charge       = 0
  Multiplicity = 1
  Basis Set: AUG-CC-PVTZ
    Blend: AUG-CC-PVTZ
  Basis Set: (AUG-CC-PVTZ AUX)
    Blend: AUG-CC-PVTZ-JKFIT

    Orbital Energies [Eh]
    ---------------------

    Doubly Occupied:

       1A    -20.599876     2A    -11.306581     3A    -11.296320
       4A    -11.245458     5A    -11.224343     6A    -11.221891
       7A    -11.210795     8A     -1.441176     9A     -1.107061
      10A     -1.036453    11A     -0.972964    12A     -0.883279
      13A     -0.820599    14A     -0.703284    15A     -0.683051
      16A     -0.665858    17A     -0.651879    18A     -0.580455
      19A     -0.571613    20A     -0.561219    21A     -0.554295
      22A     -0.527730    23A     -0.503834    24A     -0.459199
      25A     -0.409043    26A     -0.280468

  @DF-RHF Final Energy:  -306.78103028507456

   => Energetics <=

    Nuclear Repulsion Energy =            290.2025123313463268
    One-Electron Energy =                -990.9296367426372854
    Two-Electron Energy =                 393.9460941262164511
    Total Energy =                       -306.7810302850745643
  Basis Set: (AUG-CC-PVTZ AUX)
    Blend: AUG-CC-PVTZ-RI
    Molecular point group: c1

    Geometry (in Angstrom), charge = 0, multiplicity = 1:

       Center              X                  Y                   Z               Mass
    ------------   -----------------  -----------------  -----------------  -----------------
         O           -1.819241787044     0.143368144806    -0.023389786344    15.994914619570
         C            1.032538212956    -0.050214855194     0.003884213656    12.000000000000
         C           -1.212718787044    -1.176090855194     0.016302213656    12.000000000000
         C            0.289908212956    -1.186136855194    -0.001675786344    12.000000000000
         C            0.330758212956     1.232999144806     0.017630213656    12.000000000000
         C            2.533862212956    -0.050077855194    -0.008094786344    12.000000000000
         C           -1.017169687044     1.153005044806    -0.001361786344    12.000000000000
         H           -1.618797787044    -1.721571855194    -0.845921786344     1.007825032230
         H           -1.599380787044    -1.669285855194     0.919380213656     1.007825032230
         H            0.759955212956    -2.168385855194    -0.012254786344     1.007825032230
         H            0.875018212956     2.171171144806     0.030861213656     1.007825032230
         H            2.928610212956     0.465055144806     0.874609213656     1.007825032230
         H            2.915460212956     0.477364144806    -0.889281786344     1.007825032230
         H            2.930719212956    -1.068801855194    -0.018100786344     1.007825032230
         H           -1.622684787044     2.150164144806    -0.005803786344     1.007825032230

  Basis Set: AUG-CC-PVTZ
    Blend: AUG-CC-PVTZ
  Basis Set: (AUG-CC-PVTZ AUX)
    Blend: AUG-CC-PVTZ-JKFIT
	 Reference Energy          =    -306.7810302850745643 [Eh]
	 Singles Energy            =      -0.0000000000000000 [Eh]
	 Same-Spin Energy          =      -0.3160387807359444 [Eh]
	 Opposite-Spin Energy      =      -1.0401645150457732 [Eh]
	 Correlation Energy        =      -1.3562032957817176 [Eh]
	 Total Energy              =    -308.1372335808562752 [Eh]

	 ================> DF-SCS-MP2 Energies <==================
	-----------------------------------------------------------
	 SCS Same-Spin Scale       =       0.3333333333333333 [-]
	 SCS Opposite-Spin Scale   =       1.2000000000000000 [-]
	 SCS Same-Spin Energy      =      -0.1053462602453148 [Eh]
	 SCS Opposite-Spin Energy  =      -1.2481974180549278 [Eh]
	 SCS Correlation Energy    =      -1.3535436783002426 [Eh]
	 SCS Total Energy          =    -308.1345739633748053 [Eh]
	-----------------------------------------------------------

  Dipole Moment: [D]
     X:     0.6400      Y:    -0.7637      Z:     0.0276     Total:     0.9968

*** Psi4 exiting successfully. Buy a developer a beer!
