                               Psi4 1.4a3.dev225

  ==> Input File <==

--------------------------------------------------------------------------
#psi4
#
memory 32 gb

molecule  {
0 1
  O       -1.8720150     0.1455040    -0.0239620
  C        0.9797650    -0.0480790     0.0033120
  C       -1.2649304    -1.2264051     0.0154579
  C        0.2371350    -1.1840010    -0.0022480
  C        0.2779850     1.2351350     0.0170580
  C        2.4810890    -0.0479420    -0.0086670
  C       -1.0722470     1.2493700    -0.0013870
  H       -1.6715710    -1.7194360    -0.8464940
  H       -1.6521540    -1.6671500     0.9188080
  H        0.7071820    -2.1662500    -0.0128270
  H        0.8222450     2.1733070     0.0302890
  H        2.8758370     0.4671910     0.8740370
  H        2.8626870     0.4795000    -0.8898540
  H        2.8779460    -1.0666660    -0.0186730
  H       -1.6754580     2.1523000    -0.0063760
units angstrom
no_reorient  #important for SAPT in psi4, default
symmetry c1  #important for SAPT in psi4, default
}

set PROPERTIES_ORIGIN ["COM"]
properties('MP2/aug-cc-pvtz', properties = ['dipole'])
--------------------------------------------------------------------------

    Molecular point group: c1
  Charge       = 0
  Multiplicity = 1
  Basis Set: AUG-CC-PVTZ
    Blend: AUG-CC-PVTZ
  Basis Set: (AUG-CC-PVTZ AUX)
    Blend: AUG-CC-PVTZ-JKFIT

    Orbital Energies [Eh]
    ---------------------

    Doubly Occupied:

       1A    -20.578894     2A    -11.298520     3A    -11.292516
       4A    -11.248342     5A    -11.226428     6A    -11.226013
       7A    -11.215401     8A     -1.384177     9A     -1.104864
      10A     -1.033893    11A     -0.972285    12A     -0.876951
      13A     -0.824699    14A     -0.689175    15A     -0.670376
      16A     -0.657021    17A     -0.651181    18A     -0.586216
      19A     -0.573092    20A     -0.551376    21A     -0.550020
      22A     -0.519205    23A     -0.506192    24A     -0.465214
      25A     -0.408398    26A     -0.286065

  @DF-RHF Final Energy:  -306.78672875661726

   => Energetics <=

    Nuclear Repulsion Energy =            287.7333234061170515
    One-Electron Energy =                -986.2470673205992853
    Two-Electron Energy =                 391.7270151578649688
    Total Energy =                       -306.7867287566172649
  Basis Set: (AUG-CC-PVTZ AUX)
    Blend: AUG-CC-PVTZ-RI
    Molecular point group: c1

    Geometry (in Angstrom), charge = 0, multiplicity = 1:

       Center              X                  Y                   Z               Mass
    ------------   -----------------  -----------------  -----------------  -----------------
         O           -1.819024104960     0.138148896727    -0.023424128269    15.994914619570
         C            1.032755895040    -0.055434103273     0.003849871731    12.000000000000
         C           -1.211939504960    -1.233760203273     0.015995771731    12.000000000000
         C            0.290125895040    -1.191356103273    -0.001710128269    12.000000000000
         C            0.330975895040     1.227779896727     0.017595871731    12.000000000000
         C            2.534079895040    -0.055297103273    -0.008129128269    12.000000000000
         C           -1.019256104960     1.242014896727    -0.000849128269    12.000000000000
         H           -1.618580104960    -1.726791103273    -0.845956128269     1.007825032230
         H           -1.599163104960    -1.674505103273     0.919345871731     1.007825032230
         H            0.760172895040    -2.173605103273    -0.012289128269     1.007825032230
         H            0.875235895040     2.165951896727     0.030826871731     1.007825032230
         H            2.928827895040     0.459835896727     0.874574871731     1.007825032230
         H            2.915677895040     0.472144896727    -0.889316128269     1.007825032230
         H            2.930936895040    -1.074021103273    -0.018135128269     1.007825032230
         H           -1.622467104960     2.144944896727    -0.005838128269     1.007825032230

  Basis Set: AUG-CC-PVTZ
    Blend: AUG-CC-PVTZ
  Basis Set: (AUG-CC-PVTZ AUX)
    Blend: AUG-CC-PVTZ-JKFIT
	 Reference Energy          =    -306.7867287566172649 [Eh]
	 Singles Energy            =      -0.0000000000000000 [Eh]
	 Same-Spin Energy          =      -0.3156995070392248 [Eh]
	 Opposite-Spin Energy      =      -1.0414079878919444 [Eh]
	 Correlation Energy        =      -1.3571074949311692 [Eh]
	 Total Energy              =    -308.1438362515484073 [Eh]

	 ================> DF-SCS-MP2 Energies <==================
	-----------------------------------------------------------
	 SCS Same-Spin Scale       =       0.3333333333333333 [-]
	 SCS Opposite-Spin Scale   =       1.2000000000000000 [-]
	 SCS Same-Spin Energy      =      -0.1052331690130749 [Eh]
	 SCS Opposite-Spin Energy  =      -1.2496895854703334 [Eh]
	 SCS Correlation Energy    =      -1.3549227544834084 [Eh]
	 SCS Total Energy          =    -308.1416515111006902 [Eh]
	-----------------------------------------------------------

  Dipole Moment: [D]
     X:     0.8838      Y:    -0.6782      Z:     0.0371     Total:     1.1146

*** Psi4 exiting successfully. Buy a developer a beer!
