                               Psi4 1.4a3.dev225

  ==> Input File <==

--------------------------------------------------------------------------
#psi4
#
memory 32 gb

molecule  {
0 1
  O       -1.8720150     0.1455040    -0.0239620
  C        0.9797650    -0.0480790     0.0033120
  C       -1.2642229    -1.1215171     0.0159802
  C        0.2371350    -1.1840010    -0.0022480
  C        0.2779850     1.2351350     0.0170580
  C        2.4810890    -0.0479420    -0.0086670
  C       -1.0722470     1.2493700    -0.0013870
  H       -1.6715710    -1.7194360    -0.8464940
  H       -1.6521540    -1.6671500     0.9188080
  H        0.7071820    -2.1662500    -0.0128270
  H        0.8222450     2.1733070     0.0302890
  H        2.8758370     0.4671910     0.8740370
  H        2.8626870     0.4795000    -0.8898540
  H        2.8779460    -1.0666660    -0.0186730
  H       -1.6754580     2.1523000    -0.0063760
units angstrom
no_reorient  #important for SAPT in psi4, default
symmetry c1  #important for SAPT in psi4, default
}

set PROPERTIES_ORIGIN ["COM"]
properties('MP2/aug-cc-pvtz', properties = ['dipole'])
--------------------------------------------------------------------------

    Molecular point group: c1
  Charge       = 0
  Multiplicity = 1
  Basis Set: AUG-CC-PVTZ
    Blend: AUG-CC-PVTZ
  Basis Set: (AUG-CC-PVTZ AUX)
    Blend: AUG-CC-PVTZ-JKFIT

    Orbital Energies [Eh]
    ---------------------

    Doubly Occupied:

       1A    -20.588603     2A    -11.301749     3A    -11.292412
       4A    -11.245401     5A    -11.227348     6A    -11.225881
       7A    -11.221197     8A     -1.415223     9A     -1.107496
      10A     -1.036108    11A     -0.971753    12A     -0.876988
      13A     -0.828857    14A     -0.699656    15A     -0.678383
      16A     -0.657355    17A     -0.651128    18A     -0.584936
      19A     -0.572881    20A     -0.565036    21A     -0.554459
      22A     -0.502750    23A     -0.500046    24A     -0.471649
      25A     -0.412150    26A     -0.284560

  @DF-RHF Final Energy:  -306.78776148239967

   => Energetics <=

    Nuclear Repulsion Energy =            289.3709603292728616
    One-Electron Energy =                -989.3694340077007610
    Two-Electron Energy =                 393.2107121960282257
    Total Energy =                       -306.7877614823996737
  Basis Set: (AUG-CC-PVTZ AUX)
    Blend: AUG-CC-PVTZ-RI
    Molecular point group: c1

    Geometry (in Angstrom), charge = 0, multiplicity = 1:

       Center              X                  Y                   Z               Mass
    ------------   -----------------  -----------------  -----------------  -----------------
         O           -1.819112489508     0.125045746998    -0.023489376678    15.994914619570
         C            1.032667510492    -0.068537253002     0.003784623322    12.000000000000
         C           -1.211320389508    -1.141975353002     0.016452823322    12.000000000000
         C            0.290037510492    -1.204459253002    -0.001775376678    12.000000000000
         C            0.330887510492     1.214676746998     0.017530623322    12.000000000000
         C            2.533991510492    -0.068400253002    -0.008194376678    12.000000000000
         C           -1.019344489508     1.228911746998    -0.000914376678    12.000000000000
         H           -1.618668489508    -1.739894253002    -0.846021376678     1.007825032230
         H           -1.599251489508    -1.687608253002     0.919280623322     1.007825032230
         H            0.760084510492    -2.186708253002    -0.012354376678     1.007825032230
         H            0.875147510492     2.152848746998     0.030761623322     1.007825032230
         H            2.928739510492     0.446732746998     0.874509623322     1.007825032230
         H            2.915589510492     0.459041746998    -0.889381376678     1.007825032230
         H            2.930848510492    -1.087124253002    -0.018200376678     1.007825032230
         H           -1.622555489508     2.131841746998    -0.005903376678     1.007825032230

  Basis Set: AUG-CC-PVTZ
    Blend: AUG-CC-PVTZ
  Basis Set: (AUG-CC-PVTZ AUX)
    Blend: AUG-CC-PVTZ-JKFIT
	 Reference Energy          =    -306.7877614823996737 [Eh]
	 Singles Energy            =      -0.0000000000000000 [Eh]
	 Same-Spin Energy          =      -0.3156708730260509 [Eh]
	 Opposite-Spin Energy      =      -1.0405014490273610 [Eh]
	 Correlation Energy        =      -1.3561723220534119 [Eh]
	 Total Energy              =    -308.1439338044530700 [Eh]

	 ================> DF-SCS-MP2 Energies <==================
	-----------------------------------------------------------
	 SCS Same-Spin Scale       =       0.3333333333333333 [-]
	 SCS Opposite-Spin Scale   =       1.2000000000000000 [-]
	 SCS Same-Spin Energy      =      -0.1052236243420170 [Eh]
	 SCS Opposite-Spin Energy  =      -1.2486017388328332 [Eh]
	 SCS Correlation Energy    =      -1.3538253631748502 [Eh]
	 SCS Total Energy          =    -308.1415868455745226 [Eh]
	-----------------------------------------------------------

  Dipole Moment: [D]
     X:     0.9391      Y:    -0.3478      Z:     0.0276     Total:     1.0019

*** Psi4 exiting successfully. Buy a developer a beer!
