                               Psi4 1.4a3.dev225

  ==> Input File <==

--------------------------------------------------------------------------
#psi4
#
memory 32 gb

molecule  {
0 1
  O       -1.8720150     0.1455040    -0.0239620
  C        0.9797650    -0.0480790     0.0033120
  C       -1.2650862    -1.1477305     0.0158579
  C        0.2371350    -1.1840010    -0.0022480
  C        0.2779850     1.2351350     0.0170580
  C        2.4810890    -0.0479420    -0.0086670
  C       -1.0722470     1.2493700    -0.0013870
  H       -1.6715710    -1.7194360    -0.8464940
  H       -1.6521540    -1.6671500     0.9188080
  H        0.7071820    -2.1662500    -0.0128270
  H        0.8222450     2.1733070     0.0302890
  H        2.8758370     0.4671910     0.8740370
  H        2.8626870     0.4795000    -0.8898540
  H        2.8779460    -1.0666660    -0.0186730
  H       -1.6754580     2.1523000    -0.0063760
units angstrom
no_reorient  #important for SAPT in psi4, default
symmetry c1  #important for SAPT in psi4, default
}

set PROPERTIES_ORIGIN ["COM"]
properties('MP2/aug-cc-pvtz', properties = ['dipole'])
--------------------------------------------------------------------------

    Molecular point group: c1
  Charge       = 0
  Multiplicity = 1
  Basis Set: AUG-CC-PVTZ
    Blend: AUG-CC-PVTZ
  Basis Set: (AUG-CC-PVTZ AUX)
    Blend: AUG-CC-PVTZ-JKFIT

    Orbital Energies [Eh]
    ---------------------

    Doubly Occupied:

       1A    -20.586256     2A    -11.300932     3A    -11.291981
       4A    -11.246081     5A    -11.226838     6A    -11.225989
       7A    -11.219685     8A     -1.406812     9A     -1.106701
      10A     -1.035352    11A     -0.971854    12A     -0.876382
      13A     -0.828156    14A     -0.696711    15A     -0.675868
      16A     -0.657533    17A     -0.650109    18A     -0.585425
      19A     -0.572850    20A     -0.561289    21A     -0.553462
      22A     -0.506299    23A     -0.502870    24A     -0.470861
      25A     -0.411141    26A     -0.285062

  @DF-RHF Final Energy:  -306.78942000934831

   => Energetics <=

    Nuclear Repulsion Energy =            288.9479206788402053
    One-Electron Energy =                -988.5696832449775684
    Two-Electron Energy =                 392.8323425567890581
    Total Energy =                       -306.7894200093483050
  Basis Set: (AUG-CC-PVTZ AUX)
    Blend: AUG-CC-PVTZ-RI
    Molecular point group: c1

    Geometry (in Angstrom), charge = 0, multiplicity = 1:

       Center              X                  Y                   Z               Mass
    ------------   -----------------  -----------------  -----------------  -----------------
         O           -1.819004641621     0.128320460074    -0.023474098331    15.994914619570
         C            1.032775358379    -0.065262539926     0.003799901669    12.000000000000
         C           -1.212075841621    -1.164914039926     0.016345801669    12.000000000000
         C            0.290145358379    -1.201184539926    -0.001760098331    12.000000000000
         C            0.330995358379     1.217951460074     0.017545901669    12.000000000000
         C            2.534099358379    -0.065125539926    -0.008179098331    12.000000000000
         C           -1.019236641621     1.232186460074    -0.000899098331    12.000000000000
         H           -1.618560641621    -1.736619539926    -0.846006098331     1.007825032230
         H           -1.599143641621    -1.684333539926     0.919295901669     1.007825032230
         H            0.760192358379    -2.183433539926    -0.012339098331     1.007825032230
         H            0.875255358379     2.156123460074     0.030776901669     1.007825032230
         H            2.928847358379     0.450007460074     0.874524901669     1.007825032230
         H            2.915697358379     0.462316460074    -0.889366098331     1.007825032230
         H            2.930956358379    -1.083849539926    -0.018185098331     1.007825032230
         H           -1.622447641621     2.135116460074    -0.005888098331     1.007825032230

  Basis Set: AUG-CC-PVTZ
    Blend: AUG-CC-PVTZ
  Basis Set: (AUG-CC-PVTZ AUX)
    Blend: AUG-CC-PVTZ-JKFIT
	 Reference Energy          =    -306.7894200093483050 [Eh]
	 Singles Energy            =      -0.0000000000000000 [Eh]
	 Same-Spin Energy          =      -0.3156165981954617 [Eh]
	 Opposite-Spin Energy      =      -1.0406171795001358 [Eh]
	 Correlation Energy        =      -1.3562337776955975 [Eh]
	 Total Energy              =    -308.1456537870438979 [Eh]

	 ================> DF-SCS-MP2 Energies <==================
	-----------------------------------------------------------
	 SCS Same-Spin Scale       =       0.3333333333333333 [-]
	 SCS Opposite-Spin Scale   =       1.2000000000000000 [-]
	 SCS Same-Spin Energy      =      -0.1052055327318206 [Eh]
	 SCS Opposite-Spin Energy  =      -1.2487406154001628 [Eh]
	 SCS Correlation Energy    =      -1.3539461481319834 [Eh]
	 SCS Total Energy          =    -308.1433661574802727 [Eh]
	-----------------------------------------------------------

  Dipole Moment: [D]
     X:     0.9221      Y:    -0.4353      Z:     0.0301     Total:     1.0201

*** Psi4 exiting successfully. Buy a developer a beer!
