                               Psi4 1.4a3.dev225

  ==> Input File <==

--------------------------------------------------------------------------
#psi4
#
memory 32 gb

molecule  {
0 1
  O       -1.8720150     0.1455040    -0.0239620
  C        0.9797650    -0.0480790     0.0033120
  C       -1.2654920    -1.1739550     0.0157300
  C        0.2371350    -1.1840010    -0.0022480
  C        0.2779850     1.2351350     0.0170580
  C        2.4810890    -0.0479420    -0.0086670
  C       -1.0722470     1.2493700    -0.0013870
  H       -1.6715710    -1.7194360    -0.8464940
  H       -1.6521540    -1.6671500     0.9188080
  H        0.7071820    -2.1662500    -0.0128270
  H        0.8222450     2.1733070     0.0302890
  H        2.9118671     0.5142091     0.9546046
  H        2.8626870     0.4795000    -0.8898540
  H        2.8779460    -1.0666660    -0.0186730
  H       -1.6754580     2.1523000    -0.0063760
units angstrom
no_reorient  #important for SAPT in psi4, default
symmetry c1  #important for SAPT in psi4, default
}

set PROPERTIES_ORIGIN ["COM"]
properties('MP2/aug-cc-pvtz', properties = ['dipole'])
--------------------------------------------------------------------------

    Molecular point group: c1
  Charge       = 0
  Multiplicity = 1
  Basis Set: AUG-CC-PVTZ
    Blend: AUG-CC-PVTZ
  Basis Set: (AUG-CC-PVTZ AUX)
    Blend: AUG-CC-PVTZ-JKFIT

    Orbital Energies [Eh]
    ---------------------

    Doubly Occupied:

       1A    -20.584156     2A    -11.300257     3A    -11.292461
       4A    -11.247851     5A    -11.237885     6A    -11.227554
       7A    -11.218379     8A     -1.399169     9A     -1.105866
      10A     -1.035153    11A     -0.967143    12A     -0.875029
      13A     -0.826054    14A     -0.693658    15A     -0.674147
      16A     -0.657679    17A     -0.650051    18A     -0.585679
      19A     -0.563547    20A     -0.558014    21A     -0.546541
      22A     -0.511556    23A     -0.502678    24A     -0.470047
      25A     -0.408912    26A     -0.285887

  @DF-RHF Final Energy:  -306.78337513168879

   => Energetics <=

    Nuclear Repulsion Energy =            288.1383643088898339
    One-Electron Energy =                -986.9927747740949826
    Two-Electron Energy =                 392.0710353335163063
    Total Energy =                       -306.7833751316887856
  Basis Set: (AUG-CC-PVTZ AUX)
    Blend: AUG-CC-PVTZ-RI
    Molecular point group: c1

    Geometry (in Angstrom), charge = 0, multiplicity = 1:

       Center              X                  Y                   Z               Mass
    ------------   -----------------  -----------------  -----------------  -----------------
         O           -1.819331970896     0.131103251011    -0.024303426929    15.994914619570
         C            1.032448029104    -0.062479748989     0.002970573071    12.000000000000
         C           -1.212808970896    -1.188355748989     0.015388573071    12.000000000000
         C            0.289818029104    -1.198401748989    -0.002589426929    12.000000000000
         C            0.330668029104     1.220734251011     0.016716573071    12.000000000000
         C            2.533772029104    -0.062342748989    -0.009008426929    12.000000000000
         C           -1.019563970896     1.234969251011    -0.001728426929    12.000000000000
         H           -1.618887970896    -1.733836748989    -0.846835426929     1.007825032230
         H           -1.599470970896    -1.681550748989     0.918466573071     1.007825032230
         H            0.759865029104    -2.180650748989    -0.013168426929     1.007825032230
         H            0.874928029104     2.158906251011     0.029947573071     1.007825032230
         H            2.964550129104     0.499808351011     0.954263173071     1.007825032230
         H            2.915370029104     0.465099251011    -0.890195426929     1.007825032230
         H            2.930629029104    -1.081066748989    -0.019014426929     1.007825032230
         H           -1.622774970896     2.137899251011    -0.006717426929     1.007825032230

  Basis Set: AUG-CC-PVTZ
    Blend: AUG-CC-PVTZ
  Basis Set: (AUG-CC-PVTZ AUX)
    Blend: AUG-CC-PVTZ-JKFIT
	 Reference Energy          =    -306.7833751316887856 [Eh]
	 Singles Energy            =      -0.0000000000000000 [Eh]
	 Same-Spin Energy          =      -0.3155852169908516 [Eh]
	 Opposite-Spin Energy      =      -1.0414678774926072 [Eh]
	 Correlation Energy        =      -1.3570530944834589 [Eh]
	 Total Energy              =    -308.1404282261722187 [Eh]

	 ================> DF-SCS-MP2 Energies <==================
	-----------------------------------------------------------
	 SCS Same-Spin Scale       =       0.3333333333333333 [-]
	 SCS Opposite-Spin Scale   =       1.2000000000000000 [-]
	 SCS Same-Spin Energy      =      -0.1051950723302839 [Eh]
	 SCS Opposite-Spin Energy  =      -1.2497614529911285 [Eh]
	 SCS Correlation Energy    =      -1.3549565253214124 [Eh]
	 SCS Total Energy          =    -308.1383316570102124 [Eh]
	-----------------------------------------------------------

  Dipole Moment: [D]
     X:     0.8578      Y:    -0.5504      Z:    -0.0056     Total:     1.0192

*** Psi4 exiting successfully. Buy a developer a beer!
