                               Psi4 1.4a3.dev225

  ==> Input File <==

--------------------------------------------------------------------------
#psi4
#
memory 32 gb

molecule  {
0 1
  O       -1.8720150     0.1455040    -0.0239620
  C        0.9834261    -0.1528067     0.0025797
  C       -1.2654920    -1.1739550     0.0157300
  C        0.2371350    -1.1840010    -0.0022480
  C        0.2779850     1.2351350     0.0170580
  C        2.4810890    -0.0479420    -0.0086670
  C       -1.0722470     1.2493700    -0.0013870
  H       -1.6715710    -1.7194360    -0.8464940
  H       -1.6521540    -1.6671500     0.9188080
  H        0.7071820    -2.1662500    -0.0128270
  H        0.8222450     2.1733070     0.0302890
  H        2.8758370     0.4671910     0.8740370
  H        2.8626870     0.4795000    -0.8898540
  H        2.8779460    -1.0666660    -0.0186730
  H       -1.6754580     2.1523000    -0.0063760
units angstrom
no_reorient  #important for SAPT in psi4, default
symmetry c1  #important for SAPT in psi4, default
}

set PROPERTIES_ORIGIN ["COM"]
properties('MP2/aug-cc-pvtz', properties = ['dipole'])
--------------------------------------------------------------------------

    Molecular point group: c1
  Charge       = 0
  Multiplicity = 1
  Basis Set: AUG-CC-PVTZ
    Blend: AUG-CC-PVTZ
  Basis Set: (AUG-CC-PVTZ AUX)
    Blend: AUG-CC-PVTZ-JKFIT

    Orbital Energies [Eh]
    ---------------------

    Doubly Occupied:

       1A    -20.581333     2A    -11.294768     3A    -11.293934
       4A    -11.240373     5A    -11.226912     6A    -11.219985
       7A    -11.218713     8A     -1.396697     9A     -1.110665
      10A     -1.032382    11A     -0.971505    12A     -0.891464
      13A     -0.813030    14A     -0.691983    15A     -0.668159
      16A     -0.656806    17A     -0.650447    18A     -0.594241
      19A     -0.573489    20A     -0.555263    21A     -0.551107
      22A     -0.510916    23A     -0.508239    24A     -0.450222
      25A     -0.412106    26A     -0.299902

  @DF-RHF Final Energy:  -306.78220704526507

   => Energetics <=

    Nuclear Repulsion Energy =            288.5974007193562443
    One-Electron Energy =                -987.9299342375658171
    Two-Electron Energy =                 392.5503264729445618
    Total Energy =                       -306.7822070452650678
  Basis Set: (AUG-CC-PVTZ AUX)
    Blend: AUG-CC-PVTZ-RI
    Molecular point group: c1

    Geometry (in Angstrom), charge = 0, multiplicity = 1:

       Center              X                  Y                   Z               Mass
    ------------   -----------------  -----------------  -----------------  -----------------
         O           -1.819411310481     0.144679684045    -0.023366637713    15.994914619570
         C            1.036029789519    -0.153631015955     0.003175062287    12.000000000000
         C           -1.212888310481    -1.174779315955     0.016325362287    12.000000000000
         C            0.289738689519    -1.184825315955    -0.001652637713    12.000000000000
         C            0.330588689519     1.234310684045     0.017653362287    12.000000000000
         C            2.533692689519    -0.048766315955    -0.008071637713    12.000000000000
         C           -1.019643310481     1.248545684045    -0.000791637713    12.000000000000
         H           -1.618967310481    -1.720260315955    -0.845898637713     1.007825032230
         H           -1.599550310481    -1.667974315955     0.919403362287     1.007825032230
         H            0.759785689519    -2.167074315955    -0.012231637713     1.007825032230
         H            0.874848689519     2.172482684045     0.030884362287     1.007825032230
         H            2.928440689519     0.466366684045     0.874632362287     1.007825032230
         H            2.915290689519     0.478675684045    -0.889258637713     1.007825032230
         H            2.930549689519    -1.067490315955    -0.018077637713     1.007825032230
         H           -1.622854310481     2.151475684045    -0.005780637713     1.007825032230

  Basis Set: AUG-CC-PVTZ
    Blend: AUG-CC-PVTZ
  Basis Set: (AUG-CC-PVTZ AUX)
    Blend: AUG-CC-PVTZ-JKFIT
	 Reference Energy          =    -306.7822070452650678 [Eh]
	 Singles Energy            =      -0.0000000000000000 [Eh]
	 Same-Spin Energy          =      -0.3140050719279535 [Eh]
	 Opposite-Spin Energy      =      -1.0386103936534785 [Eh]
	 Correlation Energy        =      -1.3526154655814320 [Eh]
	 Total Energy              =    -308.1348225108465044 [Eh]

	 ================> DF-SCS-MP2 Energies <==================
	-----------------------------------------------------------
	 SCS Same-Spin Scale       =       0.3333333333333333 [-]
	 SCS Opposite-Spin Scale   =       1.2000000000000000 [-]
	 SCS Same-Spin Energy      =      -0.1046683573093178 [Eh]
	 SCS Opposite-Spin Energy  =      -1.2463324723841742 [Eh]
	 SCS Correlation Energy    =      -1.3510008296934921 [Eh]
	 SCS Total Energy          =    -308.1332078749585435 [Eh]
	-----------------------------------------------------------

  Dipole Moment: [D]
     X:     0.9605      Y:    -0.6392      Z:     0.0322     Total:     1.1542

*** Psi4 exiting successfully. Buy a developer a beer!
