                               Psi4 1.4a3.dev225

  ==> Input File <==

--------------------------------------------------------------------------
#psi4
#
memory 32 gb

molecule  {
0 1
  O       -1.7930600     0.0923906    -0.0234310
  C        0.9797650    -0.0480790     0.0033120
  C       -1.2654920    -1.1739550     0.0157300
  C        0.2371350    -1.1840010    -0.0022480
  C        0.2779850     1.2351350     0.0170580
  C        2.4810890    -0.0479420    -0.0086670
  C       -1.0722470     1.2493700    -0.0013870
  H       -1.6715710    -1.7194360    -0.8464940
  H       -1.6521540    -1.6671500     0.9188080
  H        0.7071820    -2.1662500    -0.0128270
  H        0.8222450     2.1733070     0.0302890
  H        2.8758370     0.4671910     0.8740370
  H        2.8626870     0.4795000    -0.8898540
  H        2.8779460    -1.0666660    -0.0186730
  H       -1.6754580     2.1523000    -0.0063760
units angstrom
no_reorient  #important for SAPT in psi4, default
symmetry c1  #important for SAPT in psi4, default
}

set PROPERTIES_ORIGIN ["COM"]
properties('MP2/aug-cc-pvtz', properties = ['dipole'])
--------------------------------------------------------------------------

    Molecular point group: c1
  Charge       = 0
  Multiplicity = 1
  Basis Set: AUG-CC-PVTZ
    Blend: AUG-CC-PVTZ
  Basis Set: (AUG-CC-PVTZ AUX)
    Blend: AUG-CC-PVTZ-JKFIT

    Orbital Energies [Eh]
    ---------------------

    Doubly Occupied:

       1A    -20.577375     2A    -11.302468     3A    -11.285487
       4A    -11.244945     5A    -11.225293     6A    -11.223930
       7A    -11.218920     8A     -1.418314     9A     -1.104078
      10A     -1.043403    11A     -0.968663    12A     -0.879594
      13A     -0.828454    14A     -0.700948    15A     -0.678220
      16A     -0.662695    17A     -0.658113    18A     -0.593101
      19A     -0.572300    20A     -0.560016    21A     -0.551215
      22A     -0.504856    23A     -0.501666    24A     -0.460358
      25A     -0.409215    26A     -0.284048

  @DF-RHF Final Energy:  -306.78774959489715

   => Energetics <=

    Nuclear Repulsion Energy =            290.6873118907176945
    One-Electron Energy =                -992.0347742560486495
    Two-Electron Energy =                 394.5597127704338618
    Total Energy =                       -306.7877495948971500
  Basis Set: (AUG-CC-PVTZ AUX)
    Blend: AUG-CC-PVTZ-RI
    Molecular point group: c1

    Geometry (in Angstrom), charge = 0, multiplicity = 1:

       Center              X                  Y                   Z               Mass
    ------------   -----------------  -----------------  -----------------  -----------------
         O           -1.753146054592     0.087327280961    -0.023015539303    15.994914619570
         C            1.019678945408    -0.053142319039     0.003727460697    12.000000000000
         C           -1.225578054592    -1.179018319039     0.016145460697    12.000000000000
         C            0.277048945408    -1.189064319039    -0.001832539303    12.000000000000
         C            0.317898945408     1.230071680961     0.017473460697    12.000000000000
         C            2.521002945408    -0.053005319039    -0.008251539303    12.000000000000
         C           -1.032333054592     1.244306680961    -0.000971539303    12.000000000000
         H           -1.631657054592    -1.724499319039    -0.846078539303     1.007825032230
         H           -1.612240054592    -1.672213319039     0.919223460697     1.007825032230
         H            0.747095945408    -2.171313319039    -0.012411539303     1.007825032230
         H            0.862158945408     2.168243680961     0.030704460697     1.007825032230
         H            2.915750945408     0.462127680961     0.874452460697     1.007825032230
         H            2.902600945408     0.474436680961    -0.889438539303     1.007825032230
         H            2.917859945408    -1.071729319039    -0.018257539303     1.007825032230
         H           -1.635544054592     2.147236680961    -0.005960539303     1.007825032230

  Basis Set: AUG-CC-PVTZ
    Blend: AUG-CC-PVTZ
  Basis Set: (AUG-CC-PVTZ AUX)
    Blend: AUG-CC-PVTZ-JKFIT
	 Reference Energy          =    -306.7877495948971500 [Eh]
	 Singles Energy            =      -0.0000000000000000 [Eh]
	 Same-Spin Energy          =      -0.3153097105578587 [Eh]
	 Opposite-Spin Energy      =      -1.0389352940104493 [Eh]
	 Correlation Energy        =      -1.3542450045683081 [Eh]
	 Total Energy              =    -308.1419945994654768 [Eh]

	 ================> DF-SCS-MP2 Energies <==================
	-----------------------------------------------------------
	 SCS Same-Spin Scale       =       0.3333333333333333 [-]
	 SCS Opposite-Spin Scale   =       1.2000000000000000 [-]
	 SCS Same-Spin Energy      =      -0.1051032368526196 [Eh]
	 SCS Opposite-Spin Energy  =      -1.2467223528125391 [Eh]
	 SCS Correlation Energy    =      -1.3518255896651585 [Eh]
	 SCS Total Energy          =    -308.1395751845623181 [Eh]
	-----------------------------------------------------------

  Dipole Moment: [D]
     X:     0.7868      Y:    -0.2746      Z:     0.0264     Total:     0.8337

*** Psi4 exiting successfully. Buy a developer a beer!
