                               Psi4 1.4a3.dev225

  ==> Input File <==

--------------------------------------------------------------------------
#psi4
#
memory 32 gb

molecule  {
0 1
  O       -1.8720150     0.1455040    -0.0239620
  C        0.9797650    -0.0480790     0.0033120
  C       -1.2654920    -1.1739550     0.0157300
  C        0.2371350    -1.1840010    -0.0022480
  C        0.2539949     1.2790013     0.0175279
  C        2.4810890    -0.0479420    -0.0086670
  C       -1.0722470     1.2493700    -0.0013870
  H       -1.6715710    -1.7194360    -0.8464940
  H       -1.6521540    -1.6671500     0.9188080
  H        0.7071820    -2.1662500    -0.0128270
  H        0.8222450     2.1733070     0.0302890
  H        2.8758370     0.4671910     0.8740370
  H        2.8626870     0.4795000    -0.8898540
  H        2.8779460    -1.0666660    -0.0186730
  H       -1.6754580     2.1523000    -0.0063760
units angstrom
no_reorient  #important for SAPT in psi4, default
symmetry c1  #important for SAPT in psi4, default
}

set PROPERTIES_ORIGIN ["COM"]
properties('MP2/aug-cc-pvtz', properties = ['dipole'])
--------------------------------------------------------------------------

    Molecular point group: c1
  Charge       = 0
  Multiplicity = 1
  Basis Set: AUG-CC-PVTZ
    Blend: AUG-CC-PVTZ
  Basis Set: (AUG-CC-PVTZ AUX)
    Blend: AUG-CC-PVTZ-JKFIT

    Orbital Energies [Eh]
    ---------------------

    Doubly Occupied:

       1A    -20.583646     2A    -11.295246     3A    -11.291634
       4A    -11.249694     5A    -11.227071     6A    -11.226538
       7A    -11.216813     8A     -1.398140     9A     -1.100933
      10A     -1.037993    11A     -0.973594    12A     -0.877974
      13A     -0.820972    14A     -0.695531    15A     -0.670934
      16A     -0.661014    17A     -0.649741    18A     -0.587020
      19A     -0.572509    20A     -0.557760    21A     -0.555099
      22A     -0.511813    23A     -0.499956    24A     -0.466263
      25A     -0.407066    26A     -0.291916

  @DF-RHF Final Energy:  -306.78903630267536

   => Energetics <=

    Nuclear Repulsion Energy =            288.0763388035119874
    One-Electron Energy =                -986.8770092724354299
    Two-Electron Energy =                 392.0116341662481432
    Total Energy =                       -306.7890363026753562
  Basis Set: (AUG-CC-PVTZ AUX)
    Blend: AUG-CC-PVTZ-RI
    Molecular point group: c1

    Geometry (in Angstrom), charge = 0, multiplicity = 1:

       Center              X                  Y                   Z               Mass
    ------------   -----------------  -----------------  -----------------  -----------------
         O           -1.815956980016     0.126116555463    -0.023516822735    15.994914619570
         C            1.035823019984    -0.067466444537     0.003757177265    12.000000000000
         C           -1.209433980016    -1.193342444537     0.016175177265    12.000000000000
         C            0.293193019984    -1.203388444537    -0.001802822735    12.000000000000
         C            0.310052919984     1.259613855463     0.017973077265    12.000000000000
         C            2.537147019984    -0.067329444537    -0.008221822735    12.000000000000
         C           -1.016188980016     1.229982555463    -0.000941822735    12.000000000000
         H           -1.615512980016    -1.738823444537    -0.846048822735     1.007825032230
         H           -1.596095980016    -1.686537444537     0.919253177265     1.007825032230
         H            0.763240019984    -2.185637444537    -0.012381822735     1.007825032230
         H            0.878303019984     2.153919555463     0.030734177265     1.007825032230
         H            2.931895019984     0.447803555463     0.874482177265     1.007825032230
         H            2.918745019984     0.460112555463    -0.889408822735     1.007825032230
         H            2.934004019984    -1.086053444537    -0.018227822735     1.007825032230
         H           -1.619399980016     2.132912555463    -0.005930822735     1.007825032230

  Basis Set: AUG-CC-PVTZ
    Blend: AUG-CC-PVTZ
  Basis Set: (AUG-CC-PVTZ AUX)
    Blend: AUG-CC-PVTZ-JKFIT
	 Reference Energy          =    -306.7890363026753562 [Eh]
	 Singles Energy            =      -0.0000000000000000 [Eh]
	 Same-Spin Energy          =      -0.3147015577849576 [Eh]
	 Opposite-Spin Energy      =      -1.0397380084811199 [Eh]
	 Correlation Energy        =      -1.3544395662660775 [Eh]
	 Total Energy              =    -308.1434758689414366 [Eh]

	 ================> DF-SCS-MP2 Energies <==================
	-----------------------------------------------------------
	 SCS Same-Spin Scale       =       0.3333333333333333 [-]
	 SCS Opposite-Spin Scale   =       1.2000000000000000 [-]
	 SCS Same-Spin Energy      =      -0.1049005192616525 [Eh]
	 SCS Opposite-Spin Energy  =      -1.2476856101773437 [Eh]
	 SCS Correlation Energy    =      -1.3525861294389963 [Eh]
	 SCS Total Energy          =    -308.1416224321143318 [Eh]
	-----------------------------------------------------------

  Dipole Moment: [D]
     X:     0.9710      Y:    -0.5428      Z:     0.0337     Total:     1.1129

*** Psi4 exiting successfully. Buy a developer a beer!
