                               Psi4 1.4a3.dev225

  ==> Input File <==

--------------------------------------------------------------------------
#psi4
#
memory 32 gb

molecule  {
0 1
  O       -1.8591386     0.1518084    -0.0030502
  C        0.9797650    -0.0480790     0.0033120
  C       -1.2654920    -1.1739550     0.0157300
  C        0.2371350    -1.1840010    -0.0022480
  C        0.2779850     1.2351350     0.0170580
  C        2.4810890    -0.0479420    -0.0086670
  C       -1.0722470     1.2493700    -0.0013870
  H       -1.6715710    -1.7194360    -0.8464940
  H       -1.6521540    -1.6671500     0.9188080
  H        0.7071820    -2.1662500    -0.0128270
  H        0.8222450     2.1733070     0.0302890
  H        2.8758370     0.4671910     0.8740370
  H        2.8626870     0.4795000    -0.8898540
  H        2.8779460    -1.0666660    -0.0186730
  H       -1.6754580     2.1523000    -0.0063760
units angstrom
no_reorient  #important for SAPT in psi4, default
symmetry c1  #important for SAPT in psi4, default
}

set PROPERTIES_ORIGIN ["COM"]
properties('MP2/aug-cc-pvtz', properties = ['dipole'])
--------------------------------------------------------------------------

    Molecular point group: c1
  Charge       = 0
  Multiplicity = 1
  Basis Set: AUG-CC-PVTZ
    Blend: AUG-CC-PVTZ
  Basis Set: (AUG-CC-PVTZ AUX)
    Blend: AUG-CC-PVTZ-JKFIT

    Orbital Energies [Eh]
    ---------------------

    Doubly Occupied:

       1A    -20.584139     2A    -11.299632     3A    -11.292883
       4A    -11.246567     5A    -11.225768     6A    -11.225653
       7A    -11.216238     8A     -1.403932     9A     -1.105323
      10A     -1.035801    11A     -0.971538    12A     -0.877031
      13A     -0.827140    14A     -0.695591    15A     -0.674700
      16A     -0.657400    17A     -0.651408    18A     -0.586963
      19A     -0.572505    20A     -0.557468    21A     -0.551949
      22A     -0.513604    23A     -0.504362    24A     -0.468146
      25A     -0.409132    26A     -0.284321

  @DF-RHF Final Energy:  -306.79030451328657

   => Energetics <=

    Nuclear Repulsion Energy =            288.8766006252463399
    One-Electron Energy =                -988.4554227952286283
    Two-Electron Energy =                 392.7885176566956602
    Total Energy =                       -306.7903045132865714
  Basis Set: (AUG-CC-PVTZ AUX)
    Blend: AUG-CC-PVTZ-RI
    Molecular point group: c1

    Geometry (in Angstrom), charge = 0, multiplicity = 1:

       Center              X                  Y                   Z               Mass
    ------------   -----------------  -----------------  -----------------  -----------------
         O           -1.808221647003     0.136851189378    -0.006028426473    15.994914619570
         C            1.030681952997    -0.063036210622     0.000333773527    12.000000000000
         C           -1.214575047003    -1.188912210622     0.012751773527    12.000000000000
         C            0.288051952997    -1.198958210622    -0.005226226473    12.000000000000
         C            0.328901952997     1.220177789378     0.014079773527    12.000000000000
         C            2.532005952997    -0.062899210622    -0.011645226473    12.000000000000
         C           -1.021330047003     1.234412789378    -0.004365226473    12.000000000000
         H           -1.620654047003    -1.734393210622    -0.849472226473     1.007825032230
         H           -1.601237047003    -1.682107210622     0.915829773527     1.007825032230
         H            0.758098952997    -2.181207210622    -0.015805226473     1.007825032230
         H            0.873161952997     2.158349789378     0.027310773527     1.007825032230
         H            2.926753952997     0.452233789378     0.871058773527     1.007825032230
         H            2.913603952997     0.464542789378    -0.892832226473     1.007825032230
         H            2.928862952997    -1.081623210622    -0.021651226473     1.007825032230
         H           -1.624541047003     2.137342789378    -0.009354226473     1.007825032230

  Basis Set: AUG-CC-PVTZ
    Blend: AUG-CC-PVTZ
  Basis Set: (AUG-CC-PVTZ AUX)
    Blend: AUG-CC-PVTZ-JKFIT
	 Reference Energy          =    -306.7903045132865714 [Eh]
	 Singles Energy            =      -0.0000000000000000 [Eh]
	 Same-Spin Energy          =      -0.3155730634131178 [Eh]
	 Opposite-Spin Energy      =      -1.0403895329459139 [Eh]
	 Correlation Energy        =      -1.3559625963590316 [Eh]
	 Total Energy              =    -308.1462671096455779 [Eh]

	 ================> DF-SCS-MP2 Energies <==================
	-----------------------------------------------------------
	 SCS Same-Spin Scale       =       0.3333333333333333 [-]
	 SCS Opposite-Spin Scale   =       1.2000000000000000 [-]
	 SCS Same-Spin Energy      =      -0.1051910211377059 [Eh]
	 SCS Opposite-Spin Energy  =      -1.2484674395350965 [Eh]
	 SCS Correlation Energy    =      -1.3536584606728024 [Eh]
	 SCS Total Energy          =    -308.1439629739593897 [Eh]
	-----------------------------------------------------------

  Dipole Moment: [D]
     X:     0.8386      Y:    -0.5537      Z:     0.0130     Total:     1.0050

*** Psi4 exiting successfully. Buy a developer a beer!
