                               Psi4 1.4a3.dev225

  ==> Input File <==

--------------------------------------------------------------------------
#psi4
#
memory 32 gb

molecule  {
0 1
  O       -1.8720150     0.1455040    -0.0239620
  C        0.9797650    -0.0480790     0.0033120
  C       -1.2654920    -1.1739550     0.0157300
  C        0.2371350    -1.1840010    -0.0022480
  C        0.2779850     1.2351350     0.0170580
  C        2.4810890    -0.0479420    -0.0086670
  C       -1.0722470     1.2493700    -0.0013870
  H       -1.5976124    -1.6200884    -0.6894584
  H       -1.6521540    -1.6671500     0.9188080
  H        0.7071820    -2.1662500    -0.0128270
  H        0.8222450     2.1733070     0.0302890
  H        2.8758370     0.4671910     0.8740370
  H        2.8626870     0.4795000    -0.8898540
  H        2.8779460    -1.0666660    -0.0186730
  H       -1.6754580     2.1523000    -0.0063760
units angstrom
no_reorient  #important for SAPT in psi4, default
symmetry c1  #important for SAPT in psi4, default
}

set PROPERTIES_ORIGIN ["COM"]
properties('MP2/aug-cc-pvtz', properties = ['dipole'])
--------------------------------------------------------------------------

    Molecular point group: c1
  Charge       = 0
  Multiplicity = 1
  Basis Set: AUG-CC-PVTZ
    Blend: AUG-CC-PVTZ
  Basis Set: (AUG-CC-PVTZ AUX)
    Blend: AUG-CC-PVTZ-JKFIT

    Orbital Energies [Eh]
    ---------------------

    Doubly Occupied:

       1A    -20.581870     2A    -11.299253     3A    -11.267123
       4A    -11.246087     5A    -11.225516     6A    -11.225022
       7A    -11.217200     8A     -1.398046     9A     -1.105427
      10A     -1.046251    11A     -0.974507    12A     -0.889116
      13A     -0.828419    14A     -0.700412    15A     -0.681002
      16A     -0.664069    17A     -0.656102    18A     -0.589344
      19A     -0.572623    20A     -0.557552    21A     -0.551771
      22A     -0.521956    23A     -0.504279    24A     -0.468596
      25A     -0.409548    26A     -0.285936

  @DF-RHF Final Energy:  -306.75778341991958

   => Energetics <=

    Nuclear Repulsion Energy =            289.6490230593085471
    One-Electron Energy =                -989.8795584178177478
    Two-Electron Energy =                 393.4727519385896244
    Total Energy =                       -306.7577834199195763
  Basis Set: (AUG-CC-PVTZ AUX)
    Blend: AUG-CC-PVTZ-RI
    Molecular point group: c1

    Geometry (in Angstrom), charge = 0, multiplicity = 1:

       Center              X                  Y                   Z               Mass
    ------------   -----------------  -----------------  -----------------  -----------------
         O           -1.819729912606     0.130554215570    -0.025105720895    15.994914619570
         C            1.032050087394    -0.063028784430     0.002168279105    12.000000000000
         C           -1.213206912606    -1.188904784430     0.014586279105    12.000000000000
         C            0.289420087394    -1.198950784430    -0.003391720895    12.000000000000
         C            0.330270087394     1.220185215570     0.015914279105    12.000000000000
         C            2.533374087394    -0.062891784430    -0.009810720895    12.000000000000
         C           -1.019961912606     1.234420215570    -0.002530720895    12.000000000000
         H           -1.545327312606    -1.635038184430    -0.690602120895     1.007825032230
         H           -1.599868912606    -1.682099784430     0.917664279105     1.007825032230
         H            0.759467087394    -2.181199784430    -0.013970720895     1.007825032230
         H            0.874530087394     2.158357215570     0.029145279105     1.007825032230
         H            2.928122087394     0.452241215570     0.872893279105     1.007825032230
         H            2.914972087394     0.464550215570    -0.890997720895     1.007825032230
         H            2.930231087394    -1.081615784430    -0.019816720895     1.007825032230
         H           -1.623172912606     2.137350215570    -0.007519720895     1.007825032230

  Basis Set: AUG-CC-PVTZ
    Blend: AUG-CC-PVTZ
  Basis Set: (AUG-CC-PVTZ AUX)
    Blend: AUG-CC-PVTZ-JKFIT
	 Reference Energy          =    -306.7577834199195763 [Eh]
	 Singles Energy            =      -0.0000000000000000 [Eh]
	 Same-Spin Energy          =      -0.3154702968695505 [Eh]
	 Opposite-Spin Energy      =      -1.0399682546349500 [Eh]
	 Correlation Energy        =      -1.3554385515045007 [Eh]
	 Total Energy              =    -308.1132219714240819 [Eh]

	 ================> DF-SCS-MP2 Energies <==================
	-----------------------------------------------------------
	 SCS Same-Spin Scale       =       0.3333333333333333 [-]
	 SCS Opposite-Spin Scale   =       1.2000000000000000 [-]
	 SCS Same-Spin Energy      =      -0.1051567656231835 [Eh]
	 SCS Opposite-Spin Energy  =      -1.2479619055619400 [Eh]
	 SCS Correlation Energy    =      -1.3531186711851235 [Eh]
	 SCS Total Energy          =    -308.1109020911047196 [Eh]
	-----------------------------------------------------------

  Dipole Moment: [D]
     X:     0.8522      Y:    -0.6009      Z:    -0.0074     Total:     1.0428

*** Psi4 exiting successfully. Buy a developer a beer!
