                               Psi4 1.4a3.dev225

  ==> Input File <==

--------------------------------------------------------------------------
#psi4
#
memory 32 gb

molecule  {
0 1
  O       -1.8720150     0.1455040    -0.0239620
  C        0.9797650    -0.0480790     0.0033120
  C       -1.2654920    -1.1739550     0.0157300
  C        0.2371350    -1.1840010    -0.0022480
  C        0.2779850     1.2351350     0.0170580
  C        2.4810890    -0.0479420    -0.0086670
  C       -1.0722470     1.2493700    -0.0013870
  H       -1.6715710    -1.7194360    -0.8464940
  H       -1.6521540    -1.6671500     0.9188080
  H        0.7071820    -2.1662500    -0.0128270
  H        0.8222450     2.1733070     0.0302890
  H        2.8758370     0.4671910     0.8740370
  H        2.8801023     0.5035713    -0.9300694
  H        2.8779460    -1.0666660    -0.0186730
  H       -1.6754580     2.1523000    -0.0063760
units angstrom
no_reorient  #important for SAPT in psi4, default
symmetry c1  #important for SAPT in psi4, default
}

set PROPERTIES_ORIGIN ["COM"]
properties('MP2/aug-cc-pvtz', properties = ['dipole'])
--------------------------------------------------------------------------

    Molecular point group: c1
  Charge       = 0
  Multiplicity = 1
  Basis Set: AUG-CC-PVTZ
    Blend: AUG-CC-PVTZ
  Basis Set: (AUG-CC-PVTZ AUX)
    Blend: AUG-CC-PVTZ-JKFIT

    Orbital Energies [Eh]
    ---------------------

    Doubly Occupied:

       1A    -20.583996     2A    -11.300182     3A    -11.292134
       4A    -11.247295     5A    -11.232093     6A    -11.226956
       7A    -11.218290     8A     -1.398995     9A     -1.105862
      10A     -1.034922    11A     -0.969278    12A     -0.875543
      13A     -0.826554    14A     -0.693756    15A     -0.673852
      16A     -0.657557    17A     -0.649936    18A     -0.585632
      19A     -0.566862    20A     -0.557729    21A     -0.550726
      22A     -0.511370    23A     -0.503469    24A     -0.469769
      25A     -0.409567    26A     -0.285667

  @DF-RHF Final Energy:  -306.78769632959131

   => Energetics <=

    Nuclear Repulsion Energy =            288.3306038353483700
    One-Electron Energy =                -987.3806167650210455
    Two-Electron Energy =                 392.2623166000813626
    Total Energy =                       -306.7876963295913129
  Basis Set: (AUG-CC-PVTZ AUX)
    Blend: AUG-CC-PVTZ-RI
    Molecular point group: c1

    Geometry (in Angstrom), charge = 0, multiplicity = 1:

       Center              X                  Y                   Z               Mass
    ------------   -----------------  -----------------  -----------------  -----------------
         O           -1.819136666433     0.131344006349    -0.023036184787    15.994914619570
         C            1.032643333567    -0.062238993651     0.004237815213    12.000000000000
         C           -1.212613666433    -1.188114993651     0.016655815213    12.000000000000
         C            0.290013333567    -1.198160993651    -0.001322184787    12.000000000000
         C            0.330863333567     1.220975006349     0.017983815213    12.000000000000
         C            2.533967333567    -0.062101993651    -0.007741184787    12.000000000000
         C           -1.019368666433     1.235210006349    -0.000461184787    12.000000000000
         H           -1.618692666433    -1.733595993651    -0.845568184787     1.007825032230
         H           -1.599275666433    -1.681309993651     0.919733815213     1.007825032230
         H            0.760060333567    -2.180409993651    -0.011901184787     1.007825032230
         H            0.875123333567     2.159147006349     0.031214815213     1.007825032230
         H            2.928715333567     0.453031006349     0.874962815213     1.007825032230
         H            2.932980633567     0.489411306349    -0.929143584787     1.007825032230
         H            2.930824333567    -1.080825993651    -0.017747184787     1.007825032230
         H           -1.622579666433     2.138140006349    -0.005450184787     1.007825032230

  Basis Set: AUG-CC-PVTZ
    Blend: AUG-CC-PVTZ
  Basis Set: (AUG-CC-PVTZ AUX)
    Blend: AUG-CC-PVTZ-JKFIT
	 Reference Energy          =    -306.7876963295913129 [Eh]
	 Singles Energy            =      -0.0000000000000000 [Eh]
	 Same-Spin Energy          =      -0.3155939462532789 [Eh]
	 Opposite-Spin Energy      =      -1.0411196636689943 [Eh]
	 Correlation Energy        =      -1.3567136099222732 [Eh]
	 Total Energy              =    -308.1444099395135936 [Eh]

	 ================> DF-SCS-MP2 Energies <==================
	-----------------------------------------------------------
	 SCS Same-Spin Scale       =       0.3333333333333333 [-]
	 SCS Opposite-Spin Scale   =       1.2000000000000000 [-]
	 SCS Same-Spin Energy      =      -0.1051979820844263 [Eh]
	 SCS Opposite-Spin Energy  =      -1.2493435964027932 [Eh]
	 SCS Correlation Energy    =      -1.3545415784872195 [Eh]
	 SCS Total Energy          =    -308.1422379080785277 [Eh]
	-----------------------------------------------------------

  Dipole Moment: [D]
     X:     0.8845      Y:    -0.5340      Z:     0.0503     Total:     1.0344

*** Psi4 exiting successfully. Buy a developer a beer!
