                               Psi4 1.4a3.dev225

  ==> Input File <==

--------------------------------------------------------------------------
#psi4
#
memory 32 gb

molecule  {
0 1
  O       -1.8720150     0.1455040    -0.0239620
  C        0.9797650    -0.0480790     0.0033120
  C       -1.2654920    -1.1739550     0.0157300
  C        0.2174236    -1.1708684    -0.0020466
  C        0.2779850     1.2351350     0.0170580
  C        2.4810890    -0.0479420    -0.0086670
  C       -1.0722470     1.2493700    -0.0013870
  H       -1.6715710    -1.7194360    -0.8464940
  H       -1.6521540    -1.6671500     0.9188080
  H        0.7071820    -2.1662500    -0.0128270
  H        0.8222450     2.1733070     0.0302890
  H        2.8758370     0.4671910     0.8740370
  H        2.8626870     0.4795000    -0.8898540
  H        2.8779460    -1.0666660    -0.0186730
  H       -1.6754580     2.1523000    -0.0063760
units angstrom
no_reorient  #important for SAPT in psi4, default
symmetry c1  #important for SAPT in psi4, default
}

set PROPERTIES_ORIGIN ["COM"]
properties('MP2/aug-cc-pvtz', properties = ['dipole'])
--------------------------------------------------------------------------

    Molecular point group: c1
  Charge       = 0
  Multiplicity = 1
  Basis Set: AUG-CC-PVTZ
    Blend: AUG-CC-PVTZ
  Basis Set: (AUG-CC-PVTZ AUX)
    Blend: AUG-CC-PVTZ-JKFIT

    Orbital Energies [Eh]
    ---------------------

    Doubly Occupied:

       1A    -20.583300     2A    -11.299427     3A    -11.291517
       4A    -11.246773     5A    -11.227254     6A    -11.226924
       7A    -11.217699     8A     -1.398937     9A     -1.106620
      10A     -1.036408    11A     -0.973456    12A     -0.875492
      13A     -0.827711    14A     -0.694423    15A     -0.672424
      16A     -0.656024    17A     -0.650579    18A     -0.586602
      19A     -0.573295    20A     -0.558426    21A     -0.550952
      22A     -0.511820    23A     -0.503896    24A     -0.470120
      25A     -0.410261    26A     -0.284747

  @DF-RHF Final Energy:  -306.78886373380385

   => Energetics <=

    Nuclear Repulsion Energy =            288.8181650165807923
    One-Electron Energy =                -988.3438857023369337
    Two-Electron Energy =                 392.7368569519522907
    Total Energy =                       -306.7888637338038507
  Basis Set: (AUG-CC-PVTZ AUX)
    Blend: AUG-CC-PVTZ-RI
    Molecular point group: c1

    Geometry (in Angstrom), charge = 0, multiplicity = 1:

       Center              X                  Y                   Z               Mass
    ------------   -----------------  -----------------  -----------------  -----------------
         O           -1.816491497279     0.129955967720    -0.023483280330    15.994914619570
         C            1.035288502721    -0.063627032280     0.003790719670    12.000000000000
         C           -1.209968497279    -1.189503032280     0.016208719670    12.000000000000
         C            0.272947102721    -1.186416432280    -0.001567880330    12.000000000000
         C            0.333508502721     1.219586967720     0.017536719670    12.000000000000
         C            2.536612502721    -0.063490032280    -0.008188280330    12.000000000000
         C           -1.016723497279     1.233821967720    -0.000908280330    12.000000000000
         H           -1.616047497279    -1.734984032280    -0.846015280330     1.007825032230
         H           -1.596630497279    -1.682698032280     0.919286719670     1.007825032230
         H            0.762705502721    -2.181798032280    -0.012348280330     1.007825032230
         H            0.877768502721     2.157758967720     0.030767719670     1.007825032230
         H            2.931360502721     0.451642967720     0.874515719670     1.007825032230
         H            2.918210502721     0.463951967720    -0.889375280330     1.007825032230
         H            2.933469502721    -1.082214032280    -0.018194280330     1.007825032230
         H           -1.619934497279     2.136751967720    -0.005897280330     1.007825032230

  Basis Set: AUG-CC-PVTZ
    Blend: AUG-CC-PVTZ
  Basis Set: (AUG-CC-PVTZ AUX)
    Blend: AUG-CC-PVTZ-JKFIT
	 Reference Energy          =    -306.7888637338038507 [Eh]
	 Singles Energy            =      -0.0000000000000000 [Eh]
	 Same-Spin Energy          =      -0.3158046076234363 [Eh]
	 Opposite-Spin Energy      =      -1.0410130505514847 [Eh]
	 Correlation Energy        =      -1.3568176581749209 [Eh]
	 Total Energy              =    -308.1456813919787692 [Eh]

	 ================> DF-SCS-MP2 Energies <==================
	-----------------------------------------------------------
	 SCS Same-Spin Scale       =       0.3333333333333333 [-]
	 SCS Opposite-Spin Scale   =       1.2000000000000000 [-]
	 SCS Same-Spin Energy      =      -0.1052682025411454 [Eh]
	 SCS Opposite-Spin Energy  =      -1.2492156606617817 [Eh]
	 SCS Correlation Energy    =      -1.3544838632029270 [Eh]
	 SCS Total Energy          =    -308.1433475970067661 [Eh]
	-----------------------------------------------------------

  Dipole Moment: [D]
     X:     0.9211      Y:    -0.5251      Z:     0.0327     Total:     1.0607

*** Psi4 exiting successfully. Buy a developer a beer!
