                               Psi4 1.4a3.dev225

  ==> Input File <==

--------------------------------------------------------------------------
#psi4
#
memory 32 gb

molecule  {
0 1
  O       -1.8194402     0.1682917     0.0596942
  C        0.9797650    -0.0480790     0.0033120
  C       -1.2654920    -1.1739550     0.0157300
  C        0.2371350    -1.1840010    -0.0022480
  C        0.2779850     1.2351350     0.0170580
  C        2.4810890    -0.0479420    -0.0086670
  C       -1.0722470     1.2493700    -0.0013870
  H       -1.6715710    -1.7194360    -0.8464940
  H       -1.6521540    -1.6671500     0.9188080
  H        0.7071820    -2.1662500    -0.0128270
  H        0.8222450     2.1733070     0.0302890
  H        2.8758370     0.4671910     0.8740370
  H        2.8626870     0.4795000    -0.8898540
  H        2.8779460    -1.0666660    -0.0186730
  H       -1.6754580     2.1523000    -0.0063760
units angstrom
no_reorient  #important for SAPT in psi4, default
symmetry c1  #important for SAPT in psi4, default
}

set PROPERTIES_ORIGIN ["COM"]
properties('MP2/aug-cc-pvtz', properties = ['dipole'])
--------------------------------------------------------------------------

    Molecular point group: c1
  Charge       = 0
  Multiplicity = 1
  Basis Set: AUG-CC-PVTZ
    Blend: AUG-CC-PVTZ
  Basis Set: (AUG-CC-PVTZ AUX)
    Blend: AUG-CC-PVTZ-JKFIT

    Orbital Energies [Eh]
    ---------------------

    Doubly Occupied:

       1A    -20.584699     2A    -11.298068     3A    -11.295935
       4A    -11.245850     5A    -11.224746     6A    -11.223438
       7A    -11.210671     8A     -1.418615     9A     -1.103432
      10A     -1.039137    11A     -0.970151    12A     -0.879135
      13A     -0.826994    14A     -0.700718    15A     -0.679010
      16A     -0.656381    17A     -0.655126    18A     -0.590411
      19A     -0.571430    20A     -0.556866    21A     -0.550049
      22A     -0.520631    23A     -0.504799    24A     -0.463749
      25A     -0.406041    26A     -0.281174

  @DF-RHF Final Energy:  -306.78950773611530

   => Energetics <=

    Nuclear Repulsion Energy =            289.8790445393773894
    One-Electron Energy =                -990.4225947721707826
    Two-Electron Energy =                 393.7540424966781529
    Total Energy =                       -306.7895077361152971
  Basis Set: (AUG-CC-PVTZ AUX)
    Blend: AUG-CC-PVTZ-RI
    Molecular point group: c1

    Geometry (in Angstrom), charge = 0, multiplicity = 1:

       Center              X                  Y                   Z               Mass
    ------------   -----------------  -----------------  -----------------  -----------------
         O           -1.775133583730     0.150589790263     0.046268156694    15.994914619570
         C            1.024071616270    -0.065780909737    -0.010114043306    12.000000000000
         C           -1.221185383730    -1.191656909737     0.002303956694    12.000000000000
         C            0.281441616270    -1.201702909737    -0.015674043306    12.000000000000
         C            0.322291616270     1.217433090263     0.003631956694    12.000000000000
         C            2.525395616270    -0.065643909737    -0.022093043306    12.000000000000
         C           -1.027940383730     1.231668090263    -0.014813043306    12.000000000000
         H           -1.627264383730    -1.737137909737    -0.859920043306     1.007825032230
         H           -1.607847383730    -1.684851909737     0.905381956694     1.007825032230
         H            0.751488616270    -2.183951909737    -0.026253043306     1.007825032230
         H            0.866551616270     2.155605090263     0.016862956694     1.007825032230
         H            2.920143616270     0.449489090263     0.860610956694     1.007825032230
         H            2.906993616270     0.461798090263    -0.903280043306     1.007825032230
         H            2.922252616270    -1.084367909737    -0.032099043306     1.007825032230
         H           -1.631151383730     2.134598090263    -0.019802043306     1.007825032230

  Basis Set: AUG-CC-PVTZ
    Blend: AUG-CC-PVTZ
  Basis Set: (AUG-CC-PVTZ AUX)
    Blend: AUG-CC-PVTZ-JKFIT
	 Reference Energy          =    -306.7895077361152971 [Eh]
	 Singles Energy            =      -0.0000000000000000 [Eh]
	 Same-Spin Energy          =      -0.3155529804566191 [Eh]
	 Opposite-Spin Energy      =      -1.0393192936905700 [Eh]
	 Correlation Energy        =      -1.3548722741471890 [Eh]
	 Total Energy              =    -308.1443800102624664 [Eh]

	 ================> DF-SCS-MP2 Energies <==================
	-----------------------------------------------------------
	 SCS Same-Spin Scale       =       0.3333333333333333 [-]
	 SCS Opposite-Spin Scale   =       1.2000000000000000 [-]
	 SCS Same-Spin Energy      =      -0.1051843268188730 [Eh]
	 SCS Opposite-Spin Energy  =      -1.2471831524286838 [Eh]
	 SCS Correlation Energy    =      -1.3523674792475568 [Eh]
	 SCS Total Energy          =    -308.1418752153628589 [Eh]
	-----------------------------------------------------------

  Dipole Moment: [D]
     X:     0.6423      Y:    -0.6502      Z:    -0.0406     Total:     0.9149

*** Psi4 exiting successfully. Buy a developer a beer!
