                               Psi4 1.4a3.dev225

  ==> Input File <==

--------------------------------------------------------------------------
#psi4
#
memory 32 gb

molecule  {
0 1
  O       -1.8720150     0.1455040    -0.0239620
  C        0.9797650    -0.0480790     0.0033120
  C       -1.2654920    -1.1739550     0.0157300
  C        0.2371350    -1.1840010    -0.0022480
  C        0.2779850     1.2351350     0.0170580
  C        2.4810890    -0.0479420    -0.0086670
  C       -1.0722470     1.2493700    -0.0013870
  H       -1.6715710    -1.7194360    -0.8464940
  H       -1.6521540    -1.6671500     0.9188080
  H        0.7071820    -2.1662500    -0.0128270
  H        0.8222450     2.1733070     0.0302890
  H        2.8758370     0.4671910     0.8740370
  H        2.8626870     0.4795000    -0.8898540
  H        2.8597972    -1.0200783    -0.0182154
  H       -1.6754580     2.1523000    -0.0063760
units angstrom
no_reorient  #important for SAPT in psi4, default
symmetry c1  #important for SAPT in psi4, default
}

set PROPERTIES_ORIGIN ["COM"]
properties('MP2/aug-cc-pvtz', properties = ['dipole'])
--------------------------------------------------------------------------

    Molecular point group: c1
  Charge       = 0
  Multiplicity = 1
  Basis Set: AUG-CC-PVTZ
    Blend: AUG-CC-PVTZ
  Basis Set: (AUG-CC-PVTZ AUX)
    Blend: AUG-CC-PVTZ-JKFIT

    Orbital Energies [Eh]
    ---------------------

    Doubly Occupied:

       1A    -20.583699     2A    -11.299857     3A    -11.291763
       4A    -11.246454     5A    -11.226289     6A    -11.220006
       7A    -11.217829     8A     -1.398683     9A     -1.106325
      10A     -1.034559    11A     -0.975304    12A     -0.876473
      13A     -0.828561    14A     -0.694472    15A     -0.674542
      16A     -0.657577    17A     -0.649605    18A     -0.586023
      19A     -0.572248    20A     -0.561546    21A     -0.555617
      22A     -0.511077    23A     -0.505760    24A     -0.469285
      25A     -0.409897    26A     -0.285320

  @DF-RHF Final Energy:  -306.78883555880645

   => Energetics <=

    Nuclear Repulsion Energy =            288.7492116257483872
    One-Electron Energy =                -988.1985548942650439
    Two-Electron Energy =                 392.6605077097102594
    Total Energy =                       -306.7888355588064542
  Basis Set: (AUG-CC-PVTZ AUX)
    Blend: AUG-CC-PVTZ-RI
    Molecular point group: c1

    Geometry (in Angstrom), charge = 0, multiplicity = 1:

       Center              X                  Y                   Z               Mass
    ------------   -----------------  -----------------  -----------------  -----------------
         O           -1.818763531751     0.131107766721    -0.023462921494    15.994914619570
         C            1.033016468249    -0.062475233279     0.003811078506    12.000000000000
         C           -1.212240531751    -1.188351233279     0.016229078506    12.000000000000
         C            0.290386468249    -1.198397233279    -0.001748921494    12.000000000000
         C            0.331236468249     1.220738766721     0.017557078506    12.000000000000
         C            2.534340468249    -0.062338233279    -0.008167921494    12.000000000000
         C           -1.018995531751     1.234973766721    -0.000887921494    12.000000000000
         H           -1.618319531751    -1.733832233279    -0.845994921494     1.007825032230
         H           -1.598902531751    -1.681546233279     0.919307078506     1.007825032230
         H            0.760433468249    -2.180646233279    -0.012327921494     1.007825032230
         H            0.875496468249     2.158910766721     0.030788078506     1.007825032230
         H            2.929088468249     0.452794766721     0.874536078506     1.007825032230
         H            2.915938468249     0.465103766721    -0.889354921494     1.007825032230
         H            2.913048668249    -1.034474533279    -0.017716321494     1.007825032230
         H           -1.622206531751     2.137903766721    -0.005876921494     1.007825032230

  Basis Set: AUG-CC-PVTZ
    Blend: AUG-CC-PVTZ
  Basis Set: (AUG-CC-PVTZ AUX)
    Blend: AUG-CC-PVTZ-JKFIT
	 Reference Energy          =    -306.7888355588064542 [Eh]
	 Singles Energy            =      -0.0000000000000000 [Eh]
	 Same-Spin Energy          =      -0.3155852396920292 [Eh]
	 Opposite-Spin Energy      =      -1.0404756322884396 [Eh]
	 Correlation Energy        =      -1.3560608719804690 [Eh]
	 Total Energy              =    -308.1448964307869005 [Eh]

	 ================> DF-SCS-MP2 Energies <==================
	-----------------------------------------------------------
	 SCS Same-Spin Scale       =       0.3333333333333333 [-]
	 SCS Opposite-Spin Scale   =       1.2000000000000000 [-]
	 SCS Same-Spin Energy      =      -0.1051950798973431 [Eh]
	 SCS Opposite-Spin Energy  =      -1.2485707587461274 [Eh]
	 SCS Correlation Energy    =      -1.3537658386434706 [Eh]
	 SCS Total Energy          =    -308.1426013974499369 [Eh]
	-----------------------------------------------------------

  Dipole Moment: [D]
     X:     0.9290      Y:    -0.5394      Z:     0.0323     Total:     1.0747

*** Psi4 exiting successfully. Buy a developer a beer!
