                               Psi4 1.4a3.dev225

  ==> Input File <==

--------------------------------------------------------------------------
#psi4
#
memory 32 gb

molecule  {
0 1
  O       -1.8720150     0.1455040    -0.0239620
  C        0.9797650    -0.0480790     0.0033120
  C       -1.2625387    -1.2788036     0.0151641
  C        0.2371350    -1.1840010    -0.0022480
  C        0.2779850     1.2351350     0.0170580
  C        2.4810890    -0.0479420    -0.0086670
  C       -1.0722470     1.2493700    -0.0013870
  H       -1.6715710    -1.7194360    -0.8464940
  H       -1.6521540    -1.6671500     0.9188080
  H        0.7071820    -2.1662500    -0.0128270
  H        0.8222450     2.1733070     0.0302890
  H        2.8758370     0.4671910     0.8740370
  H        2.8626870     0.4795000    -0.8898540
  H        2.8779460    -1.0666660    -0.0186730
  H       -1.6754580     2.1523000    -0.0063760
units angstrom
no_reorient  #important for SAPT in psi4, default
symmetry c1  #important for SAPT in psi4, default
}

set PROPERTIES_ORIGIN ["COM"]
properties('MP2/aug-cc-pvtz', properties = ['dipole'])
--------------------------------------------------------------------------

    Molecular point group: c1
  Charge       = 0
  Multiplicity = 1
  Basis Set: AUG-CC-PVTZ
    Blend: AUG-CC-PVTZ
  Basis Set: (AUG-CC-PVTZ AUX)
    Blend: AUG-CC-PVTZ-JKFIT

    Orbital Energies [Eh]
    ---------------------

    Doubly Occupied:

       1A    -20.573580     2A    -11.296884     3A    -11.294380
       4A    -11.250008     5A    -11.226796     6A    -11.225991
       7A    -11.212677     8A     -1.370962     9A     -1.104033
      10A     -1.033588    11A     -0.972597    12A     -0.878669
      13A     -0.821822    14A     -0.685259    15A     -0.669532
      16A     -0.655439    17A     -0.654445    18A     -0.586033
      19A     -0.573525    20A     -0.548706    21A     -0.544791
      22A     -0.524263    23A     -0.508243    24A     -0.459357
      25A     -0.406762    26A     -0.286362

  @DF-RHF Final Energy:  -306.77949780467736

   => Energetics <=

    Nuclear Repulsion Energy =            286.9658273495168714
    One-Electron Energy =                -984.7612457731549966
    Two-Electron Energy =                 391.0159206189607630
    Total Energy =                       -306.7794978046773622
  Basis Set: (AUG-CC-PVTZ AUX)
    Blend: AUG-CC-PVTZ-RI
    Molecular point group: c1

    Geometry (in Angstrom), charge = 0, multiplicity = 1:

       Center              X                  Y                   Z               Mass
    ------------   -----------------  -----------------  -----------------  -----------------
         O           -1.819322888455     0.144694787497    -0.023387425258    15.994914619570
         C            1.032457111545    -0.048888212503     0.003886574742    12.000000000000
         C           -1.209846588455    -1.279612812503     0.015738674742    12.000000000000
         C            0.289827111545    -1.184810212503    -0.001673425258    12.000000000000
         C            0.330677111545     1.234325787497     0.017632574742    12.000000000000
         C            2.533781111545    -0.048751212503    -0.008092425258    12.000000000000
         C           -1.019554888455     1.248560787497    -0.000812425258    12.000000000000
         H           -1.618878888455    -1.720245212503    -0.845919425258     1.007825032230
         H           -1.599461888455    -1.667959212503     0.919382574742     1.007825032230
         H            0.759874111545    -2.167059212503    -0.012252425258     1.007825032230
         H            0.874937111545     2.172497787497     0.030863574742     1.007825032230
         H            2.928529111545     0.466381787497     0.874611574742     1.007825032230
         H            2.915379111545     0.478690787497    -0.889279425258     1.007825032230
         H            2.930638111545    -1.067475212503    -0.018098425258     1.007825032230
         H           -1.622765888455     2.151490787497    -0.005801425258     1.007825032230

  Basis Set: AUG-CC-PVTZ
    Blend: AUG-CC-PVTZ
  Basis Set: (AUG-CC-PVTZ AUX)
    Blend: AUG-CC-PVTZ-JKFIT
	 Reference Energy          =    -306.7794978046773622 [Eh]
	 Singles Energy            =      -0.0000000000000000 [Eh]
	 Same-Spin Energy          =      -0.3159360752482567 [Eh]
	 Opposite-Spin Energy      =      -1.0422356222112179 [Eh]
	 Correlation Energy        =      -1.3581716974594746 [Eh]
	 Total Energy              =    -308.1376695021368164 [Eh]

	 ================> DF-SCS-MP2 Energies <==================
	-----------------------------------------------------------
	 SCS Same-Spin Scale       =       0.3333333333333333 [-]
	 SCS Opposite-Spin Scale   =       1.2000000000000000 [-]
	 SCS Same-Spin Energy      =      -0.1053120250827522 [Eh]
	 SCS Opposite-Spin Energy  =      -1.2506827466534614 [Eh]
	 SCS Correlation Energy    =      -1.3559947717362135 [Eh]
	 SCS Total Energy          =    -308.1354925764135828 [Eh]
	-----------------------------------------------------------

  Dipole Moment: [D]
     X:     0.8675      Y:    -0.8270      Z:     0.0412     Total:     1.1992

*** Psi4 exiting successfully. Buy a developer a beer!
