                               Psi4 1.4a3.dev225

  ==> Input File <==

--------------------------------------------------------------------------
#psi4
#
memory 32 gb

molecule  {
0 1
  O       -1.8911596     0.1596333    -0.0240777
  C        0.9797650    -0.0480790     0.0033120
  C       -1.2654920    -1.1739550     0.0157300
  C        0.2371350    -1.1840010    -0.0022480
  C        0.2779850     1.2351350     0.0170580
  C        2.4810890    -0.0479420    -0.0086670
  C       -1.0722470     1.2493700    -0.0013870
  H       -1.6715710    -1.7194360    -0.8464940
  H       -1.6521540    -1.6671500     0.9188080
  H        0.7071820    -2.1662500    -0.0128270
  H        0.8222450     2.1733070     0.0302890
  H        2.8758370     0.4671910     0.8740370
  H        2.8626870     0.4795000    -0.8898540
  H        2.8779460    -1.0666660    -0.0186730
  H       -1.6754580     2.1523000    -0.0063760
units angstrom
no_reorient  #important for SAPT in psi4, default
symmetry c1  #important for SAPT in psi4, default
}

set PROPERTIES_ORIGIN ["COM"]
properties('MP2/aug-cc-pvtz', properties = ['dipole'])
--------------------------------------------------------------------------

    Molecular point group: c1
  Charge       = 0
  Multiplicity = 1
  Basis Set: AUG-CC-PVTZ
    Blend: AUG-CC-PVTZ
  Basis Set: (AUG-CC-PVTZ AUX)
    Blend: AUG-CC-PVTZ-JKFIT

    Orbital Energies [Eh]
    ---------------------

    Doubly Occupied:

       1A    -20.585295     2A    -11.299671     3A    -11.293574
       4A    -11.247263     5A    -11.227053     6A    -11.226333
       7A    -11.218116     8A     -1.394539     9A     -1.106559
      10A     -1.032835    11A     -0.972790    12A     -0.875542
      13A     -0.826707    14A     -0.692566    15A     -0.673175
      16A     -0.656671    17A     -0.647154    18A     -0.584816
      19A     -0.573016    20A     -0.556269    21A     -0.552697
      22A     -0.513405    23A     -0.503968    24A     -0.470819
      25A     -0.410368    26A     -0.285858

  @DF-RHF Final Energy:  -306.78839702024078

   => Energetics <=

    Nuclear Repulsion Energy =            288.0172685286054275
    One-Electron Energy =                -986.7572188663403949
    Two-Electron Energy =                 391.9515533174941879
    Total Energy =                       -306.7883970202407795
  Basis Set: (AUG-CC-PVTZ AUX)
    Blend: AUG-CC-PVTZ-RI
    Molecular point group: c1

    Geometry (in Angstrom), charge = 0, multiplicity = 1:

       Center              X                  Y                   Z               Mass
    ------------   -----------------  -----------------  -----------------  -----------------
         O           -1.834910704347     0.143373134502    -0.023554554742    15.994914619570
         C            1.036013895653    -0.064339165498     0.003835145258    12.000000000000
         C           -1.209243104347    -1.190215165498     0.016253145258    12.000000000000
         C            0.293383895653    -1.200261165498    -0.001724854742    12.000000000000
         C            0.334233895653     1.218874834502     0.017581145258    12.000000000000
         C            2.537337895653    -0.064202165498    -0.008143854742    12.000000000000
         C           -1.015998104347     1.233109834502    -0.000863854742    12.000000000000
         H           -1.615322104347    -1.735696165498    -0.845970854742     1.007825032230
         H           -1.595905104347    -1.683410165498     0.919331145258     1.007825032230
         H            0.763430895653    -2.182510165498    -0.012303854742     1.007825032230
         H            0.878493895653     2.157046834502     0.030812145258     1.007825032230
         H            2.932085895653     0.450930834502     0.874560145258     1.007825032230
         H            2.918935895653     0.463239834502    -0.889330854742     1.007825032230
         H            2.934194895653    -1.082926165498    -0.018149854742     1.007825032230
         H           -1.619209104347     2.136039834502    -0.005852854742     1.007825032230

  Basis Set: AUG-CC-PVTZ
    Blend: AUG-CC-PVTZ
  Basis Set: (AUG-CC-PVTZ AUX)
    Blend: AUG-CC-PVTZ-JKFIT
	 Reference Energy          =    -306.7883970202407795 [Eh]
	 Singles Energy            =      -0.0000000000000000 [Eh]
	 Same-Spin Energy          =      -0.3157514923423325 [Eh]
	 Opposite-Spin Energy      =      -1.0414230002798699 [Eh]
	 Correlation Energy        =      -1.3571744926222025 [Eh]
	 Total Energy              =    -308.1455715128630004 [Eh]

	 ================> DF-SCS-MP2 Energies <==================
	-----------------------------------------------------------
	 SCS Same-Spin Scale       =       0.3333333333333333 [-]
	 SCS Opposite-Spin Scale   =       1.2000000000000000 [-]
	 SCS Same-Spin Energy      =      -0.1052504974474442 [Eh]
	 SCS Opposite-Spin Energy  =      -1.2497076003358438 [Eh]
	 SCS Correlation Energy    =      -1.3549580977832880 [Eh]
	 SCS Total Energy          =    -308.1433551180240897 [Eh]
	-----------------------------------------------------------

  Dipole Moment: [D]
     X:     0.9357      Y:    -0.5757      Z:     0.0338     Total:     1.0991

*** Psi4 exiting successfully. Buy a developer a beer!
