                               Psi4 1.4a3.dev225

  ==> Input File <==

--------------------------------------------------------------------------
#psi4
#
memory 32 gb

molecule  {
0 1
  O       -1.8720150     0.1455040    -0.0239620
  C        0.9797650    -0.0480790     0.0033120
  C       -1.2654920    -1.1739550     0.0157300
  C        0.2371350    -1.1840010    -0.0022480
  C        0.2779850     1.2351350     0.0170580
  C        2.4810890    -0.0479420    -0.0086670
  C       -1.0722470     1.2493700    -0.0013870
  H       -1.6715710    -1.7194360    -0.8464940
  H       -1.6521540    -1.6671500     0.9188080
  H        0.7071820    -2.1662500    -0.0128270
  H        0.8222450     2.1733070     0.0302890
  H        2.8686310     0.4577874     0.8579235
  H        2.8626870     0.4795000    -0.8898540
  H        2.8779460    -1.0666660    -0.0186730
  H       -1.6754580     2.1523000    -0.0063760
units angstrom
no_reorient  #important for SAPT in psi4, default
symmetry c1  #important for SAPT in psi4, default
}

set PROPERTIES_ORIGIN ["COM"]
properties('MP2/aug-cc-pvtz', properties = ['dipole'])
--------------------------------------------------------------------------

    Molecular point group: c1
  Charge       = 0
  Multiplicity = 1
  Basis Set: AUG-CC-PVTZ
    Blend: AUG-CC-PVTZ
  Basis Set: (AUG-CC-PVTZ AUX)
    Blend: AUG-CC-PVTZ-JKFIT

    Orbital Energies [Eh]
    ---------------------

    Doubly Occupied:

       1A    -20.583822     2A    -11.300108     3A    -11.291756
       4A    -11.246618     5A    -11.226273     6A    -11.223678
       7A    -11.218200     8A     -1.398803     9A     -1.106102
      10A     -1.034663    11A     -0.973243    12A     -0.876530
      13A     -0.827485    14A     -0.694112    15A     -0.673507
      16A     -0.657706    17A     -0.649709    18A     -0.586225
      19A     -0.575449    20A     -0.557649    21A     -0.552750
      22A     -0.511129    23A     -0.504146    24A     -0.469378
      25A     -0.410402    26A     -0.285410

  @DF-RHF Final Energy:  -306.78975459897987

   => Energetics <=

    Nuclear Repulsion Energy =            288.6191910363290276
    One-Electron Energy =                -987.9481827717481792
    Two-Electron Energy =                 392.5392371364392261
    Total Energy =                       -306.7897545989798687
  Basis Set: (AUG-CC-PVTZ AUX)
    Blend: AUG-CC-PVTZ-RI
    Molecular point group: c1

    Geometry (in Angstrom), charge = 0, multiplicity = 1:

       Center              X                  Y                   Z               Mass
    ------------   -----------------  -----------------  -----------------  -----------------
         O           -1.818878342422     0.131695221371    -0.023289059309    15.994914619570
         C            1.032901657578    -0.061887778629     0.003984940691    12.000000000000
         C           -1.212355342422    -1.187763778629     0.016402940691    12.000000000000
         C            0.290271657578    -1.197809778629    -0.001575059309    12.000000000000
         C            0.331121657578     1.221326221371     0.017730940691    12.000000000000
         C            2.534225657578    -0.061750778629    -0.007994059309    12.000000000000
         C           -1.019110342422     1.235561221371    -0.000714059309    12.000000000000
         H           -1.618434342422    -1.733244778629    -0.845821059309     1.007825032230
         H           -1.599017342422    -1.680958778629     0.919480940691     1.007825032230
         H            0.760318657578    -2.180058778629    -0.012154059309     1.007825032230
         H            0.875381657578     2.159498221371     0.030961940691     1.007825032230
         H            2.921767657578     0.443978621371     0.858596440691     1.007825032230
         H            2.915823657578     0.465691221371    -0.889181059309     1.007825032230
         H            2.931082657578    -1.080474778629    -0.018000059309     1.007825032230
         H           -1.622321342422     2.138491221371    -0.005703059309     1.007825032230

  Basis Set: AUG-CC-PVTZ
    Blend: AUG-CC-PVTZ
  Basis Set: (AUG-CC-PVTZ AUX)
    Blend: AUG-CC-PVTZ-JKFIT
	 Reference Energy          =    -306.7897545989798687 [Eh]
	 Singles Energy            =      -0.0000000000000000 [Eh]
	 Same-Spin Energy          =      -0.3156105315695308 [Eh]
	 Opposite-Spin Energy      =      -1.0407025029512242 [Eh]
	 Correlation Energy        =      -1.3563130345207550 [Eh]
	 Total Energy              =    -308.1460676335006497 [Eh]

	 ================> DF-SCS-MP2 Energies <==================
	-----------------------------------------------------------
	 SCS Same-Spin Scale       =       0.3333333333333333 [-]
	 SCS Opposite-Spin Scale   =       1.2000000000000000 [-]
	 SCS Same-Spin Energy      =      -0.1052035105231769 [Eh]
	 SCS Opposite-Spin Energy  =      -1.2488430035414690 [Eh]
	 SCS Correlation Energy    =      -1.3540465140646460 [Eh]
	 SCS Total Energy          =    -308.1438011130445034 [Eh]
	-----------------------------------------------------------

  Dipole Moment: [D]
     X:     0.9154      Y:    -0.5141      Z:     0.0388     Total:     1.0506

*** Psi4 exiting successfully. Buy a developer a beer!
