                               Psi4 1.4a3.dev225

  ==> Input File <==

--------------------------------------------------------------------------
#psi4
#
memory 32 gb

molecule  {
0 1
  O       -1.8720150     0.1455040    -0.0239620
  C        0.9797650    -0.0480790     0.0033120
  C       -1.2654920    -1.1739550     0.0157300
  C        0.3465748    -1.0166025    -0.0014286
  C        0.2779850     1.2351350     0.0170580
  C        2.4810890    -0.0479420    -0.0086670
  C       -1.0722470     1.2493700    -0.0013870
  H       -1.6715710    -1.7194360    -0.8464940
  H       -1.6521540    -1.6671500     0.9188080
  H        0.7071820    -2.1662500    -0.0128270
  H        0.8222450     2.1733070     0.0302890
  H        2.8758370     0.4671910     0.8740370
  H        2.8626870     0.4795000    -0.8898540
  H        2.8779460    -1.0666660    -0.0186730
  H       -1.6754580     2.1523000    -0.0063760
units angstrom
no_reorient  #important for SAPT in psi4, default
symmetry c1  #important for SAPT in psi4, default
}

set PROPERTIES_ORIGIN ["COM"]
properties('MP2/aug-cc-pvtz', properties = ['dipole'])
--------------------------------------------------------------------------

    Molecular point group: c1
  Charge       = 0
  Multiplicity = 1
  Basis Set: AUG-CC-PVTZ
    Blend: AUG-CC-PVTZ
  Basis Set: (AUG-CC-PVTZ AUX)
    Blend: AUG-CC-PVTZ-JKFIT

    Orbital Energies [Eh]
    ---------------------

    Doubly Occupied:

       1A    -20.578370     2A    -11.298290     3A    -11.296486
       4A    -11.224050     5A    -11.218372     6A    -11.216345
       7A    -11.211149     8A     -1.395132     9A     -1.143230
      10A     -1.025171    11A     -0.964681    12A     -0.902326
      13A     -0.812396    14A     -0.693043    15A     -0.670314
      16A     -0.650356    17A     -0.646701    18A     -0.584412
      19A     -0.577121    20A     -0.563309    21A     -0.538485
      22A     -0.517950    23A     -0.506841    24A     -0.442060
      25A     -0.423374    26A     -0.306677

  @DF-RHF Final Energy:  -306.72714592572800

   => Energetics <=

    Nuclear Repulsion Energy =            291.1402472907234369
    One-Electron Energy =                -992.9214994207935661
    Two-Electron Energy =                 395.0541062043421334
    Total Energy =                       -306.7271459257279957
  Basis Set: (AUG-CC-PVTZ AUX)
    Blend: AUG-CC-PVTZ-RI
    Molecular point group: c1

    Geometry (in Angstrom), charge = 0, multiplicity = 1:

       Center              X                  Y                   Z               Mass
    ------------   -----------------  -----------------  -----------------  -----------------
         O           -1.832625731045     0.110684276146    -0.023560484077    15.994914619570
         C            1.019154268955    -0.082898723854     0.003713515923    12.000000000000
         C           -1.226102731045    -1.208774723854     0.016131515923    12.000000000000
         C            0.385964068955    -1.051422223854    -0.001027084077    12.000000000000
         C            0.317374268955     1.200315276146     0.017459515923    12.000000000000
         C            2.520478268955    -0.082761723854    -0.008265484077    12.000000000000
         C           -1.032857731045     1.214550276146    -0.000985484077    12.000000000000
         H           -1.632181731045    -1.754255723854    -0.846092484077     1.007825032230
         H           -1.612764731045    -1.701969723854     0.919209515923     1.007825032230
         H            0.746571268955    -2.201069723854    -0.012425484077     1.007825032230
         H            0.861634268955     2.138487276146     0.030690515923     1.007825032230
         H            2.915226268955     0.432371276146     0.874438515923     1.007825032230
         H            2.902076268955     0.444680276146    -0.889452484077     1.007825032230
         H            2.917335268955    -1.101485723854    -0.018271484077     1.007825032230
         H           -1.636068731045     2.117480276146    -0.005974484077     1.007825032230

  Basis Set: AUG-CC-PVTZ
    Blend: AUG-CC-PVTZ
  Basis Set: (AUG-CC-PVTZ AUX)
    Blend: AUG-CC-PVTZ-JKFIT
	 Reference Energy          =    -306.7271459257279957 [Eh]
	 Singles Energy            =      -0.0000000000000000 [Eh]
	 Same-Spin Energy          =      -0.3144908184066582 [Eh]
	 Opposite-Spin Energy      =      -1.0386013583019011 [Eh]
	 Correlation Energy        =      -1.3530921767085593 [Eh]
	 Total Energy              =    -308.0802381024365673 [Eh]

	 ================> DF-SCS-MP2 Energies <==================
	-----------------------------------------------------------
	 SCS Same-Spin Scale       =       0.3333333333333333 [-]
	 SCS Opposite-Spin Scale   =       1.2000000000000000 [-]
	 SCS Same-Spin Energy      =      -0.1048302728022194 [Eh]
	 SCS Opposite-Spin Energy  =      -1.2463216299622812 [Eh]
	 SCS Correlation Energy    =      -1.3511519027645007 [Eh]
	 SCS Total Energy          =    -308.0782978284925093 [Eh]
	-----------------------------------------------------------

  Dipole Moment: [D]
     X:     0.8229      Y:    -0.5864      Z:     0.0337     Total:     1.0111

*** Psi4 exiting successfully. Buy a developer a beer!
