                               Psi4 1.4a3.dev225

  ==> Input File <==

--------------------------------------------------------------------------
#psi4
#
memory 32 gb

molecule  {
0 1
  O       -1.8720150     0.1455040    -0.0239620
  C        0.9879835     0.1088543     0.0043000
  C       -1.2654920    -1.1739550     0.0157300
  C        0.2371350    -1.1840010    -0.0022480
  C        0.2779850     1.2351350     0.0170580
  C        2.4810890    -0.0479420    -0.0086670
  C       -1.0722470     1.2493700    -0.0013870
  H       -1.6715710    -1.7194360    -0.8464940
  H       -1.6521540    -1.6671500     0.9188080
  H        0.7071820    -2.1662500    -0.0128270
  H        0.8222450     2.1733070     0.0302890
  H        2.8758370     0.4671910     0.8740370
  H        2.8626870     0.4795000    -0.8898540
  H        2.8779460    -1.0666660    -0.0186730
  H       -1.6754580     2.1523000    -0.0063760
units angstrom
no_reorient  #important for SAPT in psi4, default
symmetry c1  #important for SAPT in psi4, default
}

set PROPERTIES_ORIGIN ["COM"]
properties('MP2/aug-cc-pvtz', properties = ['dipole'])
--------------------------------------------------------------------------

    Molecular point group: c1
  Charge       = 0
  Multiplicity = 1
  Basis Set: AUG-CC-PVTZ
    Blend: AUG-CC-PVTZ
  Basis Set: (AUG-CC-PVTZ AUX)
    Blend: AUG-CC-PVTZ-JKFIT

    Orbital Energies [Eh]
    ---------------------

    Doubly Occupied:

       1A    -20.589268     2A    -11.310615     3A    -11.289045
       4A    -11.256438     5A    -11.234207     6A    -11.228001
       7A    -11.213370     8A     -1.403101     9A     -1.115734
      10A     -1.033084    11A     -0.974029    12A     -0.860932
      13A     -0.845038    14A     -0.703084    15A     -0.676678
      16A     -0.655776    17A     -0.649054    18A     -0.582817
      19A     -0.574516    20A     -0.569700    21A     -0.553114
      22A     -0.512549    23A     -0.505460    24A     -0.460731
      25A     -0.417093    26A     -0.259110

  @DF-RHF Final Energy:  -306.74613618487712

   => Energetics <=

    Nuclear Repulsion Energy =            288.5083735391854134
    One-Electron Energy =                -987.5639282856419641
    Two-Electron Energy =                 392.3094185615794345
    Total Energy =                       -306.7461361848771162
  Basis Set: (AUG-CC-PVTZ AUX)
    Blend: AUG-CC-PVTZ-RI
    Molecular point group: c1

    Geometry (in Angstrom), charge = 0, multiplicity = 1:

       Center              X                  Y                   Z               Mass
    ------------   -----------------  -----------------  -----------------  -----------------
         O           -1.819980644385     0.111991642886    -0.023581546458    15.994914619570
         C            1.040017855615     0.075341942886     0.004680453542    12.000000000000
         C           -1.213457644385    -1.207467357114     0.016110453542    12.000000000000
         C            0.289169355615    -1.217513357114    -0.001867546458    12.000000000000
         C            0.330019355615     1.201622642886     0.017438453542    12.000000000000
         C            2.533123355615    -0.081454357114    -0.008286546458    12.000000000000
         C           -1.020212644385     1.215857642886    -0.001006546458    12.000000000000
         H           -1.619536644385    -1.752948357114    -0.846113546458     1.007825032230
         H           -1.600119644385    -1.700662357114     0.919188453542     1.007825032230
         H            0.759216355615    -2.199762357114    -0.012446546458     1.007825032230
         H            0.874279355615     2.139794642886     0.030669453542     1.007825032230
         H            2.927871355615     0.433678642886     0.874417453542     1.007825032230
         H            2.914721355615     0.445987642886    -0.889473546458     1.007825032230
         H            2.929980355615    -1.100178357114    -0.018292546458     1.007825032230
         H           -1.623423644385     2.118787642886    -0.005995546458     1.007825032230

  Basis Set: AUG-CC-PVTZ
    Blend: AUG-CC-PVTZ
  Basis Set: (AUG-CC-PVTZ AUX)
    Blend: AUG-CC-PVTZ-JKFIT
	 Reference Energy          =    -306.7461361848771162 [Eh]
	 Singles Energy            =      -0.0000000000000000 [Eh]
	 Same-Spin Energy          =      -0.3203332822625101 [Eh]
	 Opposite-Spin Energy      =      -1.0480564286792216 [Eh]
	 Correlation Energy        =      -1.3683897109417318 [Eh]
	 Total Energy              =    -308.1145258958188720 [Eh]

	 ================> DF-SCS-MP2 Energies <==================
	-----------------------------------------------------------
	 SCS Same-Spin Scale       =       0.3333333333333333 [-]
	 SCS Opposite-Spin Scale   =       1.2000000000000000 [-]
	 SCS Same-Spin Energy      =      -0.1067777607541700 [Eh]
	 SCS Opposite-Spin Energy  =      -1.2576677144150659 [Eh]
	 SCS Correlation Energy    =      -1.3644454751692359 [Eh]
	 SCS Total Energy          =    -308.1105816600463640 [Eh]
	-----------------------------------------------------------

  Dipole Moment: [D]
     X:     0.8647      Y:    -0.3839      Z:     0.0324     Total:     0.9466

*** Psi4 exiting successfully. Buy a developer a beer!
