                               Psi4 1.4a3.dev225

  ==> Input File <==

--------------------------------------------------------------------------
#psi4
#
memory 32 gb

molecule  {
0 1
  O       -1.8720150     0.1455040    -0.0239620
  C        0.9797650    -0.0480790     0.0033120
  C       -1.2571419    -1.1921203     0.0162764
  C        0.2371350    -1.1840010    -0.0022480
  C        0.2779850     1.2351350     0.0170580
  C        2.4810890    -0.0479420    -0.0086670
  C       -1.0722470     1.2493700    -0.0013870
  H       -1.6715710    -1.7194360    -0.8464940
  H       -1.6521540    -1.6671500     0.9188080
  H        0.7071820    -2.1662500    -0.0128270
  H        0.8222450     2.1733070     0.0302890
  H        2.8758370     0.4671910     0.8740370
  H        2.8626870     0.4795000    -0.8898540
  H        2.8779460    -1.0666660    -0.0186730
  H       -1.6754580     2.1523000    -0.0063760
units angstrom
no_reorient  #important for SAPT in psi4, default
symmetry c1  #important for SAPT in psi4, default
}

set PROPERTIES_ORIGIN ["COM"]
properties('MP2/aug-cc-pvtz', properties = ['dipole'])
--------------------------------------------------------------------------

    Molecular point group: c1
  Charge       = 0
  Multiplicity = 1
  Basis Set: AUG-CC-PVTZ
    Blend: AUG-CC-PVTZ
  Basis Set: (AUG-CC-PVTZ AUX)
    Blend: AUG-CC-PVTZ-JKFIT

    Orbital Energies [Eh]
    ---------------------

    Doubly Occupied:

       1A    -20.582176     2A    -11.299510     3A    -11.292149
       4A    -11.247540     5A    -11.226320     6A    -11.225962
       7A    -11.217177     8A     -1.392927     9A     -1.106080
      10A     -1.034756    11A     -0.972601    12A     -0.875805
      13A     -0.826698    14A     -0.692276    15A     -0.671663
      16A     -0.658155    17A     -0.648847    18A     -0.586688
      19A     -0.572965    20A     -0.554853    21A     -0.551807
      22A     -0.513785    23A     -0.504960    24A     -0.469323
      25A     -0.409592    26A     -0.285532

  @DF-RHF Final Energy:  -306.78897135263361

   => Energetics <=

    Nuclear Repulsion Energy =            288.3206166092461444
    One-Electron Energy =                -987.3788800955978786
    Two-Electron Energy =                 392.2692921337181247
    Total Energy =                       -306.7889713526336095
  Basis Set: (AUG-CC-PVTZ AUX)
    Blend: AUG-CC-PVTZ-RI
    Molecular point group: c1

    Geometry (in Angstrom), charge = 0, multiplicity = 1:

       Center              X                  Y                   Z               Mass
    ------------   -----------------  -----------------  -----------------  -----------------
         O           -1.819997084535     0.133865862749    -0.023526379509    15.994914619570
         C            1.031782915465    -0.059717137251     0.003747620491    12.000000000000
         C           -1.205123984535    -1.203758437251     0.016712020491    12.000000000000
         C            0.289152915465    -1.195639137251    -0.001812379509    12.000000000000
         C            0.330002915465     1.223496862749     0.017493620491    12.000000000000
         C            2.533106915465    -0.059580137251    -0.008231379509    12.000000000000
         C           -1.020229084535     1.237731862749    -0.000951379509    12.000000000000
         H           -1.619553084535    -1.731074137251    -0.846058379509     1.007825032230
         H           -1.600136084535    -1.678788137251     0.919243620491     1.007825032230
         H            0.759199915465    -2.177888137251    -0.012391379509     1.007825032230
         H            0.874262915465     2.161668862749     0.030724620491     1.007825032230
         H            2.927854915465     0.455552862749     0.874472620491     1.007825032230
         H            2.914704915465     0.467861862749    -0.889418379509     1.007825032230
         H            2.929963915465    -1.078304137251    -0.018237379509     1.007825032230
         H           -1.623440084535     2.140661862749    -0.005940379509     1.007825032230

  Basis Set: AUG-CC-PVTZ
    Blend: AUG-CC-PVTZ
  Basis Set: (AUG-CC-PVTZ AUX)
    Blend: AUG-CC-PVTZ-JKFIT
	 Reference Energy          =    -306.7889713526336095 [Eh]
	 Singles Energy            =      -0.0000000000000000 [Eh]
	 Same-Spin Energy          =      -0.3157208670229912 [Eh]
	 Opposite-Spin Energy      =      -1.0411246614155967 [Eh]
	 Correlation Energy        =      -1.3568455284385879 [Eh]
	 Total Energy              =    -308.1458168810722213 [Eh]

	 ================> DF-SCS-MP2 Energies <==================
	-----------------------------------------------------------
	 SCS Same-Spin Scale       =       0.3333333333333333 [-]
	 SCS Opposite-Spin Scale   =       1.2000000000000000 [-]
	 SCS Same-Spin Energy      =      -0.1052402890076637 [Eh]
	 SCS Opposite-Spin Energy  =      -1.2493495936987160 [Eh]
	 SCS Correlation Energy    =      -1.3545898827063798 [Eh]
	 SCS Total Energy          =    -308.1435612353399733 [Eh]
	-----------------------------------------------------------

  Dipole Moment: [D]
     X:     0.9089      Y:    -0.5771      Z:     0.0352     Total:     1.0772

*** Psi4 exiting successfully. Buy a developer a beer!
