                               Psi4 1.4a3.dev225

  ==> Input File <==

--------------------------------------------------------------------------
#psi4
#
memory 32 gb

molecule  {
0 1
  O       -1.8720150     0.1455040    -0.0239620
  C        0.9797650    -0.0480790     0.0033120
  C       -1.2654920    -1.1739550     0.0157300
  C        0.2371350    -1.1840010    -0.0022480
  C        0.2779850     1.2351350     0.0170580
  C        2.4810890    -0.0479420    -0.0086670
  C       -1.0722470     1.2493700    -0.0013870
  H       -1.6715710    -1.7194360    -0.8464940
  H       -1.6521540    -1.6671500     0.9188080
  H        0.7071820    -2.1662500    -0.0128270
  H        0.8222450     2.1733070     0.0302890
  H        2.8758370     0.4671910     0.8740370
  H        2.8557209     0.4698715    -0.8737678
  H        2.8779460    -1.0666660    -0.0186730
  H       -1.6754580     2.1523000    -0.0063760
units angstrom
no_reorient  #important for SAPT in psi4, default
symmetry c1  #important for SAPT in psi4, default
}

set PROPERTIES_ORIGIN ["COM"]
properties('MP2/aug-cc-pvtz', properties = ['dipole'])
--------------------------------------------------------------------------

    Molecular point group: c1
  Charge       = 0
  Multiplicity = 1
  Basis Set: AUG-CC-PVTZ
    Blend: AUG-CC-PVTZ
  Basis Set: (AUG-CC-PVTZ AUX)
    Blend: AUG-CC-PVTZ-JKFIT

    Orbital Energies [Eh]
    ---------------------

    Doubly Occupied:

       1A    -20.583822     2A    -11.300108     3A    -11.291756
       4A    -11.246618     5A    -11.226272     6A    -11.223680
       7A    -11.218200     8A     -1.398804     9A     -1.106103
      10A     -1.034663    11A     -0.973242    12A     -0.876529
      13A     -0.827486    14A     -0.694116    15A     -0.673505
      16A     -0.657732    17A     -0.649682    18A     -0.586151
      19A     -0.575550    20A     -0.557668    21A     -0.552719
      22A     -0.511124    23A     -0.504143    24A     -0.469371
      25A     -0.410410    26A     -0.285410

  @DF-RHF Final Energy:  -306.78975505875798

   => Energetics <=

    Nuclear Repulsion Energy =            288.6191335500789705
    One-Electron Energy =                -987.9480501420931660
    Two-Electron Energy =                 392.5391615332561628
    Total Energy =                       -306.7897550587579758
  Basis Set: (AUG-CC-PVTZ AUX)
    Blend: AUG-CC-PVTZ-RI
    Molecular point group: c1

    Geometry (in Angstrom), charge = 0, multiplicity = 1:

       Center              X                  Y                   Z               Mass
    ------------   -----------------  -----------------  -----------------  -----------------
         O           -1.818880859427     0.131697580997    -0.023626895070    15.994914619570
         C            1.032899140573    -0.061885419003     0.003647104930    12.000000000000
         C           -1.212357859427    -1.187761419003     0.016065104930    12.000000000000
         C            0.290269140573    -1.197807419003    -0.001912895070    12.000000000000
         C            0.331119140573     1.221328580997     0.017393104930    12.000000000000
         C            2.534223140573    -0.061748419003    -0.008331895070    12.000000000000
         C           -1.019112859427     1.235563580997    -0.001051895070    12.000000000000
         H           -1.618436859427    -1.733242419003    -0.846158895070     1.007825032230
         H           -1.599019859427    -1.680956419003     0.919143104930     1.007825032230
         H            0.760316140573    -2.180056419003    -0.012491895070     1.007825032230
         H            0.875379140573     2.159500580997     0.030624104930     1.007825032230
         H            2.928971140573     0.453384580997     0.874372104930     1.007825032230
         H            2.908855040573     0.456065080997    -0.873432695070     1.007825032230
         H            2.931080140573    -1.080472419003    -0.018337895070     1.007825032230
         H           -1.622323859427     2.138493580997    -0.006040895070     1.007825032230

  Basis Set: AUG-CC-PVTZ
    Blend: AUG-CC-PVTZ
  Basis Set: (AUG-CC-PVTZ AUX)
    Blend: AUG-CC-PVTZ-JKFIT
	 Reference Energy          =    -306.7897550587579758 [Eh]
	 Singles Energy            =      -0.0000000000000000 [Eh]
	 Same-Spin Energy          =      -0.3156104488340411 [Eh]
	 Opposite-Spin Energy      =      -1.0407020986514766 [Eh]
	 Correlation Energy        =      -1.3563125474855178 [Eh]
	 Total Energy              =    -308.1460676062434914 [Eh]

	 ================> DF-SCS-MP2 Energies <==================
	-----------------------------------------------------------
	 SCS Same-Spin Scale       =       0.3333333333333333 [-]
	 SCS Opposite-Spin Scale   =       1.2000000000000000 [-]
	 SCS Same-Spin Energy      =      -0.1052034829446804 [Eh]
	 SCS Opposite-Spin Energy  =      -1.2488425183817717 [Eh]
	 SCS Correlation Energy    =      -1.3540460013264521 [Eh]
	 SCS Total Energy          =    -308.1438010600844564 [Eh]
	-----------------------------------------------------------

  Dipole Moment: [D]
     X:     0.9153      Y:    -0.5140      Z:     0.0263     Total:     1.0501

*** Psi4 exiting successfully. Buy a developer a beer!
