                               Psi4 1.4a3.dev225

  ==> Input File <==

--------------------------------------------------------------------------
#psi4
#
memory 32 gb

molecule  {
0 1
  O       -1.8720150     0.1455040    -0.0239620
  C        0.9797650    -0.0480790     0.0033120
  C       -1.2863673    -1.1285418     0.0143639
  C        0.2371350    -1.1840010    -0.0022480
  C        0.2779850     1.2351350     0.0170580
  C        2.4810890    -0.0479420    -0.0086670
  C       -1.0722470     1.2493700    -0.0013870
  H       -1.6715710    -1.7194360    -0.8464940
  H       -1.6521540    -1.6671500     0.9188080
  H        0.7071820    -2.1662500    -0.0128270
  H        0.8222450     2.1733070     0.0302890
  H        2.8758370     0.4671910     0.8740370
  H        2.8626870     0.4795000    -0.8898540
  H        2.8779460    -1.0666660    -0.0186730
  H       -1.6754580     2.1523000    -0.0063760
units angstrom
no_reorient  #important for SAPT in psi4, default
symmetry c1  #important for SAPT in psi4, default
}

set PROPERTIES_ORIGIN ["COM"]
properties('MP2/aug-cc-pvtz', properties = ['dipole'])
--------------------------------------------------------------------------

    Molecular point group: c1
  Charge       = 0
  Multiplicity = 1
  Basis Set: AUG-CC-PVTZ
    Blend: AUG-CC-PVTZ
  Basis Set: (AUG-CC-PVTZ AUX)
    Blend: AUG-CC-PVTZ-JKFIT

    Orbital Energies [Eh]
    ---------------------

    Doubly Occupied:

       1A    -20.587840     2A    -11.301705     3A    -11.291831
       4A    -11.245043     5A    -11.227785     6A    -11.225648
       7A    -11.220943     8A     -1.415076     9A     -1.106060
      10A     -1.035187    11A     -0.970244    12A     -0.878138
      13A     -0.827920    14A     -0.698767    15A     -0.679166
      16A     -0.656846    17A     -0.653115    18A     -0.583598
      19A     -0.572722    20A     -0.564993    21A     -0.554077
      22A     -0.503677    23A     -0.502028    24A     -0.467313
      25A     -0.411758    26A     -0.285231

  @DF-RHF Final Energy:  -306.78867455185519

   => Energetics <=

    Nuclear Repulsion Energy =            289.0876721640555047
    One-Electron Energy =                -988.8192716823308501
    Two-Electron Energy =                 392.9429249664200938
    Total Energy =                       -306.7886745518551947
  Basis Set: (AUG-CC-PVTZ AUX)
    Blend: AUG-CC-PVTZ-RI
    Molecular point group: c1

    Geometry (in Angstrom), charge = 0, multiplicity = 1:

       Center              X                  Y                   Z               Mass
    ------------   -----------------  -----------------  -----------------  -----------------
         O           -1.816346096891     0.125923308739    -0.023287460149    15.994914619570
         C            1.035433903109    -0.067659691261     0.003986539851    12.000000000000
         C           -1.230698396891    -1.148122491261     0.015038439851    12.000000000000
         C            0.292803903109    -1.203581691261    -0.001573460149    12.000000000000
         C            0.333653903109     1.215554308739     0.017732539851    12.000000000000
         C            2.536757903109    -0.067522691261    -0.007992460149    12.000000000000
         C           -1.016578096891     1.229789308739    -0.000712460149    12.000000000000
         H           -1.615902096891    -1.739016691261    -0.845819460149     1.007825032230
         H           -1.596485096891    -1.686730691261     0.919482539851     1.007825032230
         H            0.762850903109    -2.185830691261    -0.012152460149     1.007825032230
         H            0.877913903109     2.153726308739     0.030963539851     1.007825032230
         H            2.931505903109     0.447610308739     0.874711539851     1.007825032230
         H            2.918355903109     0.459919308739    -0.889179460149     1.007825032230
         H            2.933614903109    -1.086246691261    -0.017998460149     1.007825032230
         H           -1.619789096891     2.132719308739    -0.005701460149     1.007825032230

  Basis Set: AUG-CC-PVTZ
    Blend: AUG-CC-PVTZ
  Basis Set: (AUG-CC-PVTZ AUX)
    Blend: AUG-CC-PVTZ-JKFIT
	 Reference Energy          =    -306.7886745518551947 [Eh]
	 Singles Energy            =      -0.0000000000000000 [Eh]
	 Same-Spin Energy          =      -0.3154279982524392 [Eh]
	 Opposite-Spin Energy      =      -1.0402050455947043 [Eh]
	 Correlation Energy        =      -1.3556330438471436 [Eh]
	 Total Energy              =    -308.1443075957023439 [Eh]

	 ================> DF-SCS-MP2 Energies <==================
	-----------------------------------------------------------
	 SCS Same-Spin Scale       =       0.3333333333333333 [-]
	 SCS Opposite-Spin Scale   =       1.2000000000000000 [-]
	 SCS Same-Spin Energy      =      -0.1051426660841464 [Eh]
	 SCS Opposite-Spin Energy  =      -1.2482460547136451 [Eh]
	 SCS Correlation Energy    =      -1.3533887207977915 [Eh]
	 SCS Total Energy          =    -308.1420632726529902 [Eh]
	-----------------------------------------------------------

  Dipole Moment: [D]
     X:     0.9070      Y:    -0.3650      Z:     0.0254     Total:     0.9780

*** Psi4 exiting successfully. Buy a developer a beer!
