                               Psi4 1.4a3.dev225

  ==> Input File <==

--------------------------------------------------------------------------
#psi4
#
memory 32 gb

molecule  {
0 1
  O       -1.8720150     0.1455040    -0.0239620
  C        0.9797650    -0.0480790     0.0033120
  C       -1.3072426    -1.0831287     0.0129978
  C        0.2371350    -1.1840010    -0.0022480
  C        0.2779850     1.2351350     0.0170580
  C        2.4810890    -0.0479420    -0.0086670
  C       -1.0722470     1.2493700    -0.0013870
  H       -1.6715710    -1.7194360    -0.8464940
  H       -1.6521540    -1.6671500     0.9188080
  H        0.7071820    -2.1662500    -0.0128270
  H        0.8222450     2.1733070     0.0302890
  H        2.8758370     0.4671910     0.8740370
  H        2.8626870     0.4795000    -0.8898540
  H        2.8779460    -1.0666660    -0.0186730
  H       -1.6754580     2.1523000    -0.0063760
units angstrom
no_reorient  #important for SAPT in psi4, default
symmetry c1  #important for SAPT in psi4, default
}

set PROPERTIES_ORIGIN ["COM"]
properties('MP2/aug-cc-pvtz', properties = ['dipole'])
--------------------------------------------------------------------------

    Molecular point group: c1
  Charge       = 0
  Multiplicity = 1
  Basis Set: AUG-CC-PVTZ
    Blend: AUG-CC-PVTZ
  Basis Set: (AUG-CC-PVTZ AUX)
    Blend: AUG-CC-PVTZ-JKFIT

    Orbital Energies [Eh]
    ---------------------

    Doubly Occupied:

       1A    -20.591583     2A    -11.303376     3A    -11.292818
       4A    -11.243413     5A    -11.229269     6A    -11.225230
       7A    -11.223894     8A     -1.433667     9A     -1.106532
      10A     -1.036455    11A     -0.968287    12A     -0.881542
      13A     -0.827697    14A     -0.704391    15A     -0.685307
      16A     -0.660069    17A     -0.655095    18A     -0.582432
      19A     -0.572689    20A     -0.571437    21A     -0.555772
      22A     -0.502444    23A     -0.493343    24A     -0.461642
      25A     -0.413500    26A     -0.284824

  @DF-RHF Final Energy:  -306.78262898920235

   => Energetics <=

    Nuclear Repulsion Energy =            289.6750807434034414
    One-Electron Energy =                -989.9019997990218371
    Two-Electron Energy =                 393.4442900664160447
    Total Energy =                       -306.7826289892023510
  Basis Set: (AUG-CC-PVTZ AUX)
    Blend: AUG-CC-PVTZ-RI
    Molecular point group: c1

    Geometry (in Angstrom), charge = 0, multiplicity = 1:

       Center              X                  Y                   Z               Mass
    ------------   -----------------  -----------------  -----------------  -----------------
         O           -1.813738246788     0.120250070152    -0.023116799894    15.994914619570
         C            1.038041753212    -0.073332929848     0.004157200106    12.000000000000
         C           -1.248965846788    -1.108382629848     0.013843000106    12.000000000000
         C            0.295411753212    -1.209254929848    -0.001402799894    12.000000000000
         C            0.336261753212     1.209881070152     0.017903200106    12.000000000000
         C            2.539365753212    -0.073195929848    -0.007821799894    12.000000000000
         C           -1.013970246788     1.224116070152    -0.000541799894    12.000000000000
         H           -1.613294246788    -1.744689929848    -0.845648799894     1.007825032230
         H           -1.593877246788    -1.692403929848     0.919653200106     1.007825032230
         H            0.765458753212    -2.191503929848    -0.011981799894     1.007825032230
         H            0.880521753212     2.148053070152     0.031134200106     1.007825032230
         H            2.934113753212     0.441937070152     0.874882200106     1.007825032230
         H            2.920963753212     0.454246070152    -0.889008799894     1.007825032230
         H            2.936222753212    -1.091919929848    -0.017827799894     1.007825032230
         H           -1.617181246788     2.127046070152    -0.005530799894     1.007825032230

  Basis Set: AUG-CC-PVTZ
    Blend: AUG-CC-PVTZ
  Basis Set: (AUG-CC-PVTZ AUX)
    Blend: AUG-CC-PVTZ-JKFIT
	 Reference Energy          =    -306.7826289892023510 [Eh]
	 Singles Energy            =      -0.0000000000000000 [Eh]
	 Same-Spin Energy          =      -0.3154290193172501 [Eh]
	 Opposite-Spin Energy      =      -1.0398895796101291 [Eh]
	 Correlation Energy        =      -1.3553185989273793 [Eh]
	 Total Energy              =    -308.1379475881297481 [Eh]

	 ================> DF-SCS-MP2 Energies <==================
	-----------------------------------------------------------
	 SCS Same-Spin Scale       =       0.3333333333333333 [-]
	 SCS Opposite-Spin Scale   =       1.2000000000000000 [-]
	 SCS Same-Spin Energy      =      -0.1051430064390834 [Eh]
	 SCS Opposite-Spin Energy  =      -1.2478674955321549 [Eh]
	 SCS Correlation Energy    =      -1.3530105019712382 [Eh]
	 SCS Total Energy          =    -308.1356394911736061 [Eh]
	-----------------------------------------------------------

  Dipole Moment: [D]
     X:     0.9123      Y:    -0.1933      Z:     0.0174     Total:     0.9327

*** Psi4 exiting successfully. Buy a developer a beer!
