                               Psi4 1.4a3.dev225

  ==> Input File <==

--------------------------------------------------------------------------
#psi4
#
memory 32 gb

molecule  {
0 1
  O       -1.8720150     0.1455040    -0.0239620
  C        0.9797650    -0.0480790     0.0033120
  C       -1.2654920    -1.1739550     0.0157300
  C        0.2371350    -1.1840010    -0.0022480
  C        0.2779850     1.2351350     0.0170580
  C        2.4810890    -0.0479420    -0.0086670
  C       -1.0717949     1.2729344    -0.0012361
  H       -1.6715710    -1.7194360    -0.8464940
  H       -1.6521540    -1.6671500     0.9188080
  H        0.7071820    -2.1662500    -0.0128270
  H        0.8222450     2.1733070     0.0302890
  H        2.8758370     0.4671910     0.8740370
  H        2.8626870     0.4795000    -0.8898540
  H        2.8779460    -1.0666660    -0.0186730
  H       -1.6754580     2.1523000    -0.0063760
units angstrom
no_reorient  #important for SAPT in psi4, default
symmetry c1  #important for SAPT in psi4, default
}

set PROPERTIES_ORIGIN ["COM"]
properties('MP2/aug-cc-pvtz', properties = ['dipole'])
--------------------------------------------------------------------------

    Molecular point group: c1
  Charge       = 0
  Multiplicity = 1
  Basis Set: AUG-CC-PVTZ
    Blend: AUG-CC-PVTZ
  Basis Set: (AUG-CC-PVTZ AUX)
    Blend: AUG-CC-PVTZ-JKFIT

    Orbital Energies [Eh]
    ---------------------

    Doubly Occupied:

       1A    -20.579953     2A    -11.298878     3A    -11.290794
       4A    -11.247238     5A    -11.227665     6A    -11.226612
       7A    -11.220406     8A     -1.389117     9A     -1.105962
      10A     -1.034583    11A     -0.971834    12A     -0.874638
      13A     -0.829365    14A     -0.692876    15A     -0.672594
      16A     -0.657786    17A     -0.646506    18A     -0.588144
      19A     -0.573242    20A     -0.556160    21A     -0.551152
      22A     -0.507157    23A     -0.504396    24A     -0.470059
      25A     -0.410602    26A     -0.286873

  @DF-RHF Final Energy:  -306.78863238743020

   => Energetics <=

    Nuclear Repulsion Energy =            288.1351583191434429
    One-Electron Energy =                -987.0183995963940333
    Two-Electron Energy =                 392.0946088898203925
    Total Energy =                       -306.7886323874301979
  Basis Set: (AUG-CC-PVTZ AUX)
    Blend: AUG-CC-PVTZ-RI
    Molecular point group: c1

    Geometry (in Angstrom), charge = 0, multiplicity = 1:

       Center              X                  Y                   Z               Mass
    ------------   -----------------  -----------------  -----------------  -----------------
         O           -1.819010425656     0.128652773481    -0.023476971610    15.994914619570
         C            1.032769574344    -0.064930226519     0.003797028390    12.000000000000
         C           -1.212487425656    -1.190806226519     0.016215028390    12.000000000000
         C            0.290139574344    -1.200852226519    -0.001762971610    12.000000000000
         C            0.330989574344     1.218283773481     0.017543028390    12.000000000000
         C            2.534093574344    -0.064793226519    -0.008181971610    12.000000000000
         C           -1.018790325656     1.256083173481    -0.000751071610    12.000000000000
         H           -1.618566425656    -1.736287226519    -0.846008971610     1.007825032230
         H           -1.599149425656    -1.684001226519     0.919293028390     1.007825032230
         H            0.760186574344    -2.183101226519    -0.012341971610     1.007825032230
         H            0.875249574344     2.156455773481     0.030774028390     1.007825032230
         H            2.928841574344     0.450339773481     0.874522028390     1.007825032230
         H            2.915691574344     0.462648773481    -0.889368971610     1.007825032230
         H            2.930950574344    -1.083517226519    -0.018187971610     1.007825032230
         H           -1.622453425656     2.135448773481    -0.005890971610     1.007825032230

  Basis Set: AUG-CC-PVTZ
    Blend: AUG-CC-PVTZ
  Basis Set: (AUG-CC-PVTZ AUX)
    Blend: AUG-CC-PVTZ-JKFIT
	 Reference Energy          =    -306.7886323874301979 [Eh]
	 Singles Energy            =      -0.0000000000000000 [Eh]
	 Same-Spin Energy          =      -0.3155537920729252 [Eh]
	 Opposite-Spin Energy      =      -1.0411231871755011 [Eh]
	 Correlation Energy        =      -1.3566769792484263 [Eh]
	 Total Energy              =    -308.1453093666786458 [Eh]

	 ================> DF-SCS-MP2 Energies <==================
	-----------------------------------------------------------
	 SCS Same-Spin Scale       =       0.3333333333333333 [-]
	 SCS Opposite-Spin Scale   =       1.2000000000000000 [-]
	 SCS Same-Spin Energy      =      -0.1051845973576417 [Eh]
	 SCS Opposite-Spin Energy  =      -1.2493478246106013 [Eh]
	 SCS Correlation Energy    =      -1.3545324219682431 [Eh]
	 SCS Total Energy          =    -308.1431648093984563 [Eh]
	-----------------------------------------------------------

  Dipole Moment: [D]
     X:     0.9792      Y:    -0.4645      Z:     0.0338     Total:     1.0843

*** Psi4 exiting successfully. Buy a developer a beer!
