                               Psi4 1.4a3.dev225

  ==> Input File <==

--------------------------------------------------------------------------
#psi4
#
memory 32 gb

molecule  {
0 1
  O       -1.8720150     0.1455040    -0.0239620
  C        0.9797650    -0.0480790     0.0033120
  C       -1.2654920    -1.1739550     0.0157300
  C        0.2371350    -1.1840010    -0.0022480
  C        0.2779850     1.2351350     0.0170580
  C        2.4810890    -0.0479420    -0.0086670
  C       -1.0722470     1.2493700    -0.0013870
  H       -1.6641751    -1.7095012    -0.8307904
  H       -1.6521540    -1.6671500     0.9188080
  H        0.7071820    -2.1662500    -0.0128270
  H        0.8222450     2.1733070     0.0302890
  H        2.8758370     0.4671910     0.8740370
  H        2.8626870     0.4795000    -0.8898540
  H        2.8779460    -1.0666660    -0.0186730
  H       -1.6754580     2.1523000    -0.0063760
units angstrom
no_reorient  #important for SAPT in psi4, default
symmetry c1  #important for SAPT in psi4, default
}

set PROPERTIES_ORIGIN ["COM"]
properties('MP2/aug-cc-pvtz', properties = ['dipole'])
--------------------------------------------------------------------------

    Molecular point group: c1
  Charge       = 0
  Multiplicity = 1
  Basis Set: AUG-CC-PVTZ
    Blend: AUG-CC-PVTZ
  Basis Set: (AUG-CC-PVTZ AUX)
    Blend: AUG-CC-PVTZ-JKFIT

    Orbital Energies [Eh]
    ---------------------

    Doubly Occupied:

       1A    -20.583574     2A    -11.299988     3A    -11.289417
       4A    -11.246661     5A    -11.226259     6A    -11.226018
       7A    -11.218069     8A     -1.398683     9A     -1.105879
      10A     -1.035420    11A     -0.972113    12A     -0.877142
      13A     -0.827258    14A     -0.694124    15A     -0.673853
      16A     -0.657623    17A     -0.651517    18A     -0.586179
      19A     -0.572823    20A     -0.557627    21A     -0.552341
      22A     -0.512393    23A     -0.504163    24A     -0.469341
      25A     -0.410085    26A     -0.285483

  @DF-RHF Final Energy:  -306.78985954746315

   => Energetics <=

    Nuclear Repulsion Energy =            288.6334455677678648
    One-Electron Energy =                -987.9785484445048951
    Two-Electron Energy =                 392.5552433292738215
    Total Energy =                       -306.7898595474631520
  Basis Set: (AUG-CC-PVTZ AUX)
    Blend: AUG-CC-PVTZ-RI
    Molecular point group: c1

    Geometry (in Angstrom), charge = 0, multiplicity = 1:

       Center              X                  Y                   Z               Mass
    ------------   -----------------  -----------------  -----------------  -----------------
         O           -1.819031543974     0.131492324975    -0.023622880873    15.994914619570
         C            1.032748456026    -0.062090675025     0.003651119127    12.000000000000
         C           -1.212508543974    -1.187966675025     0.016069119127    12.000000000000
         C            0.290118456026    -1.198012675025    -0.001908880873    12.000000000000
         C            0.330968456026     1.221123324975     0.017397119127    12.000000000000
         C            2.534072456026    -0.061953675025    -0.008327880873    12.000000000000
         C           -1.019263543974     1.235358324975    -0.001047880873    12.000000000000
         H           -1.611191643974    -1.723512875025    -0.830451280873     1.007825032230
         H           -1.599170543974    -1.681161675025     0.919147119127     1.007825032230
         H            0.760165456026    -2.180261675025    -0.012487880873     1.007825032230
         H            0.875228456026     2.159295324975     0.030628119127     1.007825032230
         H            2.928820456026     0.453179324975     0.874376119127     1.007825032230
         H            2.915670456026     0.465488324975    -0.889514880873     1.007825032230
         H            2.930929456026    -1.080677675025    -0.018333880873     1.007825032230
         H           -1.622474543974     2.138288324975    -0.006036880873     1.007825032230

  Basis Set: AUG-CC-PVTZ
    Blend: AUG-CC-PVTZ
  Basis Set: (AUG-CC-PVTZ AUX)
    Blend: AUG-CC-PVTZ-JKFIT
	 Reference Energy          =    -306.7898595474631520 [Eh]
	 Singles Energy            =      -0.0000000000000000 [Eh]
	 Same-Spin Energy          =      -0.3155754227801871 [Eh]
	 Opposite-Spin Energy      =      -1.0406662290592841 [Eh]
	 Correlation Energy        =      -1.3562416518394711 [Eh]
	 Total Energy              =    -308.1461011993026204 [Eh]

	 ================> DF-SCS-MP2 Energies <==================
	-----------------------------------------------------------
	 SCS Same-Spin Scale       =       0.3333333333333333 [-]
	 SCS Opposite-Spin Scale   =       1.2000000000000000 [-]
	 SCS Same-Spin Energy      =      -0.1051918075933957 [Eh]
	 SCS Opposite-Spin Energy  =      -1.2487994748711408 [Eh]
	 SCS Correlation Energy    =      -1.3539912824645366 [Eh]
	 SCS Total Energy          =    -308.1438508299277146 [Eh]
	-----------------------------------------------------------

  Dipole Moment: [D]
     X:     0.8981      Y:    -0.5319      Z:     0.0251     Total:     1.0441

*** Psi4 exiting successfully. Buy a developer a beer!
