                               Psi4 1.4a3.dev225

  ==> Input File <==

--------------------------------------------------------------------------
#psi4
#
memory 32 gb

molecule  {
0 1
  O       -1.8720150     0.1455040    -0.0239620
  C        0.9797650    -0.0480790     0.0033120
  C       -1.2654920    -1.1739550     0.0157300
  C        0.2371350    -1.1840010    -0.0022480
  C        0.2779850     1.2351350     0.0170580
  C        2.4810890    -0.0479420    -0.0086670
  C       -1.1222396     1.2498971    -0.0020699
  H       -1.6715710    -1.7194360    -0.8464940
  H       -1.6521540    -1.6671500     0.9188080
  H        0.7071820    -2.1662500    -0.0128270
  H        0.8222450     2.1733070     0.0302890
  H        2.8758370     0.4671910     0.8740370
  H        2.8626870     0.4795000    -0.8898540
  H        2.8779460    -1.0666660    -0.0186730
  H       -1.6754580     2.1523000    -0.0063760
units angstrom
no_reorient  #important for SAPT in psi4, default
symmetry c1  #important for SAPT in psi4, default
}

set PROPERTIES_ORIGIN ["COM"]
properties('MP2/aug-cc-pvtz', properties = ['dipole'])
--------------------------------------------------------------------------

    Molecular point group: c1
  Charge       = 0
  Multiplicity = 1
  Basis Set: AUG-CC-PVTZ
    Blend: AUG-CC-PVTZ
  Basis Set: (AUG-CC-PVTZ AUX)
    Blend: AUG-CC-PVTZ-JKFIT

    Orbital Energies [Eh]
    ---------------------

    Doubly Occupied:

       1A    -20.588882     2A    -11.306618     3A    -11.295313
       4A    -11.246346     5A    -11.225087     6A    -11.224440
       7A    -11.220136     8A     -1.412672     9A     -1.102357
      10A     -1.032760    11A     -0.967479    12A     -0.876631
      13A     -0.831391    14A     -0.698511    15A     -0.673385
      16A     -0.662171    17A     -0.654260    18A     -0.589479
      19A     -0.571795    20A     -0.559485    21A     -0.549824
      22A     -0.516490    23A     -0.506556    24A     -0.466487
      25A     -0.404689    26A     -0.277111

  @DF-RHF Final Energy:  -306.78500652086211

   => Energetics <=

    Nuclear Repulsion Energy =            288.1970453757666633
    One-Electron Energy =                -987.0433938722256926
    Two-Electron Energy =                 392.0613419755969744
    Total Energy =                       -306.7850065208621118
  Basis Set: (AUG-CC-PVTZ AUX)
    Blend: AUG-CC-PVTZ-RI
    Molecular point group: c1

    Geometry (in Angstrom), charge = 0, multiplicity = 1:

       Center              X                  Y                   Z               Mass
    ------------   -----------------  -----------------  -----------------  -----------------
         O           -1.812708613655     0.131530711770    -0.023372809015    15.994914619570
         C            1.039071386345    -0.062052288230     0.003901190985    12.000000000000
         C           -1.206185613655    -1.187928288230     0.016319190985    12.000000000000
         C            0.296441386345    -1.197974288230    -0.001658809015    12.000000000000
         C            0.337291386345     1.221161711770     0.017647190985    12.000000000000
         C            2.540395386345    -0.061915288230    -0.008077809015    12.000000000000
         C           -1.062933213655     1.235923811770    -0.001480709015    12.000000000000
         H           -1.612264613655    -1.733409288230    -0.845904809015     1.007825032230
         H           -1.592847613655    -1.681123288230     0.919397190985     1.007825032230
         H            0.766488386345    -2.180223288230    -0.012237809015     1.007825032230
         H            0.881551386345     2.159333711770     0.030878190985     1.007825032230
         H            2.935143386345     0.453217711770     0.874626190985     1.007825032230
         H            2.921993386345     0.465526711770    -0.889264809015     1.007825032230
         H            2.937252386345    -1.080639288230    -0.018083809015     1.007825032230
         H           -1.616151613655     2.138326711770    -0.005786809015     1.007825032230

  Basis Set: AUG-CC-PVTZ
    Blend: AUG-CC-PVTZ
  Basis Set: (AUG-CC-PVTZ AUX)
    Blend: AUG-CC-PVTZ-JKFIT
	 Reference Energy          =    -306.7850065208621118 [Eh]
	 Singles Energy            =      -0.0000000000000000 [Eh]
	 Same-Spin Energy          =      -0.3160791140232903 [Eh]
	 Opposite-Spin Energy      =      -1.0413046430713164 [Eh]
	 Correlation Energy        =      -1.3573837570946066 [Eh]
	 Total Energy              =    -308.1423902779567356 [Eh]

	 ================> DF-SCS-MP2 Energies <==================
	-----------------------------------------------------------
	 SCS Same-Spin Scale       =       0.3333333333333333 [-]
	 SCS Opposite-Spin Scale   =       1.2000000000000000 [-]
	 SCS Same-Spin Energy      =      -0.1053597046744301 [Eh]
	 SCS Opposite-Spin Energy  =      -1.2495655716855796 [Eh]
	 SCS Correlation Energy    =      -1.3549252763600097 [Eh]
	 SCS Total Energy          =    -308.1399317972221183 [Eh]
	-----------------------------------------------------------

  Dipole Moment: [D]
     X:     0.7130      Y:    -0.6037      Z:     0.0286     Total:     0.9347

*** Psi4 exiting successfully. Buy a developer a beer!
