                               Psi4 1.4a3.dev225

  ==> Input File <==

--------------------------------------------------------------------------
#psi4
#
memory 32 gb

molecule  {
0 1
  O       -1.8720150     0.1455040    -0.0239620
  C        0.9797650    -0.0480790     0.0033120
  C       -1.2654920    -1.1739550     0.0157300
  C        0.2371350    -1.1840010    -0.0022480
  C        0.2779850     1.2351350     0.0170580
  C        2.4810890    -0.0479420    -0.0086670
  C       -1.0719173     1.2022354    -0.0016719
  H       -1.6715710    -1.7194360    -0.8464940
  H       -1.6521540    -1.6671500     0.9188080
  H        0.7071820    -2.1662500    -0.0128270
  H        0.8222450     2.1733070     0.0302890
  H        2.8758370     0.4671910     0.8740370
  H        2.8626870     0.4795000    -0.8898540
  H        2.8779460    -1.0666660    -0.0186730
  H       -1.6754580     2.1523000    -0.0063760
units angstrom
no_reorient  #important for SAPT in psi4, default
symmetry c1  #important for SAPT in psi4, default
}

set PROPERTIES_ORIGIN ["COM"]
properties('MP2/aug-cc-pvtz', properties = ['dipole'])
--------------------------------------------------------------------------

    Molecular point group: c1
  Charge       = 0
  Multiplicity = 1
  Basis Set: AUG-CC-PVTZ
    Blend: AUG-CC-PVTZ
  Basis Set: (AUG-CC-PVTZ AUX)
    Blend: AUG-CC-PVTZ-JKFIT

    Orbital Energies [Eh]
    ---------------------

    Doubly Occupied:

       1A    -20.591795     2A    -11.303065     3A    -11.294031
       4A    -11.246038     5A    -11.225183     6A    -11.224096
       7A    -11.214227     8A     -1.419370     9A     -1.106335
      10A     -1.035367    11A     -0.972389    12A     -0.879608
      13A     -0.823477    14A     -0.697835    15A     -0.677788
      16A     -0.658113    17A     -0.654162    18A     -0.581616
      19A     -0.572190    20A     -0.560718    21A     -0.553946
      22A     -0.519484    23A     -0.503564    24A     -0.465881
      25A     -0.409491    26A     -0.282842

  @DF-RHF Final Energy:  -306.78804048974666

   => Energetics <=

    Nuclear Repulsion Energy =            289.3545718227886141
    One-Electron Energy =                -989.3400017558949457
    Two-Electron Energy =                 393.1973894433597252
    Total Energy =                       -306.7880404897466633
  Basis Set: (AUG-CC-PVTZ AUX)
    Blend: AUG-CC-PVTZ-RI
    Molecular point group: c1

    Geometry (in Angstrom), charge = 0, multiplicity = 1:

       Center              X                  Y                   Z               Mass
    ------------   -----------------  -----------------  -----------------  -----------------
         O           -1.818995134817     0.137484857062    -0.023422529227    15.994914619570
         C            1.032784865183    -0.056098142938     0.003851470773    12.000000000000
         C           -1.212472134817    -1.181974142938     0.016269470773    12.000000000000
         C            0.290154865183    -1.192020142938    -0.001708529227    12.000000000000
         C            0.331004865183     1.227115857062     0.017597470773    12.000000000000
         C            2.534108865183    -0.055961142938    -0.008127529227    12.000000000000
         C           -1.018897434817     1.194216257062    -0.001132429227    12.000000000000
         H           -1.618551134817    -1.727455142938    -0.845954529227     1.007825032230
         H           -1.599134134817    -1.675169142938     0.919347470773     1.007825032230
         H            0.760201865183    -2.174269142938    -0.012287529227     1.007825032230
         H            0.875264865183     2.165287857062     0.030828470773     1.007825032230
         H            2.928856865183     0.459171857062     0.874576470773     1.007825032230
         H            2.915706865183     0.471480857062    -0.889314529227     1.007825032230
         H            2.930965865183    -1.074685142938    -0.018133529227     1.007825032230
         H           -1.622438134817     2.144280857062    -0.005836529227     1.007825032230

  Basis Set: AUG-CC-PVTZ
    Blend: AUG-CC-PVTZ
  Basis Set: (AUG-CC-PVTZ AUX)
    Blend: AUG-CC-PVTZ-JKFIT
	 Reference Energy          =    -306.7880404897466633 [Eh]
	 Singles Energy            =      -0.0000000000000000 [Eh]
	 Same-Spin Energy          =      -0.3157768450568594 [Eh]
	 Opposite-Spin Energy      =      -1.0403682603529965 [Eh]
	 Correlation Energy        =      -1.3561451054098559 [Eh]
	 Total Energy              =    -308.1441855951565003 [Eh]

	 ================> DF-SCS-MP2 Energies <==================
	-----------------------------------------------------------
	 SCS Same-Spin Scale       =       0.3333333333333333 [-]
	 SCS Opposite-Spin Scale   =       1.2000000000000000 [-]
	 SCS Same-Spin Energy      =      -0.1052589483522865 [Eh]
	 SCS Opposite-Spin Energy  =      -1.2484419124235957 [Eh]
	 SCS Correlation Energy    =      -1.3537008607758823 [Eh]
	 SCS Total Energy          =    -308.1417413505225227 [Eh]
	-----------------------------------------------------------

  Dipole Moment: [D]
     X:     0.7687      Y:    -0.6359      Z:     0.0300     Total:     0.9981

*** Psi4 exiting successfully. Buy a developer a beer!
