                               Psi4 1.4a3.dev225

  ==> Input File <==

--------------------------------------------------------------------------
#psi4
#
memory 32 gb

molecule  {
0 1
  O       -1.8720150     0.1455040    -0.0239620
  C        0.9797650    -0.0480790     0.0033120
  C       -1.2654920    -1.1739550     0.0157300
  C        0.1824151    -1.2677002    -0.0026577
  C        0.2779850     1.2351350     0.0170580
  C        2.4810890    -0.0479420    -0.0086670
  C       -1.0722470     1.2493700    -0.0013870
  H       -1.6715710    -1.7194360    -0.8464940
  H       -1.6521540    -1.6671500     0.9188080
  H        0.7071820    -2.1662500    -0.0128270
  H        0.8222450     2.1733070     0.0302890
  H        2.8758370     0.4671910     0.8740370
  H        2.8626870     0.4795000    -0.8898540
  H        2.8779460    -1.0666660    -0.0186730
  H       -1.6754580     2.1523000    -0.0063760
units angstrom
no_reorient  #important for SAPT in psi4, default
symmetry c1  #important for SAPT in psi4, default
}

set PROPERTIES_ORIGIN ["COM"]
properties('MP2/aug-cc-pvtz', properties = ['dipole'])
--------------------------------------------------------------------------

    Molecular point group: c1
  Charge       = 0
  Multiplicity = 1
  Basis Set: AUG-CC-PVTZ
    Blend: AUG-CC-PVTZ
  Basis Set: (AUG-CC-PVTZ AUX)
    Blend: AUG-CC-PVTZ-JKFIT

    Orbital Energies [Eh]
    ---------------------

    Doubly Occupied:

       1A    -20.587327     2A    -11.302827     3A    -11.289210
       4A    -11.261047     5A    -11.230687     6A    -11.227844
       7A    -11.220350     8A     -1.401208     9A     -1.095985
      10A     -1.042385    11A     -0.976215    12A     -0.866376
      13A     -0.831408    14A     -0.696954    15A     -0.680922
      16A     -0.655392    17A     -0.651768    18A     -0.591004
      19A     -0.572607    20A     -0.558919    21A     -0.554508
      22A     -0.514366    23A     -0.491703    24A     -0.484218
      25A     -0.401546    26A     -0.273155

  @DF-RHF Final Energy:  -306.76937493407718

   => Energetics <=

    Nuclear Repulsion Energy =            287.4962119752307217
    One-Electron Energy =                -985.6113146796866431
    Two-Electron Energy =                 391.3457277703787440
    Total Energy =                       -306.7693749340771774
  Basis Set: (AUG-CC-PVTZ AUX)
    Blend: AUG-CC-PVTZ-RI
    Molecular point group: c1

    Geometry (in Angstrom), charge = 0, multiplicity = 1:

       Center              X                  Y                   Z               Mass
    ------------   -----------------  -----------------  -----------------  -----------------
         O           -1.812118054967     0.142052695409    -0.023406938568    15.994914619570
         C            1.039661945033    -0.051530304591     0.003867061432    12.000000000000
         C           -1.205595054967    -1.177406304591     0.016285061432    12.000000000000
         C            0.242312045033    -1.271151504591    -0.002102638568    12.000000000000
         C            0.337881945033     1.231683695409     0.017613061432    12.000000000000
         C            2.540985945033    -0.051393304591    -0.008111938568    12.000000000000
         C           -1.012350054967     1.245918695409    -0.000831938568    12.000000000000
         H           -1.611674054967    -1.722887304591    -0.845938938568     1.007825032230
         H           -1.592257054967    -1.670601304591     0.919363061432     1.007825032230
         H            0.767078945033    -2.169701304591    -0.012271938568     1.007825032230
         H            0.882141945033     2.169855695409     0.030844061432     1.007825032230
         H            2.935733945033     0.463739695409     0.874592061432     1.007825032230
         H            2.922583945033     0.476048695409    -0.889298938568     1.007825032230
         H            2.937842945033    -1.070117304591    -0.018117938568     1.007825032230
         H           -1.615561054967     2.148848695409    -0.005820938568     1.007825032230

  Basis Set: AUG-CC-PVTZ
    Blend: AUG-CC-PVTZ
  Basis Set: (AUG-CC-PVTZ AUX)
    Blend: AUG-CC-PVTZ-JKFIT
	 Reference Energy          =    -306.7693749340771774 [Eh]
	 Singles Energy            =      -0.0000000000000000 [Eh]
	 Same-Spin Energy          =      -0.3175328716359955 [Eh]
	 Opposite-Spin Energy      =      -1.0442679469426976 [Eh]
	 Correlation Energy        =      -1.3618008185786932 [Eh]
	 Total Energy              =    -308.1311757526558495 [Eh]

	 ================> DF-SCS-MP2 Energies <==================
	-----------------------------------------------------------
	 SCS Same-Spin Scale       =       0.3333333333333333 [-]
	 SCS Opposite-Spin Scale   =       1.2000000000000000 [-]
	 SCS Same-Spin Energy      =      -0.1058442905453318 [Eh]
	 SCS Opposite-Spin Energy  =      -1.2531215363312371 [Eh]
	 SCS Correlation Energy    =      -1.3589658268765690 [Eh]
	 SCS Total Energy          =    -308.1283407609537335 [Eh]
	-----------------------------------------------------------

  Dipole Moment: [D]
     X:     0.9360      Y:    -0.4639      Z:     0.0317     Total:     1.0451

*** Psi4 exiting successfully. Buy a developer a beer!
