                               Psi4 1.4a3.dev225

  ==> Input File <==

--------------------------------------------------------------------------
#psi4
#
memory 32 gb

molecule  {
0 1
  O       -1.8720150     0.1455040    -0.0239620
  C        0.9797650    -0.0480790     0.0033120
  C       -1.2654920    -1.1739550     0.0157300
  C        0.2371350    -1.1840010    -0.0022480
  C        0.2779850     1.2351350     0.0170580
  C        2.4810890    -0.0479420    -0.0086670
  C       -1.0722470     1.2493700    -0.0013870
  H       -1.6715710    -1.7194360    -0.8464940
  H       -1.6521540    -1.6671500     0.9188080
  H        0.7071820    -2.1662500    -0.0128270
  H        0.8222450     2.1733070     0.0302890
  H        2.8758370     0.4671910     0.8740370
  H        2.7930258     0.3832148    -0.7289923
  H        2.8779460    -1.0666660    -0.0186730
  H       -1.6754580     2.1523000    -0.0063760
units angstrom
no_reorient  #important for SAPT in psi4, default
symmetry c1  #important for SAPT in psi4, default
}

set PROPERTIES_ORIGIN ["COM"]
properties('MP2/aug-cc-pvtz', properties = ['dipole'])
--------------------------------------------------------------------------

    Molecular point group: c1
  Charge       = 0
  Multiplicity = 1
  Basis Set: AUG-CC-PVTZ
    Blend: AUG-CC-PVTZ
  Basis Set: (AUG-CC-PVTZ AUX)
    Blend: AUG-CC-PVTZ-JKFIT

    Orbital Energies [Eh]
    ---------------------

    Doubly Occupied:

       1A    -20.583587     2A    -11.300031     3A    -11.291172
       4A    -11.245390     5A    -11.225291     6A    -11.218142
       7A    -11.201399     8A     -1.398538     9A     -1.108508
      10A     -1.034301    11A     -0.990114    12A     -0.880445
      13A     -0.830870    14A     -0.696481    15A     -0.672981
      16A     -0.659503    17A     -0.649362    18A     -0.608628
      19A     -0.582987    20A     -0.557417    21A     -0.552846
      22A     -0.510769    23A     -0.505047    24A     -0.468730
      25A     -0.412145    26A     -0.285032

  @DF-RHF Final Energy:  -306.75601939413599

   => Energetics <=

    Nuclear Repulsion Energy =            289.4990173448823043
    One-Electron Energy =                -989.5706402789567164
    Two-Electron Energy =                 393.3156035399384223
    Total Energy =                       -306.7560193941359898
  Basis Set: (AUG-CC-PVTZ AUX)
    Blend: AUG-CC-PVTZ-RI
    Molecular point group: c1

    Geometry (in Angstrom), charge = 0, multiplicity = 1:

       Center              X                  Y                   Z               Mass
    ------------   -----------------  -----------------  -----------------  -----------------
         O           -1.818223069235     0.132606773699    -0.025145863921    15.994914619570
         C            1.033556930765    -0.060976226301     0.002128136079    12.000000000000
         C           -1.211700069235    -1.186852226301     0.014546136079    12.000000000000
         C            0.290926930765    -1.196898226301    -0.003431863921    12.000000000000
         C            0.331776930765     1.222237773699     0.015874136079    12.000000000000
         C            2.534880930765    -0.060839226301    -0.009850863921    12.000000000000
         C           -1.018455069235     1.236472773699    -0.002570863921    12.000000000000
         H           -1.617779069235    -1.732333226301    -0.847677863921     1.007825032230
         H           -1.598362069235    -1.680047226301     0.917624136079     1.007825032230
         H            0.760973930765    -2.179147226301    -0.014010863921     1.007825032230
         H            0.876036930765     2.160409773699     0.029105136079     1.007825032230
         H            2.929628930765     0.454293773699     0.872853136079     1.007825032230
         H            2.846817730765     0.370317573699    -0.730176163921     1.007825032230
         H            2.931737930765    -1.079563226301    -0.019856863921     1.007825032230
         H           -1.621666069235     2.139402773699    -0.007559863921     1.007825032230

  Basis Set: AUG-CC-PVTZ
    Blend: AUG-CC-PVTZ
  Basis Set: (AUG-CC-PVTZ AUX)
    Blend: AUG-CC-PVTZ-JKFIT
	 Reference Energy          =    -306.7560193941359898 [Eh]
	 Singles Energy            =      -0.0000000000000000 [Eh]
	 Same-Spin Energy          =      -0.3157518159374721 [Eh]
	 Opposite-Spin Energy      =      -1.0402408822620943 [Eh]
	 Correlation Energy        =      -1.3559926981995665 [Eh]
	 Total Energy              =    -308.1120120923355330 [Eh]

	 ================> DF-SCS-MP2 Energies <==================
	-----------------------------------------------------------
	 SCS Same-Spin Scale       =       0.3333333333333333 [-]
	 SCS Opposite-Spin Scale   =       1.2000000000000000 [-]
	 SCS Same-Spin Energy      =      -0.1052506053124907 [Eh]
	 SCS Opposite-Spin Energy  =      -1.2482890587145132 [Eh]
	 SCS Correlation Energy    =      -1.3535396640270039 [Eh]
	 SCS Total Energy          =    -308.1095590581629722 [Eh]
	-----------------------------------------------------------

  Dipole Moment: [D]
     X:     0.9638      Y:    -0.4824      Z:    -0.0090     Total:     1.0779

*** Psi4 exiting successfully. Buy a developer a beer!
