                               Psi4 1.4a3.dev225

  ==> Input File <==

--------------------------------------------------------------------------
#psi4
#
memory 32 gb

molecule  {
0 1
  O       -1.8720150     0.1455040    -0.0239620
  C        0.9797650    -0.0480790     0.0033120
  C       -1.2654920    -1.1739550     0.0157300
  C        0.2371350    -1.1840010    -0.0022480
  C        0.2779850     1.2351350     0.0170580
  C        2.4810890    -0.0479420    -0.0086670
  C       -1.0722470     1.2493700    -0.0013870
  H       -1.6715710    -1.7194360    -0.8464940
  H       -1.6521540    -1.6671500     0.9188080
  H        0.7071820    -2.1662500    -0.0128270
  H        0.8222450     2.1733070     0.0302890
  H        2.8758370     0.4671910     0.8740370
  H        2.8696531     0.4891285    -0.9059402
  H        2.8779460    -1.0666660    -0.0186730
  H       -1.6754580     2.1523000    -0.0063760
units angstrom
no_reorient  #important for SAPT in psi4, default
symmetry c1  #important for SAPT in psi4, default
}

set PROPERTIES_ORIGIN ["COM"]
properties('MP2/aug-cc-pvtz', properties = ['dipole'])
--------------------------------------------------------------------------

    Molecular point group: c1
  Charge       = 0
  Multiplicity = 1
  Basis Set: AUG-CC-PVTZ
    Blend: AUG-CC-PVTZ
  Basis Set: (AUG-CC-PVTZ AUX)
    Blend: AUG-CC-PVTZ-JKFIT

    Orbital Energies [Eh]
    ---------------------

    Doubly Occupied:

       1A    -20.583915     2A    -11.300146     3A    -11.291961
       4A    -11.246991     5A    -11.228530     6A    -11.226641
       7A    -11.218246     8A     -1.398906     9A     -1.105927
      10A     -1.034803    11A     -0.970826    12A     -0.875926
      13A     -0.826922    14A     -0.693879    15A     -0.673693
      16A     -0.657604    17A     -0.649818    18A     -0.585669
      19A     -0.570263    20A     -0.557703    21A     -0.551980
      22A     -0.511256    23A     -0.503800    24A     -0.469589
      25A     -0.409945    26A     -0.285549

  @DF-RHF Final Energy:  -306.78924031836146

   => Energetics <=

    Nuclear Repulsion Energy =            288.4512508143519653
    One-Electron Energy =                -987.6200032651130414
    Two-Electron Energy =                 392.3795121323996113
    Total Energy =                       -306.7892403183614647
  Basis Set: (AUG-CC-PVTZ AUX)
    Blend: AUG-CC-PVTZ-RI
    Molecular point group: c1

    Geometry (in Angstrom), charge = 0, multiplicity = 1:

       Center              X                  Y                   Z               Mass
    ------------   -----------------  -----------------  -----------------  -----------------
         O           -1.819027034559     0.131495538641    -0.023289345738    15.994914619570
         C            1.032752965441    -0.062087461359     0.003984654262    12.000000000000
         C           -1.212504034559    -1.187963461359     0.016402654262    12.000000000000
         C            0.290122965441    -1.198009461359    -0.001575345738    12.000000000000
         C            0.330972965441     1.221126538641     0.017730654262    12.000000000000
         C            2.534076965441    -0.061950461359    -0.007994345738    12.000000000000
         C           -1.019259034559     1.235361538641    -0.000714345738    12.000000000000
         H           -1.618583034559    -1.733444461359    -0.845821345738     1.007825032230
         H           -1.599166034559    -1.681158461359     0.919480654262     1.007825032230
         H            0.760169965441    -2.180258461359    -0.012154345738     1.007825032230
         H            0.875232965441     2.159298538641     0.030961654262     1.007825032230
         H            2.928824965441     0.453182538641     0.874709654262     1.007825032230
         H            2.922641065441     0.475120038641    -0.905267545738     1.007825032230
         H            2.930933965441    -1.080674461359    -0.018000345738     1.007825032230
         H           -1.622470034559     2.138291538641    -0.005703345738     1.007825032230

  Basis Set: AUG-CC-PVTZ
    Blend: AUG-CC-PVTZ
  Basis Set: (AUG-CC-PVTZ AUX)
    Blend: AUG-CC-PVTZ-JKFIT
	 Reference Energy          =    -306.7892403183614647 [Eh]
	 Singles Energy            =      -0.0000000000000000 [Eh]
	 Same-Spin Energy          =      -0.3155998362861195 [Eh]
	 Opposite-Spin Energy      =      -1.0409289537984914 [Eh]
	 Correlation Energy        =      -1.3565287900846110 [Eh]
	 Total Energy              =    -308.1457691084460748 [Eh]

	 ================> DF-SCS-MP2 Energies <==================
	-----------------------------------------------------------
	 SCS Same-Spin Scale       =       0.3333333333333333 [-]
	 SCS Opposite-Spin Scale   =       1.2000000000000000 [-]
	 SCS Same-Spin Energy      =      -0.1051999454287065 [Eh]
	 SCS Opposite-Spin Energy  =      -1.2491147445581896 [Eh]
	 SCS Correlation Energy    =      -1.3543146899868961 [Eh]
	 SCS Total Energy          =    -308.1435550083483577 [Eh]
	-----------------------------------------------------------

  Dipole Moment: [D]
     X:     0.8986      Y:    -0.5249      Z:     0.0393     Total:     1.0414

*** Psi4 exiting successfully. Buy a developer a beer!
