                               Psi4 1.4a3.dev225

  ==> Input File <==

--------------------------------------------------------------------------
#psi4
#
memory 32 gb

molecule  {
0 1
  O       -1.8720150     0.1455040    -0.0239620
  C        0.9797650    -0.0480790     0.0033120
  C       -1.1819907    -1.3556076     0.0211945
  C        0.2371350    -1.1840010    -0.0022480
  C        0.2779850     1.2351350     0.0170580
  C        2.4810890    -0.0479420    -0.0086670
  C       -1.0722470     1.2493700    -0.0013870
  H       -1.6715710    -1.7194360    -0.8464940
  H       -1.6521540    -1.6671500     0.9188080
  H        0.7071820    -2.1662500    -0.0128270
  H        0.8222450     2.1733070     0.0302890
  H        2.8758370     0.4671910     0.8740370
  H        2.8626870     0.4795000    -0.8898540
  H        2.8779460    -1.0666660    -0.0186730
  H       -1.6754580     2.1523000    -0.0063760
units angstrom
no_reorient  #important for SAPT in psi4, default
symmetry c1  #important for SAPT in psi4, default
}

set PROPERTIES_ORIGIN ["COM"]
properties('MP2/aug-cc-pvtz', properties = ['dipole'])
--------------------------------------------------------------------------

    Molecular point group: c1
  Charge       = 0
  Multiplicity = 1
  Basis Set: AUG-CC-PVTZ
    Blend: AUG-CC-PVTZ
  Basis Set: (AUG-CC-PVTZ AUX)
    Blend: AUG-CC-PVTZ-JKFIT

    Orbital Energies [Eh]
    ---------------------

    Doubly Occupied:

       1A    -20.563208     2A    -11.301966     3A    -11.293916
       4A    -11.255086     5A    -11.228394     6A    -11.223102
       7A    -11.208226     8A     -1.349671     9A     -1.108906
      10A     -1.039133    11A     -0.975897    12A     -0.877361
      13A     -0.820616    14A     -0.683267    15A     -0.672314
      16A     -0.652627    17A     -0.650637    18A     -0.590161
      19A     -0.574614    20A     -0.546592    21A     -0.537298
      22A     -0.522271    23A     -0.513235    24A     -0.449437
      25A     -0.404954    26A     -0.284905

  @DF-RHF Final Energy:  -306.76005419400963

   => Energetics <=

    Nuclear Repulsion Energy =            286.5260546115651437
    One-Electron Energy =                -983.9166238251954155
    Two-Electron Energy =                 390.6305150196205886
    Total Energy =                       -306.7600541940096264
  Basis Set: (AUG-CC-PVTZ AUX)
    Blend: AUG-CC-PVTZ-RI
    Molecular point group: c1

    Geometry (in Angstrom), charge = 0, multiplicity = 1:

       Center              X                  Y                   Z               Mass
    ------------   -----------------  -----------------  -----------------  -----------------
         O           -1.829385359895     0.154289539153    -0.024140773917    15.994914619570
         C            1.022394640105    -0.039293460847     0.003133226083    12.000000000000
         C           -1.139361059895    -1.346822060847     0.021015726083    12.000000000000
         C            0.279764640105    -1.175215460847    -0.002426773917    12.000000000000
         C            0.320614640105     1.243920539153     0.016879226083    12.000000000000
         C            2.523718640105    -0.039156460847    -0.008845773917    12.000000000000
         C           -1.029617359895     1.258155539153    -0.001565773917    12.000000000000
         H           -1.628941359895    -1.710650460847    -0.846672773917     1.007825032230
         H           -1.609524359895    -1.658364460847     0.918629226083     1.007825032230
         H            0.749811640105    -2.157464460847    -0.013005773917     1.007825032230
         H            0.864874640105     2.182092539153     0.030110226083     1.007825032230
         H            2.918466640105     0.475976539153     0.873858226083     1.007825032230
         H            2.905316640105     0.488285539153    -0.890032773917     1.007825032230
         H            2.920575640105    -1.057880460847    -0.018851773917     1.007825032230
         H           -1.632828359895     2.161085539153    -0.006554773917     1.007825032230

  Basis Set: AUG-CC-PVTZ
    Blend: AUG-CC-PVTZ
  Basis Set: (AUG-CC-PVTZ AUX)
    Blend: AUG-CC-PVTZ-JKFIT
	 Reference Energy          =    -306.7600541940096264 [Eh]
	 Singles Energy            =      -0.0000000000000000 [Eh]
	 Same-Spin Energy          =      -0.3176470912649589 [Eh]
	 Opposite-Spin Energy      =      -1.0451040120849888 [Eh]
	 Correlation Energy        =      -1.3627511033499478 [Eh]
	 Total Energy              =    -308.1228052973595481 [Eh]

	 ================> DF-SCS-MP2 Energies <==================
	-----------------------------------------------------------
	 SCS Same-Spin Scale       =       0.3333333333333333 [-]
	 SCS Opposite-Spin Scale   =       1.2000000000000000 [-]
	 SCS Same-Spin Energy      =      -0.1058823637549863 [Eh]
	 SCS Opposite-Spin Energy  =      -1.2541248145019865 [Eh]
	 SCS Correlation Energy    =      -1.3600071782569729 [Eh]
	 SCS Total Energy          =    -308.1200613722666048 [Eh]
	-----------------------------------------------------------

  Dipole Moment: [D]
     X:     0.9575      Y:    -1.0313      Z:     0.0551     Total:     1.4083

*** Psi4 exiting successfully. Buy a developer a beer!
