                               Psi4 1.4a3.dev225

  ==> Input File <==

--------------------------------------------------------------------------
#psi4
#
memory 32 gb

molecule  {
0 1
  O       -1.8720150     0.1455040    -0.0239620
  C        1.0189554    -0.0746861     0.0028881
  C       -1.2654920    -1.1739550     0.0157300
  C        0.2371350    -1.1840010    -0.0022480
  C        0.2779850     1.2351350     0.0170580
  C        2.4810890    -0.0479420    -0.0086670
  C       -1.0722470     1.2493700    -0.0013870
  H       -1.6715710    -1.7194360    -0.8464940
  H       -1.6521540    -1.6671500     0.9188080
  H        0.7071820    -2.1662500    -0.0128270
  H        0.8222450     2.1733070     0.0302890
  H        2.8758370     0.4671910     0.8740370
  H        2.8626870     0.4795000    -0.8898540
  H        2.8779460    -1.0666660    -0.0186730
  H       -1.6754580     2.1523000    -0.0063760
units angstrom
no_reorient  #important for SAPT in psi4, default
symmetry c1  #important for SAPT in psi4, default
}

set PROPERTIES_ORIGIN ["COM"]
properties('MP2/aug-cc-pvtz', properties = ['dipole'])
--------------------------------------------------------------------------

    Molecular point group: c1
  Charge       = 0
  Multiplicity = 1
  Basis Set: AUG-CC-PVTZ
    Blend: AUG-CC-PVTZ
  Basis Set: (AUG-CC-PVTZ AUX)
    Blend: AUG-CC-PVTZ-JKFIT

    Orbital Energies [Eh]
    ---------------------

    Doubly Occupied:

       1A    -20.582407     2A    -11.298054     3A    -11.293349
       4A    -11.248056     5A    -11.227823     6A    -11.225433
       7A    -11.219871     8A     -1.397508     9A     -1.105217
      10A     -1.033108    11A     -0.977887    12A     -0.877288
      13A     -0.821687    14A     -0.692835    15A     -0.672249
      16A     -0.657110    17A     -0.649667    18A     -0.588504
      19A     -0.577137    20A     -0.561814    21A     -0.553234
      22A     -0.510902    23A     -0.499195    24A     -0.469196
      25A     -0.404542    26A     -0.287723

  @DF-RHF Final Energy:  -306.78754576476388

   => Energetics <=

    Nuclear Repulsion Energy =            288.2038072002820854
    One-Electron Energy =                -987.1191105135959560
    Two-Electron Energy =                 392.1277575485499938
    Total Energy =                       -306.7875457647638768
  Basis Set: (AUG-CC-PVTZ AUX)
    Blend: AUG-CC-PVTZ-RI
    Molecular point group: c1

    Geometry (in Angstrom), charge = 0, multiplicity = 1:

       Center              X                  Y                   Z               Mass
    ------------   -----------------  -----------------  -----------------  -----------------
         O           -1.823849813814     0.134920455929    -0.023405164631    15.994914619570
         C            1.067120586186    -0.085269644071     0.003444935369    12.000000000000
         C           -1.217326813814    -1.184538544071     0.016286835369    12.000000000000
         C            0.285300186186    -1.194584544071    -0.001691164631    12.000000000000
         C            0.326150186186     1.224551455929     0.017614835369    12.000000000000
         C            2.529254186186    -0.058525544071    -0.008110164631    12.000000000000
         C           -1.024081813814     1.238786455929    -0.000830164631    12.000000000000
         H           -1.623405813814    -1.730019544071    -0.845937164631     1.007825032230
         H           -1.603988813814    -1.677733544071     0.919364835369     1.007825032230
         H            0.755347186186    -2.176833544071    -0.012270164631     1.007825032230
         H            0.870410186186     2.162723455929     0.030845835369     1.007825032230
         H            2.924002186186     0.456607455929     0.874593835369     1.007825032230
         H            2.910852186186     0.468916455929    -0.889297164631     1.007825032230
         H            2.926111186186    -1.077249544071    -0.018116164631     1.007825032230
         H           -1.627292813814     2.141716455929    -0.005819164631     1.007825032230

  Basis Set: AUG-CC-PVTZ
    Blend: AUG-CC-PVTZ
  Basis Set: (AUG-CC-PVTZ AUX)
    Blend: AUG-CC-PVTZ-JKFIT
	 Reference Energy          =    -306.7875457647638768 [Eh]
	 Singles Energy            =      -0.0000000000000000 [Eh]
	 Same-Spin Energy          =      -0.3154367684076383 [Eh]
	 Opposite-Spin Energy      =      -1.0408318934564917 [Eh]
	 Correlation Energy        =      -1.3562686618641302 [Eh]
	 Total Energy              =    -308.1438144266280119 [Eh]

	 ================> DF-SCS-MP2 Energies <==================
	-----------------------------------------------------------
	 SCS Same-Spin Scale       =       0.3333333333333333 [-]
	 SCS Opposite-Spin Scale   =       1.2000000000000000 [-]
	 SCS Same-Spin Energy      =      -0.1051455894692128 [Eh]
	 SCS Opposite-Spin Energy  =      -1.2489982721477901 [Eh]
	 SCS Correlation Energy    =      -1.3541438616170030 [Eh]
	 SCS Total Energy          =    -308.1416896263808667 [Eh]
	-----------------------------------------------------------

  Dipole Moment: [D]
     X:     0.9779      Y:    -0.5690      Z:     0.0321     Total:     1.1319

*** Psi4 exiting successfully. Buy a developer a beer!
