                               Psi4 1.4a3.dev225

  ==> Input File <==

--------------------------------------------------------------------------
#psi4
#
memory 32 gb

molecule  {
0 1
  O       -1.8720150     0.1455040    -0.0239620
  C        0.9797650    -0.0480790     0.0033120
  C       -1.2654920    -1.1739550     0.0157300
  C        0.2371350    -1.1840010    -0.0022480
  C        0.2683889     1.2526815     0.0172460
  C        2.4810890    -0.0479420    -0.0086670
  C       -1.0722470     1.2493700    -0.0013870
  H       -1.6715710    -1.7194360    -0.8464940
  H       -1.6521540    -1.6671500     0.9188080
  H        0.7071820    -2.1662500    -0.0128270
  H        0.8222450     2.1733070     0.0302890
  H        2.8758370     0.4671910     0.8740370
  H        2.8626870     0.4795000    -0.8898540
  H        2.8779460    -1.0666660    -0.0186730
  H       -1.6754580     2.1523000    -0.0063760
units angstrom
no_reorient  #important for SAPT in psi4, default
symmetry c1  #important for SAPT in psi4, default
}

set PROPERTIES_ORIGIN ["COM"]
properties('MP2/aug-cc-pvtz', properties = ['dipole'])
--------------------------------------------------------------------------

    Molecular point group: c1
  Charge       = 0
  Multiplicity = 1
  Basis Set: AUG-CC-PVTZ
    Blend: AUG-CC-PVTZ
  Basis Set: (AUG-CC-PVTZ AUX)
    Blend: AUG-CC-PVTZ-JKFIT

    Orbital Energies [Eh]
    ---------------------

    Doubly Occupied:

       1A    -20.583733     2A    -11.298096     3A    -11.291761
       4A    -11.248031     5A    -11.226718     6A    -11.226295
       7A    -11.217621     8A     -1.398537     9A     -1.103854
      10A     -1.035984    11A     -0.972646    12A     -0.876936
      13A     -0.824614    14A     -0.694425    15A     -0.672561
      16A     -0.658944    17A     -0.649740    18A     -0.586234
      19A     -0.572724    20A     -0.556623    21A     -0.554742
      22A     -0.511410    23A     -0.502269    24A     -0.468584
      25A     -0.408845    26A     -0.288095

  @DF-RHF Final Energy:  -306.79016120920460

   => Energetics <=

    Nuclear Repulsion Energy =            288.3480156203928573
    One-Electron Energy =                -987.4163082392803972
    Two-Electron Energy =                 392.2781314096829419
    Total Energy =                       -306.7901612092045980
  Basis Set: (AUG-CC-PVTZ AUX)
    Blend: AUG-CC-PVTZ-RI
    Molecular point group: c1

    Geometry (in Angstrom), charge = 0, multiplicity = 1:

       Center              X                  Y                   Z               Mass
    ------------   -----------------  -----------------  -----------------  -----------------
         O           -1.817755152707     0.129404560575    -0.023481606333    15.994914619570
         C            1.034024847293    -0.064178439425     0.003792393667    12.000000000000
         C           -1.211232152707    -1.190054439425     0.016210393667    12.000000000000
         C            0.291394847293    -1.200100439425    -0.001767606333    12.000000000000
         C            0.322648747293     1.236582060575     0.017726393667    12.000000000000
         C            2.535348847293    -0.064041439425    -0.008186606333    12.000000000000
         C           -1.017987152707     1.233270560575    -0.000906606333    12.000000000000
         H           -1.617311152707    -1.735535439425    -0.846013606333     1.007825032230
         H           -1.597894152707    -1.683249439425     0.919288393667     1.007825032230
         H            0.761441847293    -2.182349439425    -0.012346606333     1.007825032230
         H            0.876504847293     2.157207560575     0.030769393667     1.007825032230
         H            2.930096847293     0.451091560575     0.874517393667     1.007825032230
         H            2.916946847293     0.463400560575    -0.889373606333     1.007825032230
         H            2.932205847293    -1.082765439425    -0.018192606333     1.007825032230
         H           -1.621198152707     2.136200560575    -0.005895606333     1.007825032230

  Basis Set: AUG-CC-PVTZ
    Blend: AUG-CC-PVTZ
  Basis Set: (AUG-CC-PVTZ AUX)
    Blend: AUG-CC-PVTZ-JKFIT
	 Reference Energy          =    -306.7901612092045980 [Eh]
	 Singles Energy            =      -0.0000000000000000 [Eh]
	 Same-Spin Energy          =      -0.3152096366256693 [Eh]
	 Opposite-Spin Energy      =      -1.0403286121494313 [Eh]
	 Correlation Energy        =      -1.3555382487751007 [Eh]
	 Total Energy              =    -308.1456994579796742 [Eh]

	 ================> DF-SCS-MP2 Energies <==================
	-----------------------------------------------------------
	 SCS Same-Spin Scale       =       0.3333333333333333 [-]
	 SCS Opposite-Spin Scale   =       1.2000000000000000 [-]
	 SCS Same-Spin Energy      =      -0.1050698788752231 [Eh]
	 SCS Opposite-Spin Energy  =      -1.2483943345793176 [Eh]
	 SCS Correlation Energy    =      -1.3534642134545407 [Eh]
	 SCS Total Energy          =    -308.1436254226591132 [Eh]
	-----------------------------------------------------------

  Dipole Moment: [D]
     X:     0.9331      Y:    -0.5289      Z:     0.0330     Total:     1.0731

*** Psi4 exiting successfully. Buy a developer a beer!
