                               Psi4 1.4a3.dev225

  ==> Input File <==

--------------------------------------------------------------------------
#psi4
#
memory 32 gb

molecule  {
0 1
  O       -1.8720150     0.1455040    -0.0239620
  C        0.9797650    -0.0480790     0.0033120
  C       -1.2654920    -1.1739550     0.0157300
  C        0.2644950    -1.1421514    -0.0020432
  C        0.2779850     1.2351350     0.0170580
  C        2.4810890    -0.0479420    -0.0086670
  C       -1.0722470     1.2493700    -0.0013870
  H       -1.6715710    -1.7194360    -0.8464940
  H       -1.6521540    -1.6671500     0.9188080
  H        0.7071820    -2.1662500    -0.0128270
  H        0.8222450     2.1733070     0.0302890
  H        2.8758370     0.4671910     0.8740370
  H        2.8626870     0.4795000    -0.8898540
  H        2.8779460    -1.0666660    -0.0186730
  H       -1.6754580     2.1523000    -0.0063760
units angstrom
no_reorient  #important for SAPT in psi4, default
symmetry c1  #important for SAPT in psi4, default
}

set PROPERTIES_ORIGIN ["COM"]
properties('MP2/aug-cc-pvtz', properties = ['dipole'])
--------------------------------------------------------------------------

    Molecular point group: c1
  Charge       = 0
  Multiplicity = 1
  Basis Set: AUG-CC-PVTZ
    Blend: AUG-CC-PVTZ
  Basis Set: (AUG-CC-PVTZ AUX)
    Blend: AUG-CC-PVTZ-JKFIT

    Orbital Energies [Eh]
    ---------------------

    Doubly Occupied:

       1A    -20.582284     2A    -11.298949     3A    -11.293430
       4A    -11.238815     5A    -11.225344     6A    -11.224238
       7A    -11.217372     8A     -1.397781     9A     -1.113025
      10A     -1.031596    11A     -0.969894    12A     -0.882636
      13A     -0.823964    14A     -0.693163    15A     -0.671323
      16A     -0.657583    17A     -0.648895    18A     -0.584152
      19A     -0.573322    20A     -0.559168    21A     -0.549039
      22A     -0.509970    23A     -0.508509    24A     -0.459864
      25A     -0.416141    26A     -0.291309

  @DF-RHF Final Energy:  -306.78929342969582

   => Energetics <=

    Nuclear Repulsion Energy =            289.1093874733276152
    One-Electron Energy =                -988.9538279303857280
    Two-Electron Energy =                 393.0551470273622954
    Total Energy =                       -306.7892934296958174
  Basis Set: (AUG-CC-PVTZ AUX)
    Blend: AUG-CC-PVTZ-RI
    Molecular point group: c1

    Geometry (in Angstrom), charge = 0, multiplicity = 1:

       Center              X                  Y                   Z               Mass
    ------------   -----------------  -----------------  -----------------  -----------------
         O           -1.822371899252     0.126368492024    -0.023483705076    15.994914619570
         C            1.029408100748    -0.067214507976     0.003790294924    12.000000000000
         C           -1.215848899252    -1.193090507976     0.016208294924    12.000000000000
         C            0.314138100748    -1.161286907976    -0.001564905076    12.000000000000
         C            0.327628100748     1.215999492024     0.017536294924    12.000000000000
         C            2.530732100748    -0.067077507976    -0.008188705076    12.000000000000
         C           -1.022603899252     1.230234492024    -0.000908705076    12.000000000000
         H           -1.621927899252    -1.738571507976    -0.846015705076     1.007825032230
         H           -1.602510899252    -1.686285507976     0.919286294924     1.007825032230
         H            0.756825100748    -2.185385507976    -0.012348705076     1.007825032230
         H            0.871888100748     2.154171492024     0.030767294924     1.007825032230
         H            2.925480100748     0.448055492024     0.874515294924     1.007825032230
         H            2.912330100748     0.460364492024    -0.889375705076     1.007825032230
         H            2.927589100748    -1.085801507976    -0.018194705076     1.007825032230
         H           -1.625814899252     2.133164492024    -0.005897705076     1.007825032230

  Basis Set: AUG-CC-PVTZ
    Blend: AUG-CC-PVTZ
  Basis Set: (AUG-CC-PVTZ AUX)
    Blend: AUG-CC-PVTZ-JKFIT
	 Reference Energy          =    -306.7892934296958174 [Eh]
	 Singles Energy            =      -0.0000000000000000 [Eh]
	 Same-Spin Energy          =      -0.3149699145839756 [Eh]
	 Opposite-Spin Energy      =      -1.0396803739064107 [Eh]
	 Correlation Energy        =      -1.3546502884903862 [Eh]
	 Total Energy              =    -308.1439437181862218 [Eh]

	 ================> DF-SCS-MP2 Energies <==================
	-----------------------------------------------------------
	 SCS Same-Spin Scale       =       0.3333333333333333 [-]
	 SCS Opposite-Spin Scale   =       1.2000000000000000 [-]
	 SCS Same-Spin Energy      =      -0.1049899715279919 [Eh]
	 SCS Opposite-Spin Energy  =      -1.2476164486876928 [Eh]
	 SCS Correlation Energy    =      -1.3526064202156847 [Eh]
	 SCS Total Energy          =    -308.1418998499115105 [Eh]
	-----------------------------------------------------------

  Dipole Moment: [D]
     X:     0.8873      Y:    -0.5487      Z:     0.0329     Total:     1.0438

*** Psi4 exiting successfully. Buy a developer a beer!
