                               Psi4 1.4a3.dev225

  ==> Input File <==

--------------------------------------------------------------------------
#psi4
#
memory 32 gb

molecule  {
0 1
  O       -1.8720150     0.1455040    -0.0239620
  C        0.9797650    -0.0480790     0.0033120
  C       -1.2654920    -1.1739550     0.0157300
  C        0.2918549    -1.1003018    -0.0018383
  C        0.2779850     1.2351350     0.0170580
  C        2.4810890    -0.0479420    -0.0086670
  C       -1.0722470     1.2493700    -0.0013870
  H       -1.6715710    -1.7194360    -0.8464940
  H       -1.6521540    -1.6671500     0.9188080
  H        0.7071820    -2.1662500    -0.0128270
  H        0.8222450     2.1733070     0.0302890
  H        2.8758370     0.4671910     0.8740370
  H        2.8626870     0.4795000    -0.8898540
  H        2.8779460    -1.0666660    -0.0186730
  H       -1.6754580     2.1523000    -0.0063760
units angstrom
no_reorient  #important for SAPT in psi4, default
symmetry c1  #important for SAPT in psi4, default
}

set PROPERTIES_ORIGIN ["COM"]
properties('MP2/aug-cc-pvtz', properties = ['dipole'])
--------------------------------------------------------------------------

    Molecular point group: c1
  Charge       = 0
  Multiplicity = 1
  Basis Set: AUG-CC-PVTZ
    Blend: AUG-CC-PVTZ
  Basis Set: (AUG-CC-PVTZ AUX)
    Blend: AUG-CC-PVTZ-JKFIT

    Orbital Energies [Eh]
    ---------------------

    Doubly Occupied:

       1A    -20.580829     2A    -11.297924     3A    -11.295083
       4A    -11.230436     5A    -11.224683     6A    -11.221846
       7A    -11.216728     8A     -1.396796     9A     -1.121577
      10A     -1.028959    11A     -0.967922    12A     -0.889421
      13A     -0.820292    14A     -0.692729    15A     -0.670312
      16A     -0.656111    17A     -0.648167    18A     -0.583328
      19A     -0.574093    20A     -0.560724    21A     -0.545413
      22A     -0.512389    23A     -0.508646    24A     -0.448936
      25A     -0.423370    26A     -0.296813

  @DF-RHF Final Energy:  -306.77996448869987

   => Energetics <=

    Nuclear Repulsion Energy =            289.7306813376706600
    One-Electron Energy =                -990.1942423190804448
    Two-Electron Energy =                 393.6835964927098530
    Total Energy =                       -306.7799644886998749
  Basis Set: (AUG-CC-PVTZ AUX)
    Blend: AUG-CC-PVTZ-RI
    Molecular point group: c1

    Geometry (in Angstrom), charge = 0, multiplicity = 1:

       Center              X                  Y                   Z               Mass
    ------------   -----------------  -----------------  -----------------  -----------------
         O           -1.825789839019     0.121140424229    -0.023509302240    15.994914619570
         C            1.025990160981    -0.072442575771     0.003764697760    12.000000000000
         C           -1.219266839019    -1.198318575771     0.016182697760    12.000000000000
         C            0.338080060981    -1.124665375771    -0.001385602240    12.000000000000
         C            0.324210160981     1.210771424229     0.017510697760    12.000000000000
         C            2.527314160981    -0.072305575771    -0.008214302240    12.000000000000
         C           -1.026021839019     1.225006424229    -0.000934302240    12.000000000000
         H           -1.625345839019    -1.743799575771    -0.846041302240     1.007825032230
         H           -1.605928839019    -1.691513575771     0.919260697760     1.007825032230
         H            0.753407160981    -2.190613575771    -0.012374302240     1.007825032230
         H            0.868470160981     2.148943424229     0.030741697760     1.007825032230
         H            2.922062160981     0.442827424229     0.874489697760     1.007825032230
         H            2.908912160981     0.455136424229    -0.889401302240     1.007825032230
         H            2.924171160981    -1.091029575771    -0.018220302240     1.007825032230
         H           -1.629232839019     2.127936424229    -0.005923302240     1.007825032230

  Basis Set: AUG-CC-PVTZ
    Blend: AUG-CC-PVTZ
  Basis Set: (AUG-CC-PVTZ AUX)
    Blend: AUG-CC-PVTZ-JKFIT
	 Reference Energy          =    -306.7799644886998749 [Eh]
	 Singles Energy            =      -0.0000000000000000 [Eh]
	 Same-Spin Energy          =      -0.3145662115519416 [Eh]
	 Opposite-Spin Energy      =      -1.0389420780111358 [Eh]
	 Correlation Energy        =      -1.3535082895630774 [Eh]
	 Total Energy              =    -308.1334727782629557 [Eh]

	 ================> DF-SCS-MP2 Energies <==================
	-----------------------------------------------------------
	 SCS Same-Spin Scale       =       0.3333333333333333 [-]
	 SCS Opposite-Spin Scale   =       1.2000000000000000 [-]
	 SCS Same-Spin Energy      =      -0.1048554038506472 [Eh]
	 SCS Opposite-Spin Energy  =      -1.2467304936133630 [Eh]
	 SCS Correlation Energy    =      -1.3515858974640103 [Eh]
	 SCS Total Energy          =    -308.1315503861638945 [Eh]
	-----------------------------------------------------------

  Dipole Moment: [D]
     X:     0.8655      Y:    -0.5730      Z:     0.0332     Total:     1.0385

*** Psi4 exiting successfully. Buy a developer a beer!
