                               Psi4 1.4a3.dev225

  ==> Input File <==

--------------------------------------------------------------------------
#psi4
#
memory 32 gb

molecule  {
0 1
  O       -1.7522409     0.0679326    -0.0231250
  C        0.9797650    -0.0480790     0.0033120
  C       -1.2654920    -1.1739550     0.0157300
  C        0.2371350    -1.1840010    -0.0022480
  C        0.2779850     1.2351350     0.0170580
  C        2.4810890    -0.0479420    -0.0086670
  C       -1.0722470     1.2493700    -0.0013870
  H       -1.6715710    -1.7194360    -0.8464940
  H       -1.6521540    -1.6671500     0.9188080
  H        0.7071820    -2.1662500    -0.0128270
  H        0.8222450     2.1733070     0.0302890
  H        2.8758370     0.4671910     0.8740370
  H        2.8626870     0.4795000    -0.8898540
  H        2.8779460    -1.0666660    -0.0186730
  H       -1.6754580     2.1523000    -0.0063760
units angstrom
no_reorient  #important for SAPT in psi4, default
symmetry c1  #important for SAPT in psi4, default
}

set PROPERTIES_ORIGIN ["COM"]
properties('MP2/aug-cc-pvtz', properties = ['dipole'])
--------------------------------------------------------------------------

    Molecular point group: c1
  Charge       = 0
  Multiplicity = 1
  Basis Set: AUG-CC-PVTZ
    Blend: AUG-CC-PVTZ
  Basis Set: (AUG-CC-PVTZ AUX)
    Blend: AUG-CC-PVTZ-JKFIT

    Orbital Energies [Eh]
    ---------------------

    Doubly Occupied:

       1A    -20.573774     2A    -11.303980     3A    -11.282662
       4A    -11.244002     5A    -11.224900     6A    -11.222593
       7A    -11.219485     8A     -1.429346     9A     -1.103401
      10A     -1.048274    11A     -0.966968    12A     -0.881525
      13A     -0.828737    14A     -0.705175    15A     -0.682031
      16A     -0.668925    17A     -0.658237    18A     -0.597947
      19A     -0.572014    20A     -0.559520    21A     -0.550613
      22A     -0.505181    23A     -0.497078    24A     -0.453939
      25A     -0.408549    26A     -0.283430

  @DF-RHF Final Energy:  -306.78177606965579

   => Energetics <=

    Nuclear Repulsion Energy =            291.8110679660690607
    One-Electron Energy =                -994.2411156819928237
    Two-Electron Energy =                 395.6482716462680287
    Total Energy =                       -306.7817760696557912
  Basis Set: (AUG-CC-PVTZ AUX)
    Blend: AUG-CC-PVTZ-RI
    Molecular point group: c1

    Geometry (in Angstrom), charge = 0, multiplicity = 1:

       Center              X                  Y                   Z               Mass
    ------------   -----------------  -----------------  -----------------  -----------------
         O           -1.719123903484     0.066941878740    -0.022760492566    15.994914619570
         C            1.012881996516    -0.049069721260     0.003676507434    12.000000000000
         C           -1.232375003484    -1.174945721260     0.016094507434    12.000000000000
         C            0.270251996516    -1.184991721260    -0.001883492566    12.000000000000
         C            0.311101996516     1.234144278740     0.017422507434    12.000000000000
         C            2.514205996516    -0.048932721260    -0.008302492566    12.000000000000
         C           -1.039130003484     1.248379278740    -0.001022492566    12.000000000000
         H           -1.638454003484    -1.720426721260    -0.846129492566     1.007825032230
         H           -1.619037003484    -1.668140721260     0.919172507434     1.007825032230
         H            0.740298996516    -2.167240721260    -0.012462492566     1.007825032230
         H            0.855361996516     2.172316278740     0.030653507434     1.007825032230
         H            2.908953996516     0.466200278740     0.874401507434     1.007825032230
         H            2.895803996516     0.478509278740    -0.889489492566     1.007825032230
         H            2.911062996516    -1.067656721260    -0.018308492566     1.007825032230
         H           -1.642341003484     2.151309278740    -0.006011492566     1.007825032230

  Basis Set: AUG-CC-PVTZ
    Blend: AUG-CC-PVTZ
  Basis Set: (AUG-CC-PVTZ AUX)
    Blend: AUG-CC-PVTZ-JKFIT
	 Reference Energy          =    -306.7817760696557912 [Eh]
	 Singles Energy            =      -0.0000000000000000 [Eh]
	 Same-Spin Energy          =      -0.3153438779247500 [Eh]
	 Opposite-Spin Energy      =      -1.0383564689507354 [Eh]
	 Correlation Energy        =      -1.3537003468754856 [Eh]
	 Total Energy              =    -308.1354764165312758 [Eh]

	 ================> DF-SCS-MP2 Energies <==================
	-----------------------------------------------------------
	 SCS Same-Spin Scale       =       0.3333333333333333 [-]
	 SCS Opposite-Spin Scale   =       1.2000000000000000 [-]
	 SCS Same-Spin Energy      =      -0.1051146259749167 [Eh]
	 SCS Opposite-Spin Energy  =      -1.2460277627408824 [Eh]
	 SCS Correlation Energy    =      -1.3511423887157992 [Eh]
	 SCS Total Energy          =    -308.1329184583715914 [Eh]
	-----------------------------------------------------------

  Dipole Moment: [D]
     X:     0.7225      Y:    -0.1395      Z:     0.0226     Total:     0.7362

*** Psi4 exiting successfully. Buy a developer a beer!
