                               Psi4 1.4a3.dev225

  ==> Input File <==

--------------------------------------------------------------------------
#psi4
#
memory 32 gb

molecule  {
0 1
  O       -1.8526268     0.1317109    -0.0238395
  C        0.9797650    -0.0480790     0.0033120
  C       -1.2654920    -1.1739550     0.0157300
  C        0.2371350    -1.1840010    -0.0022480
  C        0.2779850     1.2351350     0.0170580
  C        2.4810890    -0.0479420    -0.0086670
  C       -1.0722470     1.2493700    -0.0013870
  H       -1.6715710    -1.7194360    -0.8464940
  H       -1.6521540    -1.6671500     0.9188080
  H        0.7071820    -2.1662500    -0.0128270
  H        0.8222450     2.1733070     0.0302890
  H        2.8758370     0.4671910     0.8740370
  H        2.8626870     0.4795000    -0.8898540
  H        2.8779460    -1.0666660    -0.0186730
  H       -1.6754580     2.1523000    -0.0063760
units angstrom
no_reorient  #important for SAPT in psi4, default
symmetry c1  #important for SAPT in psi4, default
}

set PROPERTIES_ORIGIN ["COM"]
properties('MP2/aug-cc-pvtz', properties = ['dipole'])
--------------------------------------------------------------------------

    Molecular point group: c1
  Charge       = 0
  Multiplicity = 1
  Basis Set: AUG-CC-PVTZ
    Blend: AUG-CC-PVTZ
  Basis Set: (AUG-CC-PVTZ AUX)
    Blend: AUG-CC-PVTZ-JKFIT

    Orbital Energies [Eh]
    ---------------------

    Doubly Occupied:

       1A    -20.582354     2A    -11.300631     3A    -11.290183
       4A    -11.246338     5A    -11.225911     6A    -11.225831
       7A    -11.218351     8A     -1.403386     9A     -1.105470
      10A     -1.036740    11A     -0.971164    12A     -0.876967
      13A     -0.827609    14A     -0.695535    15A     -0.674305
      16A     -0.658490    17A     -0.652413    18A     -0.587174
      19A     -0.572729    20A     -0.558789    21A     -0.552147
      22A     -0.508943    23A     -0.504050    24A     -0.467728
      25A     -0.409978    26A     -0.285102

  @DF-RHF Final Energy:  -306.79038853562798

   => Energetics <=

    Nuclear Repulsion Energy =            289.0598347941250381
    One-Electron Energy =                -988.8238125949281994
    Two-Electron Energy =                 392.9735892651751215
    Total Energy =                       -306.7903885356279829
  Basis Set: (AUG-CC-PVTZ AUX)
    Blend: AUG-CC-PVTZ-RI
    Molecular point group: c1

    Geometry (in Angstrom), charge = 0, multiplicity = 1:

       Center              X                  Y                   Z               Mass
    ------------   -----------------  -----------------  -----------------  -----------------
         O           -1.802794152434     0.120100203152    -0.023356018361    15.994914619570
         C            1.029597647566    -0.059689696848     0.003795481639    12.000000000000
         C           -1.215659352434    -1.185565696848     0.016213481639    12.000000000000
         C            0.286967647566    -1.195611696848    -0.001764518361    12.000000000000
         C            0.327817647566     1.223524303152     0.017541481639    12.000000000000
         C            2.530921647566    -0.059552696848    -0.008183518361    12.000000000000
         C           -1.022414352434     1.237759303152    -0.000903518361    12.000000000000
         H           -1.621738352434    -1.731046696848    -0.846010518361     1.007825032230
         H           -1.602321352434    -1.678760696848     0.919291481639     1.007825032230
         H            0.757014647566    -2.177860696848    -0.012343518361     1.007825032230
         H            0.872077647566     2.161696303152     0.030772481639     1.007825032230
         H            2.925669647566     0.455580303152     0.874520481639     1.007825032230
         H            2.912519647566     0.467889303152    -0.889370518361     1.007825032230
         H            2.927778647566    -1.078276696848    -0.018189518361     1.007825032230
         H           -1.625625352434     2.140689303152    -0.005892518361     1.007825032230

  Basis Set: AUG-CC-PVTZ
    Blend: AUG-CC-PVTZ
  Basis Set: (AUG-CC-PVTZ AUX)
    Blend: AUG-CC-PVTZ-JKFIT
	 Reference Energy          =    -306.7903885356279829 [Eh]
	 Singles Energy            =      -0.0000000000000000 [Eh]
	 Same-Spin Energy          =      -0.3154863399143241 [Eh]
	 Opposite-Spin Energy      =      -1.0402550415843770 [Eh]
	 Correlation Energy        =      -1.3557413814987012 [Eh]
	 Total Energy              =    -308.1461299171267001 [Eh]

	 ================> DF-SCS-MP2 Energies <==================
	-----------------------------------------------------------
	 SCS Same-Spin Scale       =       0.3333333333333333 [-]
	 SCS Opposite-Spin Scale   =       1.2000000000000000 [-]
	 SCS Same-Spin Energy      =      -0.1051621133047747 [Eh]
	 SCS Opposite-Spin Energy  =      -1.2483060499012524 [Eh]
	 SCS Correlation Energy    =      -1.3534681632060270 [Eh]
	 SCS Total Energy          =    -308.1438566988339858 [Eh]
	-----------------------------------------------------------

  Dipole Moment: [D]
     X:     0.8782      Y:    -0.4610      Z:     0.0312     Total:     0.9923

*** Psi4 exiting successfully. Buy a developer a beer!
