                               Psi4 1.4a3.dev225

  ==> Input File <==

--------------------------------------------------------------------------
#psi4
#
memory 32 gb

molecule  {
0 1
  O       -1.7921243     0.1772390     0.1014674
  C        0.9797650    -0.0480790     0.0033120
  C       -1.2654920    -1.1739550     0.0157300
  C        0.2371350    -1.1840010    -0.0022480
  C        0.2779850     1.2351350     0.0170580
  C        2.4810890    -0.0479420    -0.0086670
  C       -1.0722470     1.2493700    -0.0013870
  H       -1.6715710    -1.7194360    -0.8464940
  H       -1.6521540    -1.6671500     0.9188080
  H        0.7071820    -2.1662500    -0.0128270
  H        0.8222450     2.1733070     0.0302890
  H        2.8758370     0.4671910     0.8740370
  H        2.8626870     0.4795000    -0.8898540
  H        2.8779460    -1.0666660    -0.0186730
  H       -1.6754580     2.1523000    -0.0063760
units angstrom
no_reorient  #important for SAPT in psi4, default
symmetry c1  #important for SAPT in psi4, default
}

set PROPERTIES_ORIGIN ["COM"]
properties('MP2/aug-cc-pvtz', properties = ['dipole'])
--------------------------------------------------------------------------

    Molecular point group: c1
  Charge       = 0
  Multiplicity = 1
  Basis Set: AUG-CC-PVTZ
    Blend: AUG-CC-PVTZ
  Basis Set: (AUG-CC-PVTZ AUX)
    Blend: AUG-CC-PVTZ-JKFIT

    Orbital Energies [Eh]
    ---------------------

    Doubly Occupied:

       1A    -20.584751     2A    -11.297874     3A    -11.296935
       4A    -11.245365     5A    -11.224120     6A    -11.222148
       7A    -11.207403     8A     -1.427596     9A     -1.102316
      10A     -1.041364    11A     -0.969204    12A     -0.880180
      13A     -0.826924    14A     -0.704165    15A     -0.682378
      16A     -0.658154    17A     -0.654094    18A     -0.592606
      19A     -0.570763    20A     -0.556593    21A     -0.548554
      22A     -0.524678    23A     -0.504817    24A     -0.460599
      25A     -0.404040    26A     -0.279410

  @DF-RHF Final Energy:  -306.78704438404344

   => Energetics <=

    Nuclear Repulsion Energy =            290.5190641731065284
    One-Electron Energy =                -991.6781592183773455
    Two-Electron Energy =                 394.3720506612273198
    Total Energy =                       -306.7870443840434405
  Basis Set: (AUG-CC-PVTZ AUX)
    Blend: AUG-CC-PVTZ-RI
    Molecular point group: c1

    Geometry (in Angstrom), charge = 0, multiplicity = 1:

       Center              X                  Y                   Z               Mass
    ------------   -----------------  -----------------  -----------------  -----------------
         O           -1.752366161679     0.158047240148     0.081085536858    15.994914619570
         C            1.019523138321    -0.067270759852    -0.017069863142    12.000000000000
         C           -1.225733861679    -1.193146759852    -0.004651863142    12.000000000000
         C            0.276893138321    -1.203192759852    -0.022629863142    12.000000000000
         C            0.317743138321     1.215943240148    -0.003323863142    12.000000000000
         C            2.520847138321    -0.067133759852    -0.029048863142    12.000000000000
         C           -1.032488861679     1.230178240148    -0.021768863142    12.000000000000
         H           -1.631812861679    -1.738627759852    -0.866875863142     1.007825032230
         H           -1.612395861679    -1.686341759852     0.898426136858     1.007825032230
         H            0.746940138321    -2.185441759852    -0.033208863142     1.007825032230
         H            0.862003138321     2.154115240148     0.009907136858     1.007825032230
         H            2.915595138321     0.447999240148     0.853655136858     1.007825032230
         H            2.902445138321     0.460308240148    -0.910235863142     1.007825032230
         H            2.917704138321    -1.085857759852    -0.039054863142     1.007825032230
         H           -1.635699861679     2.133108240148    -0.026757863142     1.007825032230

  Basis Set: AUG-CC-PVTZ
    Blend: AUG-CC-PVTZ
  Basis Set: (AUG-CC-PVTZ AUX)
    Blend: AUG-CC-PVTZ-JKFIT
	 Reference Energy          =    -306.7870443840434405 [Eh]
	 Singles Energy            =      -0.0000000000000000 [Eh]
	 Same-Spin Energy          =      -0.3156004282578162 [Eh]
	 Opposite-Spin Energy      =      -1.0387727750564717 [Eh]
	 Correlation Energy        =      -1.3543732033142879 [Eh]
	 Total Energy              =    -308.1414175873577506 [Eh]

	 ================> DF-SCS-MP2 Energies <==================
	-----------------------------------------------------------
	 SCS Same-Spin Scale       =       0.3333333333333333 [-]
	 SCS Opposite-Spin Scale   =       1.2000000000000000 [-]
	 SCS Same-Spin Energy      =      -0.1052001427526054 [Eh]
	 SCS Opposite-Spin Energy  =      -1.2465273300677659 [Eh]
	 SCS Correlation Energy    =      -1.3517274728203714 [Eh]
	 SCS Total Energy          =    -308.1387718568637979 [Eh]
	-----------------------------------------------------------

  Dipole Moment: [D]
     X:     0.5240      Y:    -0.7074      Z:    -0.0725     Total:     0.8833

*** Psi4 exiting successfully. Buy a developer a beer!
