                               Psi4 1.4a3.dev225

  ==> Input File <==

--------------------------------------------------------------------------
#psi4
#
memory 32 gb

molecule  {
0 1
  O       -1.9100547     0.1740946    -0.0241864
  C        0.9797650    -0.0480790     0.0033120
  C       -1.2654920    -1.1739550     0.0157300
  C        0.2371350    -1.1840010    -0.0022480
  C        0.2779850     1.2351350     0.0170580
  C        2.4810890    -0.0479420    -0.0086670
  C       -1.0722470     1.2493700    -0.0013870
  H       -1.6715710    -1.7194360    -0.8464940
  H       -1.6521540    -1.6671500     0.9188080
  H        0.7071820    -2.1662500    -0.0128270
  H        0.8222450     2.1733070     0.0302890
  H        2.8758370     0.4671910     0.8740370
  H        2.8626870     0.4795000    -0.8898540
  H        2.8779460    -1.0666660    -0.0186730
  H       -1.6754580     2.1523000    -0.0063760
units angstrom
no_reorient  #important for SAPT in psi4, default
symmetry c1  #important for SAPT in psi4, default
}

set PROPERTIES_ORIGIN ["COM"]
properties('MP2/aug-cc-pvtz', properties = ['dipole'])
--------------------------------------------------------------------------

    Molecular point group: c1
  Charge       = 0
  Multiplicity = 1
  Basis Set: AUG-CC-PVTZ
    Blend: AUG-CC-PVTZ
  Basis Set: (AUG-CC-PVTZ AUX)
    Blend: AUG-CC-PVTZ-JKFIT

    Orbital Energies [Eh]
    ---------------------

    Doubly Occupied:

       1A    -20.586632     2A    -11.299262     3A    -11.295337
       4A    -11.247727     5A    -11.227646     6A    -11.226553
       7A    -11.218031     8A     -1.390441     9A     -1.107135
      10A     -1.031059    11A     -0.973587    12A     -0.874958
      13A     -0.826148    14A     -0.691272    15A     -0.673003
      16A     -0.655534    17A     -0.644671    18A     -0.584146
      19A     -0.573161    20A     -0.554750    21A     -0.552736
      22A     -0.515576    23A     -0.504033    24A     -0.471719
      25A     -0.410535    26A     -0.286245

  @DF-RHF Final Energy:  -306.78640333338842

   => Energetics <=

    Nuclear Repulsion Energy =            287.5093808182262478
    One-Electron Energy =                -985.7477736294505348
    Two-Electron Energy =                 391.4519894778358093
    Total Energy =                       -306.7864033333884208
  Basis Set: (AUG-CC-PVTZ AUX)
    Blend: AUG-CC-PVTZ-RI
    Molecular point group: c1

    Geometry (in Angstrom), charge = 0, multiplicity = 1:

       Center              X                  Y                   Z               Mass
    ------------   -----------------  -----------------  -----------------  -----------------
         O           -1.850659506927     0.155426426559    -0.023645154677    15.994914619570
         C            1.039160193073    -0.066747173441     0.003853245323    12.000000000000
         C           -1.206096806927    -1.192623173441     0.016271245323    12.000000000000
         C            0.296530193073    -1.202669173441    -0.001706754677    12.000000000000
         C            0.337380193073     1.216466826559     0.017599245323    12.000000000000
         C            2.540484193073    -0.066610173441    -0.008125754677    12.000000000000
         C           -1.012851806927     1.230701826559    -0.000845754677    12.000000000000
         H           -1.612175806927    -1.738104173441    -0.845952754677     1.007825032230
         H           -1.592758806927    -1.685818173441     0.919349245323     1.007825032230
         H            0.766577193073    -2.184918173441    -0.012285754677     1.007825032230
         H            0.881640193073     2.154638826559     0.030830245323     1.007825032230
         H            2.935232193073     0.448522826559     0.874578245323     1.007825032230
         H            2.922082193073     0.460831826559    -0.889312754677     1.007825032230
         H            2.937341193073    -1.085334173441    -0.018131754677     1.007825032230
         H           -1.616062806927     2.133631826559    -0.005834754677     1.007825032230

  Basis Set: AUG-CC-PVTZ
    Blend: AUG-CC-PVTZ
  Basis Set: (AUG-CC-PVTZ AUX)
    Blend: AUG-CC-PVTZ-JKFIT
	 Reference Energy          =    -306.7864033333884208 [Eh]
	 Singles Energy            =      -0.0000000000000000 [Eh]
	 Same-Spin Energy          =      -0.3159259547624826 [Eh]
	 Opposite-Spin Energy      =      -1.0420882058625116 [Eh]
	 Correlation Energy        =      -1.3580141606249942 [Eh]
	 Total Energy              =    -308.1444174940133962 [Eh]

	 ================> DF-SCS-MP2 Energies <==================
	-----------------------------------------------------------
	 SCS Same-Spin Scale       =       0.3333333333333333 [-]
	 SCS Opposite-Spin Scale   =       1.2000000000000000 [-]
	 SCS Same-Spin Energy      =      -0.1053086515874942 [Eh]
	 SCS Opposite-Spin Energy  =      -1.2505058470350139 [Eh]
	 SCS Correlation Energy    =      -1.3558144986225080 [Eh]
	 SCS Total Energy          =    -308.1422178320109424 [Eh]
	-----------------------------------------------------------

  Dipole Moment: [D]
     X:     0.9634      Y:    -0.6306      Z:     0.0350     Total:     1.1519

*** Psi4 exiting successfully. Buy a developer a beer!
