                               Psi4 1.4a3.dev225

  ==> Input File <==

--------------------------------------------------------------------------
#psi4
#
memory 32 gb

molecule  {
0 1
  O       -1.8720150     0.1455040    -0.0239620
  C        0.9797650    -0.0480790     0.0033120
  C       -1.2654920    -1.1739550     0.0157300
  C        0.2097750    -1.2258506    -0.0024528
  C        0.2779850     1.2351350     0.0170580
  C        2.4810890    -0.0479420    -0.0086670
  C       -1.0722470     1.2493700    -0.0013870
  H       -1.6715710    -1.7194360    -0.8464940
  H       -1.6521540    -1.6671500     0.9188080
  H        0.7071820    -2.1662500    -0.0128270
  H        0.8222450     2.1733070     0.0302890
  H        2.8758370     0.4671910     0.8740370
  H        2.8626870     0.4795000    -0.8898540
  H        2.8779460    -1.0666660    -0.0186730
  H       -1.6754580     2.1523000    -0.0063760
units angstrom
no_reorient  #important for SAPT in psi4, default
symmetry c1  #important for SAPT in psi4, default
}

set PROPERTIES_ORIGIN ["COM"]
properties('MP2/aug-cc-pvtz', properties = ['dipole'])
--------------------------------------------------------------------------

    Molecular point group: c1
  Charge       = 0
  Multiplicity = 1
  Basis Set: AUG-CC-PVTZ
    Blend: AUG-CC-PVTZ
  Basis Set: (AUG-CC-PVTZ AUX)
    Blend: AUG-CC-PVTZ-JKFIT

    Orbital Energies [Eh]
    ---------------------

    Doubly Occupied:

       1A    -20.585555     2A    -11.301426     3A    -11.290428
       4A    -11.254231     5A    -11.228580     6A    -11.226963
       7A    -11.219227     8A     -1.399999     9A     -1.100379
      10A     -1.038340    11A     -0.974109    12A     -0.870642
      13A     -0.829753    14A     -0.695220    15A     -0.676945
      16A     -0.656724    17A     -0.650723    18A     -0.588183
      19A     -0.572656    20A     -0.557063    21A     -0.554809
      22A     -0.512680    23A     -0.498252    24A     -0.477727
      25A     -0.405368    26A     -0.279394

  @DF-RHF Final Energy:  -306.78271263469037

   => Energetics <=

    Nuclear Repulsion Energy =            287.9984583931657198
    One-Electron Energy =                -986.6715899794004372
    Two-Electron Energy =                 391.8904189515443477
    Total Energy =                       -306.7827126346903697
  Basis Set: (AUG-CC-PVTZ AUX)
    Blend: AUG-CC-PVTZ-RI
    Molecular point group: c1

    Geometry (in Angstrom), charge = 0, multiplicity = 1:

       Center              X                  Y                   Z               Mass
    ------------   -----------------  -----------------  -----------------  -----------------
         O           -1.815535994734     0.136824627614    -0.023432535732    15.994914619570
         C            1.036244005266    -0.056758372386     0.003841464268    12.000000000000
         C           -1.209012994734    -1.182634372386     0.016259464268    12.000000000000
         C            0.266254005266    -1.234529972386    -0.001923335732    12.000000000000
         C            0.334464005266     1.226455627614     0.017587464268    12.000000000000
         C            2.537568005266    -0.056621372386    -0.008137535732    12.000000000000
         C           -1.015767994734     1.240690627614    -0.000857535732    12.000000000000
         H           -1.615091994734    -1.728115372386    -0.845964535732     1.007825032230
         H           -1.595674994734    -1.675829372386     0.919337464268     1.007825032230
         H            0.763661005266    -2.174929372386    -0.012297535732     1.007825032230
         H            0.878724005266     2.164627627614     0.030818464268     1.007825032230
         H            2.932316005266     0.458511627614     0.874566464268     1.007825032230
         H            2.919166005266     0.470820627614    -0.889324535732     1.007825032230
         H            2.934425005266    -1.075345372386    -0.018143535732     1.007825032230
         H           -1.618978994734     2.143620627614    -0.005846535732     1.007825032230

  Basis Set: AUG-CC-PVTZ
    Blend: AUG-CC-PVTZ
  Basis Set: (AUG-CC-PVTZ AUX)
    Blend: AUG-CC-PVTZ-JKFIT
	 Reference Energy          =    -306.7827126346903697 [Eh]
	 Singles Energy            =      -0.0000000000000000 [Eh]
	 Same-Spin Energy          =      -0.3164613954331465 [Eh]
	 Opposite-Spin Energy      =      -1.0423406930449048 [Eh]
	 Correlation Energy        =      -1.3588020884780514 [Eh]
	 Total Energy              =    -308.1415147231684273 [Eh]

	 ================> DF-SCS-MP2 Energies <==================
	-----------------------------------------------------------
	 SCS Same-Spin Scale       =       0.3333333333333333 [-]
	 SCS Opposite-Spin Scale   =       1.2000000000000000 [-]
	 SCS Same-Spin Energy      =      -0.1054871318110488 [Eh]
	 SCS Opposite-Spin Energy  =      -1.2508088316538857 [Eh]
	 SCS Correlation Energy    =      -1.3562959634649345 [Eh]
	 SCS Total Energy          =    -308.1390085981553284 [Eh]
	-----------------------------------------------------------

  Dipole Moment: [D]
     X:     0.9239      Y:    -0.4894      Z:     0.0322     Total:     1.0460

*** Psi4 exiting successfully. Buy a developer a beer!
