                               Psi4 1.4a3.dev225

  ==> Input File <==

--------------------------------------------------------------------------
#psi4
#
memory 32 gb

molecule  {
0 1
  O       -1.8720150     0.1455040    -0.0239620
  C        0.9797650    -0.0480790     0.0033120
  C       -1.2654920    -1.1739550     0.0157300
  C        0.2371350    -1.1840010    -0.0022480
  C        0.2779850     1.2351350     0.0170580
  C        2.4810890    -0.0479420    -0.0086670
  C       -0.9722619     1.2483159    -0.0000211
  H       -1.6715710    -1.7194360    -0.8464940
  H       -1.6521540    -1.6671500     0.9188080
  H        0.7071820    -2.1662500    -0.0128270
  H        0.8222450     2.1733070     0.0302890
  H        2.8758370     0.4671910     0.8740370
  H        2.8626870     0.4795000    -0.8898540
  H        2.8779460    -1.0666660    -0.0186730
  H       -1.6754580     2.1523000    -0.0063760
units angstrom
no_reorient  #important for SAPT in psi4, default
symmetry c1  #important for SAPT in psi4, default
}

set PROPERTIES_ORIGIN ["COM"]
properties('MP2/aug-cc-pvtz', properties = ['dipole'])
--------------------------------------------------------------------------

    Molecular point group: c1
  Charge       = 0
  Multiplicity = 1
  Basis Set: AUG-CC-PVTZ
    Blend: AUG-CC-PVTZ
  Basis Set: (AUG-CC-PVTZ AUX)
    Blend: AUG-CC-PVTZ-JKFIT

    Orbital Energies [Eh]
    ---------------------

    Doubly Occupied:

       1A    -20.575537     2A    -11.287991     3A    -11.285674
       4A    -11.247882     5A    -11.229805     6A    -11.228017
       7A    -11.211528     8A     -1.373892     9A     -1.117488
      10A     -1.044391    11A     -0.977811    12A     -0.875065
      13A     -0.818518    14A     -0.691831    15A     -0.674360
      16A     -0.648470    17A     -0.642098    18A     -0.582037
      19A     -0.574884    20A     -0.554448    21A     -0.551192
      22A     -0.503521    23A     -0.492618    24A     -0.473173
      25A     -0.423045    26A     -0.301374

  @DF-RHF Final Energy:  -306.77485708046413

   => Energetics <=

    Nuclear Repulsion Energy =            289.3390247440144663
    One-Electron Energy =                -989.4544669603124021
    Two-Electron Energy =                 393.3405851358337486
    Total Energy =                       -306.7748570804641304
  Basis Set: (AUG-CC-PVTZ AUX)
    Blend: AUG-CC-PVTZ-RI
    Molecular point group: c1

    Geometry (in Angstrom), charge = 0, multiplicity = 1:

       Center              X                  Y                   Z               Mass
    ------------   -----------------  -----------------  -----------------  -----------------
         O           -1.831444601176     0.131728243426    -0.023628755674    15.994914619570
         C            1.020335398824    -0.061854756574     0.003645244326    12.000000000000
         C           -1.224921601176    -1.187730756574     0.016063244326    12.000000000000
         C            0.277705398824    -1.197776756574    -0.001914755674    12.000000000000
         C            0.318555398824     1.221359243426     0.017391244326    12.000000000000
         C            2.521659398824    -0.061717756574    -0.008333755674    12.000000000000
         C           -0.931691501176     1.234540143426     0.000312144326    12.000000000000
         H           -1.631000601176    -1.733211756574    -0.846160755674     1.007825032230
         H           -1.611583601176    -1.680925756574     0.919141244326     1.007825032230
         H            0.747752398824    -2.180025756574    -0.012493755674     1.007825032230
         H            0.862815398824     2.159531243426     0.030622244326     1.007825032230
         H            2.916407398824     0.453415243426     0.874370244326     1.007825032230
         H            2.903257398824     0.465724243426    -0.889520755674     1.007825032230
         H            2.918516398824    -1.080441756574    -0.018339755674     1.007825032230
         H           -1.634887601176     2.138524243426    -0.006042755674     1.007825032230

  Basis Set: AUG-CC-PVTZ
    Blend: AUG-CC-PVTZ
  Basis Set: (AUG-CC-PVTZ AUX)
    Blend: AUG-CC-PVTZ-JKFIT
	 Reference Energy          =    -306.7748570804641304 [Eh]
	 Singles Energy            =      -0.0000000000000000 [Eh]
	 Same-Spin Energy          =      -0.3152112067078672 [Eh]
	 Opposite-Spin Energy      =      -1.0407546008213877 [Eh]
	 Correlation Energy        =      -1.3559658075292549 [Eh]
	 Total Energy              =    -308.1308228879933608 [Eh]

	 ================> DF-SCS-MP2 Energies <==================
	-----------------------------------------------------------
	 SCS Same-Spin Scale       =       0.3333333333333333 [-]
	 SCS Opposite-Spin Scale   =       1.2000000000000000 [-]
	 SCS Same-Spin Energy      =      -0.1050704022359557 [Eh]
	 SCS Opposite-Spin Energy  =      -1.2489055209856652 [Eh]
	 SCS Correlation Energy    =      -1.3539759232216209 [Eh]
	 SCS Total Energy          =    -308.1288330036857701 [Eh]
	-----------------------------------------------------------

  Dipole Moment: [D]
     X:     1.3001      Y:    -0.3778      Z:     0.0401     Total:     1.3545

*** Psi4 exiting successfully. Buy a developer a beer!
