                               Psi4 1.4a3.dev225

  ==> Input File <==

--------------------------------------------------------------------------
#psi4
#
memory 32 gb

molecule  {
0 1
  O       -1.8720150     0.1455040    -0.0239620
  C        0.9797650    -0.0480790     0.0033120
  C       -1.2654920    -1.1739550     0.0157300
  C        0.2371350    -1.1840010    -0.0022480
  C        0.2779850     1.2351350     0.0170580
  C        2.4810890    -0.0479420    -0.0086670
  C       -1.0522500     1.2491592    -0.0011138
  H       -1.6715710    -1.7194360    -0.8464940
  H       -1.6521540    -1.6671500     0.9188080
  H        0.7071820    -2.1662500    -0.0128270
  H        0.8222450     2.1733070     0.0302890
  H        2.8758370     0.4671910     0.8740370
  H        2.8626870     0.4795000    -0.8898540
  H        2.8779460    -1.0666660    -0.0186730
  H       -1.6754580     2.1523000    -0.0063760
units angstrom
no_reorient  #important for SAPT in psi4, default
symmetry c1  #important for SAPT in psi4, default
}

set PROPERTIES_ORIGIN ["COM"]
properties('MP2/aug-cc-pvtz', properties = ['dipole'])
--------------------------------------------------------------------------

    Molecular point group: c1
  Charge       = 0
  Multiplicity = 1
  Basis Set: AUG-CC-PVTZ
    Blend: AUG-CC-PVTZ
  Basis Set: (AUG-CC-PVTZ AUX)
    Blend: AUG-CC-PVTZ-JKFIT

    Orbital Energies [Eh]
    ---------------------

    Doubly Occupied:

       1A    -20.582034     2A    -11.297612     3A    -11.290538
       4A    -11.246989     5A    -11.227185     6A    -11.226510
       7A    -11.217178     8A     -1.393570     9A     -1.107782
      10A     -1.036106    11A     -0.973528    12A     -0.876001
      13A     -0.825495    14A     -0.692914    15A     -0.673820
      16A     -0.655716    17A     -0.648069    18A     -0.584481
      19A     -0.573285    20A     -0.557111    21A     -0.552808
      22A     -0.509294    23A     -0.502439    24A     -0.470447
      25A     -0.412569    26A     -0.288771

  @DF-RHF Final Energy:  -306.78955552430978

   => Energetics <=

    Nuclear Repulsion Energy =            288.6800849184036224
    One-Electron Energy =                -988.0947797179328518
    Two-Electron Energy =                 392.6251392752194533
    Total Energy =                       -306.7895555243097760
  Basis Set: (AUG-CC-PVTZ AUX)
    Blend: AUG-CC-PVTZ-RI
    Molecular point group: c1

    Geometry (in Angstrom), charge = 0, multiplicity = 1:

       Center              X                  Y                   Z               Mass
    ------------   -----------------  -----------------  -----------------  -----------------
         O           -1.821452075331     0.131622894042    -0.023492249957    15.994914619570
         C            1.030327924669    -0.061960105958     0.003781750043    12.000000000000
         C           -1.214929075331    -1.187836105958     0.016199750043    12.000000000000
         C            0.287697924669    -1.197882105958    -0.001778249957    12.000000000000
         C            0.328547924669     1.221253894042     0.017527750043    12.000000000000
         C            2.531651924669    -0.061823105958    -0.008197249957    12.000000000000
         C           -1.001687075331     1.235278094042    -0.000644049957    12.000000000000
         H           -1.621008075331    -1.733317105958    -0.846024249957     1.007825032230
         H           -1.601591075331    -1.681031105958     0.919277750043     1.007825032230
         H            0.757744924669    -2.180131105958    -0.012357249957     1.007825032230
         H            0.872807924669     2.159425894042     0.030758750043     1.007825032230
         H            2.926399924669     0.453309894042     0.874506750043     1.007825032230
         H            2.913249924669     0.465618894042    -0.889384249957     1.007825032230
         H            2.928508924669    -1.080547105958    -0.018203249957     1.007825032230
         H           -1.624895075331     2.138418894042    -0.005906249957     1.007825032230

  Basis Set: AUG-CC-PVTZ
    Blend: AUG-CC-PVTZ
  Basis Set: (AUG-CC-PVTZ AUX)
    Blend: AUG-CC-PVTZ-JKFIT
	 Reference Energy          =    -306.7895555243097760 [Eh]
	 Singles Energy            =      -0.0000000000000000 [Eh]
	 Same-Spin Energy          =      -0.3154617242350102 [Eh]
	 Opposite-Spin Energy      =      -1.0406945534638694 [Eh]
	 Correlation Energy        =      -1.3561562776988796 [Eh]
	 Total Energy              =    -308.1457118020086341 [Eh]

	 ================> DF-SCS-MP2 Energies <==================
	-----------------------------------------------------------
	 SCS Same-Spin Scale       =       0.3333333333333333 [-]
	 SCS Opposite-Spin Scale   =       1.2000000000000000 [-]
	 SCS Same-Spin Energy      =      -0.1051539080783367 [Eh]
	 SCS Opposite-Spin Energy  =      -1.2488334641566432 [Eh]
	 SCS Correlation Energy    =      -1.3539873722349800 [Eh]
	 SCS Total Energy          =    -308.1435428965447727 [Eh]
	-----------------------------------------------------------

  Dipole Moment: [D]
     X:     0.9856      Y:    -0.4881      Z:     0.0341     Total:     1.1003

*** Psi4 exiting successfully. Buy a developer a beer!
