                               Psi4 1.3.2 release

  ==> Input File <==

--------------------------------------------------------------------------
#psi4
#
memory 32 gb

molecule  {
0 1
  I       -2.0593870    -0.0000050     0.0008870
  C        2.1361270    -1.2244290    -0.0138000
  C        2.1361340     1.2244190    -0.0142730
  C        2.8182870    -0.0000010    -0.0208120
  C        0.7335970    -1.2186540    -0.0045600
  C        0.7336938     1.2186567     0.0449659
  C        0.0490750     0.0000020     0.0008410
  C        2.8915970    -2.5298050     0.0156450
  C        2.8915460     2.5298400     0.0146700
  H        3.9079530    -0.0000080    -0.0344780
  H        0.1843020    -2.1569090    -0.0057920
  H        0.1843020     2.1569060    -0.0066320
  H        3.8558710    -2.4380930    -0.4900960
  H        2.3252680    -3.3261570    -0.4730740
  H        3.0845820    -2.8430750     1.0467350
  H        2.3258810     3.3255980    -0.4757890
  H        3.0830690     2.8443520     1.0456540
  H        3.8565230     2.4375450    -0.4896130
units angstrom
no_reorient  #important for SAPT in psi4, default
symmetry c1  #important for SAPT in psi4, default
}

set PROPERTIES_ORIGIN ["COM"]
properties('MP2/aug-cc-pvtz', properties = ['dipole'])
--------------------------------------------------------------------------

    Molecular point group: c1
  Charge       = 0
  Multiplicity = 1
  Basis Set: AUG-CC-PVTZ
    Blend: AUG-CC-PVTZ
  Basis Set: (AUG-CC-PVTZ AUX)
    Blend: AUG-CC-PVTZ-JKFIT + DEF2-QZVPP-JKFIT

    Orbital Energies [Eh]
    ---------------------

    Doubly Occupied:

       1A    -11.290609     2A    -11.255886     3A    -11.255791
       4A    -11.242806     5A    -11.242569     6A    -11.236820
       7A    -11.232049     8A    -11.232005     9A     -7.717256
      10A     -5.548954    11A     -5.539381    12A     -5.539347
      13A     -2.278622    14A     -2.273680    15A     -2.273667
      16A     -2.263019    17A     -2.263012    18A     -1.167496
      19A     -1.066930    20A     -1.046842    21A     -0.949386
      22A     -0.938852    23A     -0.895257    24A     -0.793872
      25A     -0.786779    26A     -0.688210    27A     -0.659790
      28A     -0.594817    29A     -0.589593    30A     -0.578078
      31A     -0.572755    32A     -0.560140    33A     -0.549173
      34A     -0.537243    35A     -0.498804    36A     -0.494605
      37A     -0.450484    38A     -0.392171    39A     -0.367297
      40A     -0.331201    41A     -0.318721

  @DF-RHF Final Energy:  -602.95263307876610

   => Energetics <=

    Nuclear Repulsion Energy =            524.2307871393876439
    One-Electron Energy =               -1971.3389045076175989
    Two-Electron Energy =                 844.1554842894639705
    Total Energy =                       -602.9526330787660982
  Basis Set: (AUG-CC-PVTZ AUX)
    Blend: AUG-CC-PVTZ-RI + DEF2-QZVPP-RI
    Molecular point group: c1

    Geometry (in Angstrom), charge = 0, multiplicity = 1:

       Center              X                  Y                   Z               Mass
    ------------   -----------------  -----------------  -----------------  -----------------
         I           -1.776259314713    -0.000004440120    -0.001279255644   126.904471900000
         C            2.419254685287    -1.224428440120    -0.015966255644    12.000000000000
         C            2.419261685287     1.224419559880    -0.016439255644    12.000000000000
         C            3.101414685287    -0.000000440120    -0.022978255644    12.000000000000
         C            1.016724685287    -1.218653440120    -0.006726255644    12.000000000000
         C            1.016821485287     1.218657259880     0.042799644356    12.000000000000
         C            0.332202685287     0.000002559880    -0.001325255644    12.000000000000
         C            3.174724685287    -2.529804440120     0.013478744356    12.000000000000
         C            3.174673685287     2.529840559880     0.012503744356    12.000000000000
         H            4.191080685287    -0.000007440120    -0.036644255644     1.007825032230
         H            0.467429685287    -2.156908440120    -0.007958255644     1.007825032230
         H            0.467429685287     2.156906559880    -0.008798255644     1.007825032230
         H            4.138998685287    -2.438092440120    -0.492262255644     1.007825032230
         H            2.608395685287    -3.326156440120    -0.475240255644     1.007825032230
         H            3.367709685287    -2.843074440120     1.044568744356     1.007825032230
         H            2.609008685287     3.325598559880    -0.477955255644     1.007825032230
         H            3.366196685287     2.844352559880     1.043487744356     1.007825032230
         H            4.139650685287     2.437545559880    -0.491779255644     1.007825032230

  Basis Set: AUG-CC-PVTZ
    Blend: AUG-CC-PVTZ
  Basis Set: (AUG-CC-PVTZ AUX)
    Blend: AUG-CC-PVTZ-JKFIT + DEF2-QZVPP-JKFIT
	 Reference Energy          =    -602.9526330787660982 [Eh]
	 Singles Energy            =      -0.0000000000000000 [Eh]
	 Same-Spin Energy          =      -0.4259151023420118 [Eh]
	 Opposite-Spin Energy      =      -1.3001832847986905 [Eh]
	 Correlation Energy        =      -1.7260983871407023 [Eh]
	 Total Energy              =    -604.6787314659068215 [Eh]

	 ================> DF-SCS-MP2 Energies <==================
	-----------------------------------------------------------
	 SCS Same-Spin Scale       =       0.3333333333333333 [-]
	 SCS Opposite-Spin Scale   =       1.2000000000000000 [-]
	 SCS Same-Spin Energy      =      -0.1419717007806706 [Eh]
	 SCS Opposite-Spin Energy  =      -1.5602199417584286 [Eh]
	 SCS Correlation Energy    =      -1.7021916425390993 [Eh]
	 SCS Total Energy          =    -604.6548247213052036 [Eh]
	-----------------------------------------------------------

  Dipole Moment: [D]
     X:     2.2038      Y:    -0.0048      Z:     0.0609     Total:     2.2047

*** Psi4 exiting successfully. Buy a developer a beer!
