                               Psi4 1.3.2 release

  ==> Input File <==

--------------------------------------------------------------------------
#psi4
#
memory 32 gb

molecule  {
0 1
  I       -2.0593870    -0.0000050     0.0008870
  C        2.1361270    -1.2244290    -0.0138000
  C        2.1361340     1.2244190    -0.0142730
  C        2.8182870    -0.0000010    -0.0208120
  C        0.7335970    -1.2186540    -0.0045600
  C        0.7341008     1.2186956     0.2449655
  C        0.0490750     0.0000020     0.0008410
  C        2.8915970    -2.5298050     0.0156450
  C        2.8915460     2.5298400     0.0146700
  H        3.9079530    -0.0000080    -0.0344780
  H        0.1843020    -2.1569090    -0.0057920
  H        0.1843020     2.1569060    -0.0066320
  H        3.8558710    -2.4380930    -0.4900960
  H        2.3252680    -3.3261570    -0.4730740
  H        3.0845820    -2.8430750     1.0467350
  H        2.3258810     3.3255980    -0.4757890
  H        3.0830690     2.8443520     1.0456540
  H        3.8565230     2.4375450    -0.4896130
units angstrom
no_reorient  #important for SAPT in psi4, default
symmetry c1  #important for SAPT in psi4, default
}

set PROPERTIES_ORIGIN ["COM"]
properties('MP2/aug-cc-pvtz', properties = ['dipole'])
--------------------------------------------------------------------------

    Molecular point group: c1
  Charge       = 0
  Multiplicity = 1
  Basis Set: AUG-CC-PVTZ
    Blend: AUG-CC-PVTZ
  Basis Set: (AUG-CC-PVTZ AUX)
    Blend: AUG-CC-PVTZ-JKFIT + DEF2-QZVPP-JKFIT

    Orbital Energies [Eh]
    ---------------------

    Doubly Occupied:

       1A    -11.295219     2A    -11.261038     3A    -11.259056
       4A    -11.247020     5A    -11.242045     6A    -11.236432
       7A    -11.233419     8A    -11.232348     9A     -7.717266
      10A     -5.548964    11A     -5.539388    12A     -5.539354
      13A     -2.278638    14A     -2.273718    15A     -2.273645
      16A     -2.263027    17A     -2.263021    18A     -1.165847
      19A     -1.066171    20A     -1.045834    21A     -0.950135
      22A     -0.937307    23A     -0.894766    24A     -0.792826
      25A     -0.783078    26A     -0.682905    27A     -0.656250
      28A     -0.595161    29A     -0.591238    30A     -0.578529
      31A     -0.567468    32A     -0.559789    33A     -0.547893
      34A     -0.536430    35A     -0.500179    36A     -0.488789
      37A     -0.449591    38A     -0.391265    39A     -0.366877
      40A     -0.331267    41A     -0.318278

  @DF-RHF Final Energy:  -602.93438605626716

   => Energetics <=

    Nuclear Repulsion Energy =            523.5061455968960900
    One-Electron Energy =               -1969.8781265708298633
    Two-Electron Energy =                 843.4375949176665017
    Total Energy =                       -602.9343860562671580
  Basis Set: (AUG-CC-PVTZ AUX)
    Blend: AUG-CC-PVTZ-RI + DEF2-QZVPP-RI
    Molecular point group: c1

    Geometry (in Angstrom), charge = 0, multiplicity = 1:

       Center              X                  Y                   Z               Mass
    ------------   -----------------  -----------------  -----------------  -----------------
         I           -1.776280368715    -0.000006452406    -0.011625181988   126.904471900000
         C            2.419233631285    -1.224430452406    -0.026312181988    12.000000000000
         C            2.419240631285     1.224417547594    -0.026785181988    12.000000000000
         C            3.101393631285    -0.000002452406    -0.033324181988    12.000000000000
         C            1.016703631285    -1.218655452406    -0.017072181988    12.000000000000
         C            1.017207431285     1.218694147594     0.232453318012    12.000000000000
         C            0.332181631285     0.000000547594    -0.011671181988    12.000000000000
         C            3.174703631285    -2.529806452406     0.003132818012    12.000000000000
         C            3.174652631285     2.529838547594     0.002157818012    12.000000000000
         H            4.191059631285    -0.000009452406    -0.046990181988     1.007825032230
         H            0.467408631285    -2.156910452406    -0.018304181988     1.007825032230
         H            0.467408631285     2.156904547594    -0.019144181988     1.007825032230
         H            4.138977631285    -2.438094452406    -0.502608181988     1.007825032230
         H            2.608374631285    -3.326158452406    -0.485586181988     1.007825032230
         H            3.367688631285    -2.843076452406     1.034222818012     1.007825032230
         H            2.608987631285     3.325596547594    -0.488301181988     1.007825032230
         H            3.366175631285     2.844350547594     1.033141818012     1.007825032230
         H            4.139629631285     2.437543547594    -0.502125181988     1.007825032230

  Basis Set: AUG-CC-PVTZ
    Blend: AUG-CC-PVTZ
  Basis Set: (AUG-CC-PVTZ AUX)
    Blend: AUG-CC-PVTZ-JKFIT + DEF2-QZVPP-JKFIT
	 Reference Energy          =    -602.9343860562671580 [Eh]
	 Singles Energy            =      -0.0000000000000000 [Eh]
	 Same-Spin Energy          =      -0.4268321849670023 [Eh]
	 Opposite-Spin Energy      =      -1.3027162439274589 [Eh]
	 Correlation Energy        =      -1.7295484288944611 [Eh]
	 Total Energy              =    -604.6639344851615760 [Eh]

	 ================> DF-SCS-MP2 Energies <==================
	-----------------------------------------------------------
	 SCS Same-Spin Scale       =       0.3333333333333333 [-]
	 SCS Opposite-Spin Scale   =       1.2000000000000000 [-]
	 SCS Same-Spin Energy      =      -0.1422773949890007 [Eh]
	 SCS Opposite-Spin Energy  =      -1.5632594927129506 [Eh]
	 SCS Correlation Energy    =      -1.7055368877019514 [Eh]
	 SCS Total Energy          =    -604.6399229439690544 [Eh]
	-----------------------------------------------------------

  Dipole Moment: [D]
     X:     2.2877      Y:    -0.1118      Z:    -0.0168     Total:     2.2905

*** Psi4 exiting successfully. Buy a developer a beer!
