                               Psi4 1.3.2 release

  ==> Input File <==

--------------------------------------------------------------------------
#psi4
#
memory 32 gb

molecule  {
0 1
  I       -2.0593870    -0.0000050     0.0008870
  C        2.1361270    -1.2244290    -0.0138000
  C        2.1361340     1.2244190    -0.0142730
  C        2.8182870    -0.0000010    -0.0208120
  C        0.7335970    -1.2186540    -0.0045600
  C        0.7338973     1.2186762     0.1449657
  C        0.0490750     0.0000020     0.0008410
  C        2.8915970    -2.5298050     0.0156450
  C        2.8915460     2.5298400     0.0146700
  H        3.9079530    -0.0000080    -0.0344780
  H        0.1843020    -2.1569090    -0.0057920
  H        0.1843020     2.1569060    -0.0066320
  H        3.8558710    -2.4380930    -0.4900960
  H        2.3252680    -3.3261570    -0.4730740
  H        3.0845820    -2.8430750     1.0467350
  H        2.3258810     3.3255980    -0.4757890
  H        3.0830690     2.8443520     1.0456540
  H        3.8565230     2.4375450    -0.4896130
units angstrom
no_reorient  #important for SAPT in psi4, default
symmetry c1  #important for SAPT in psi4, default
}

set PROPERTIES_ORIGIN ["COM"]
properties('MP2/aug-cc-pvtz', properties = ['dipole'])
--------------------------------------------------------------------------

    Molecular point group: c1
  Charge       = 0
  Multiplicity = 1
  Basis Set: AUG-CC-PVTZ
    Blend: AUG-CC-PVTZ
  Basis Set: (AUG-CC-PVTZ AUX)
    Blend: AUG-CC-PVTZ-JKFIT + DEF2-QZVPP-JKFIT

    Orbital Energies [Eh]
    ---------------------

    Doubly Occupied:

       1A    -11.292184     2A    -11.257646     3A    -11.256869
       4A    -11.244266     5A    -11.242362     6A    -11.236679
       7A    -11.232494     8A    -11.232115     9A     -7.717262
      10A     -5.548961    11A     -5.539382    12A     -5.539356
      13A     -2.278631    14A     -2.273698    15A     -2.273660
      16A     -2.263024    17A     -2.263018    18A     -1.166910
      19A     -1.066660    20A     -1.046504    21A     -0.949621
      22A     -0.938336    23A     -0.895098    24A     -0.793422
      25A     -0.785517    26A     -0.686284    27A     -0.658591
      28A     -0.594867    29A     -0.590217    30A     -0.578263
      31A     -0.570570    32A     -0.560080    33A     -0.548944
      34A     -0.537017    35A     -0.499472    36A     -0.492460
      37A     -0.450169    38A     -0.391884    39A     -0.367162
      40A     -0.331159    41A     -0.318600

  @DF-RHF Final Energy:  -602.94660053889720

   => Energetics <=

    Nuclear Repulsion Energy =            523.9861352394557343
    One-Electron Energy =               -1970.8466459101439341
    Two-Electron Energy =                 843.9139101317909990
    Total Energy =                       -602.9466005388972007
  Basis Set: (AUG-CC-PVTZ AUX)
    Blend: AUG-CC-PVTZ-RI + DEF2-QZVPP-RI
    Molecular point group: c1

    Geometry (in Angstrom), charge = 0, multiplicity = 1:

       Center              X                  Y                   Z               Mass
    ------------   -----------------  -----------------  -----------------  -----------------
         I           -1.776269841714    -0.000005448850    -0.006452218816   126.904471900000
         C            2.419244158286    -1.224429448850    -0.021139218816    12.000000000000
         C            2.419251158286     1.224418551150    -0.021612218816    12.000000000000
         C            3.101404158286    -0.000001448850    -0.028151218816    12.000000000000
         C            1.016714158286    -1.218654448850    -0.011899218816    12.000000000000
         C            1.017014458286     1.218675751150     0.137626481184    12.000000000000
         C            0.332192158286     0.000001551150    -0.006498218816    12.000000000000
         C            3.174714158286    -2.529805448850     0.008305781184    12.000000000000
         C            3.174663158286     2.529839551150     0.007330781184    12.000000000000
         H            4.191070158286    -0.000008448850    -0.041817218816     1.007825032230
         H            0.467419158286    -2.156909448850    -0.013131218816     1.007825032230
         H            0.467419158286     2.156905551150    -0.013971218816     1.007825032230
         H            4.138988158286    -2.438093448850    -0.497435218816     1.007825032230
         H            2.608385158286    -3.326157448850    -0.480413218816     1.007825032230
         H            3.367699158286    -2.843075448850     1.039395781184     1.007825032230
         H            2.608998158286     3.325597551150    -0.483128218816     1.007825032230
         H            3.366186158286     2.844351551150     1.038314781184     1.007825032230
         H            4.139640158286     2.437544551150    -0.496952218816     1.007825032230

  Basis Set: AUG-CC-PVTZ
    Blend: AUG-CC-PVTZ
  Basis Set: (AUG-CC-PVTZ AUX)
    Blend: AUG-CC-PVTZ-JKFIT + DEF2-QZVPP-JKFIT
	 Reference Energy          =    -602.9466005388972007 [Eh]
	 Singles Energy            =      -0.0000000000000000 [Eh]
	 Same-Spin Energy          =      -0.4262309517195768 [Eh]
	 Opposite-Spin Energy      =      -1.3010084234421895 [Eh]
	 Correlation Energy        =      -1.7272393751617663 [Eh]
	 Total Energy              =    -604.6738399140589308 [Eh]

	 ================> DF-SCS-MP2 Energies <==================
	-----------------------------------------------------------
	 SCS Same-Spin Scale       =       0.3333333333333333 [-]
	 SCS Opposite-Spin Scale   =       1.2000000000000000 [-]
	 SCS Same-Spin Energy      =      -0.1420769839065256 [Eh]
	 SCS Opposite-Spin Energy  =      -1.5612101081306273 [Eh]
	 SCS Correlation Energy    =      -1.7032870920371530 [Eh]
	 SCS Total Energy          =    -604.6498876309343586 [Eh]
	-----------------------------------------------------------

  Dipole Moment: [D]
     X:     2.2315      Y:    -0.0412      Z:     0.0236     Total:     2.2320

*** Psi4 exiting successfully. Buy a developer a beer!
