                               Psi4 1.3.2 release

  ==> Input File <==

--------------------------------------------------------------------------
#psi4
#
memory 32 gb

molecule  {
0 1
  I       -2.0593870    -0.0000050     0.0008870
  C        2.1361270    -1.2244290    -0.0138000
  C        2.1361340     1.2244190    -0.0142730
  C        2.8182870    -0.0000010    -0.0208120
  C        0.7335970    -1.2186540    -0.0045600
  C        0.7337955     1.2186664     0.0949658
  C        0.0490750     0.0000020     0.0008410
  C        2.8915970    -2.5298050     0.0156450
  C        2.8915460     2.5298400     0.0146700
  H        3.9079530    -0.0000080    -0.0344780
  H        0.1843020    -2.1569090    -0.0057920
  H        0.1843020     2.1569060    -0.0066320
  H        3.8558710    -2.4380930    -0.4900960
  H        2.3252680    -3.3261570    -0.4730740
  H        3.0845820    -2.8430750     1.0467350
  H        2.3258810     3.3255980    -0.4757890
  H        3.0830690     2.8443520     1.0456540
  H        3.8565230     2.4375450    -0.4896130
units angstrom
no_reorient  #important for SAPT in psi4, default
symmetry c1  #important for SAPT in psi4, default
}

set PROPERTIES_ORIGIN ["COM"]
properties('MP2/aug-cc-pvtz', properties = ['dipole'])
--------------------------------------------------------------------------

    Molecular point group: c1
  Charge       = 0
  Multiplicity = 1
  Basis Set: AUG-CC-PVTZ
    Blend: AUG-CC-PVTZ
  Basis Set: (AUG-CC-PVTZ AUX)
    Blend: AUG-CC-PVTZ-JKFIT + DEF2-QZVPP-JKFIT

    Orbital Energies [Eh]
    ---------------------

    Doubly Occupied:

       1A    -11.291205     2A    -11.256551     3A    -11.256195
       4A    -11.243361     5A    -11.242484     6A    -11.236768
       7A    -11.232213     8A    -11.232045     9A     -7.717260
      10A     -5.548958    11A     -5.539382    12A     -5.539352
      13A     -2.278627    14A     -2.273689    15A     -2.273665
      16A     -2.263022    17A     -2.263016    18A     -1.167270
      19A     -1.066824    20A     -1.046717    21A     -0.949470
      22A     -0.938655    23A     -0.895197    24A     -0.793687
      25A     -0.786302    26A     -0.687465    27A     -0.659335
      28A     -0.594820    29A     -0.589828    30A     -0.578188
      31A     -0.571839    32A     -0.560124    33A     -0.549125
      34A     -0.537171    35A     -0.499103    36A     -0.493742
      37A     -0.450353    38A     -0.392073    39A     -0.367247
      40A     -0.331171    41A     -0.318687

  @DF-RHF Final Energy:  -602.95037699379418

   => Energetics <=

    Nuclear Repulsion Energy =            524.1386421327720200
    One-Electron Energy =               -1971.1536662498713213
    Two-Electron Energy =                 844.0646471233051216
    Total Energy =                       -602.9503769937941797
  Basis Set: (AUG-CC-PVTZ AUX)
    Blend: AUG-CC-PVTZ-RI + DEF2-QZVPP-RI
    Molecular point group: c1

    Geometry (in Angstrom), charge = 0, multiplicity = 1:

       Center              X                  Y                   Z               Mass
    ------------   -----------------  -----------------  -----------------  -----------------
         I           -1.776264575627    -0.000004941898    -0.003865737230   126.904471900000
         C            2.419249424373    -1.224428941898    -0.018552737230    12.000000000000
         C            2.419256424373     1.224419058102    -0.019025737230    12.000000000000
         C            3.101409424373    -0.000000941898    -0.025564737230    12.000000000000
         C            1.016719424373    -1.218653941898    -0.009312737230    12.000000000000
         C            1.016917924373     1.218666458102     0.090213062770    12.000000000000
         C            0.332197424373     0.000002058102    -0.003911737230    12.000000000000
         C            3.174719424373    -2.529804941898     0.010892262770    12.000000000000
         C            3.174668424373     2.529840058102     0.009917262770    12.000000000000
         H            4.191075424373    -0.000007941898    -0.039230737230     1.007825032230
         H            0.467424424373    -2.156908941898    -0.010544737230     1.007825032230
         H            0.467424424373     2.156906058102    -0.011384737230     1.007825032230
         H            4.138993424373    -2.438092941898    -0.494848737230     1.007825032230
         H            2.608390424373    -3.326156941898    -0.477826737230     1.007825032230
         H            3.367704424373    -2.843074941898     1.041982262770     1.007825032230
         H            2.609003424373     3.325598058102    -0.480541737230     1.007825032230
         H            3.366191424373     2.844352058102     1.040901262770     1.007825032230
         H            4.139645424373     2.437545058102    -0.494365737230     1.007825032230

  Basis Set: AUG-CC-PVTZ
    Blend: AUG-CC-PVTZ
  Basis Set: (AUG-CC-PVTZ AUX)
    Blend: AUG-CC-PVTZ-JKFIT + DEF2-QZVPP-JKFIT
	 Reference Energy          =    -602.9503769937941797 [Eh]
	 Singles Energy            =      -0.0000000000000000 [Eh]
	 Same-Spin Energy          =      -0.4260352471086085 [Eh]
	 Opposite-Spin Energy      =      -1.3004832521527829 [Eh]
	 Correlation Energy        =      -1.7265184992613913 [Eh]
	 Total Energy              =    -604.6768954930555537 [Eh]

	 ================> DF-SCS-MP2 Energies <==================
	-----------------------------------------------------------
	 SCS Same-Spin Scale       =       0.3333333333333333 [-]
	 SCS Opposite-Spin Scale   =       1.2000000000000000 [-]
	 SCS Same-Spin Energy      =      -0.1420117490362028 [Eh]
	 SCS Opposite-Spin Energy  =      -1.5605799025833396 [Eh]
	 SCS Correlation Energy    =      -1.7025916516195423 [Eh]
	 SCS Total Energy          =    -604.6529686454136936 [Eh]
	-----------------------------------------------------------

  Dipole Moment: [D]
     X:     2.2140      Y:    -0.0186      Z:     0.0426     Total:     2.2145

*** Psi4 exiting successfully. Buy a developer a beer!
