                               Psi4 1.3.2 release

  ==> Input File <==

--------------------------------------------------------------------------
#psi4
#
memory 32 gb

molecule  {
0 1
  I       -2.0593870    -0.0000050     0.0008870
  C        2.1361270    -1.2244290    -0.0138000
  C        2.1361340     1.2244190    -0.0142730
  C        2.8182870    -0.0000010    -0.0208120
  C        0.7335970    -1.2186540    -0.0045600
  C        0.7339990     1.2186859     0.1949656
  C        0.0490750     0.0000020     0.0008410
  C        2.8915970    -2.5298050     0.0156450
  C        2.8915460     2.5298400     0.0146700
  H        3.9079530    -0.0000080    -0.0344780
  H        0.1843020    -2.1569090    -0.0057920
  H        0.1843020     2.1569060    -0.0066320
  H        3.8558710    -2.4380930    -0.4900960
  H        2.3252680    -3.3261570    -0.4730740
  H        3.0845820    -2.8430750     1.0467350
  H        2.3258810     3.3255980    -0.4757890
  H        3.0830690     2.8443520     1.0456540
  H        3.8565230     2.4375450    -0.4896130
units angstrom
no_reorient  #important for SAPT in psi4, default
symmetry c1  #important for SAPT in psi4, default
}

set PROPERTIES_ORIGIN ["COM"]
properties('MP2/aug-cc-pvtz', properties = ['dipole'])
--------------------------------------------------------------------------

    Molecular point group: c1
  Charge       = 0
  Multiplicity = 1
  Basis Set: AUG-CC-PVTZ
    Blend: AUG-CC-PVTZ
  Basis Set: (AUG-CC-PVTZ AUX)
    Blend: AUG-CC-PVTZ-JKFIT + DEF2-QZVPP-JKFIT

    Orbital Energies [Eh]
    ---------------------

    Doubly Occupied:

       1A    -11.293531     2A    -11.259151     3A    -11.257821
       4A    -11.245495     5A    -11.242212     6A    -11.236564
       7A    -11.232894     8A    -11.232217     9A     -7.717264
      10A     -5.548962    11A     -5.539382    12A     -5.539357
      13A     -2.278634    14A     -2.273707    15A     -2.273653
      16A     -2.263026    17A     -2.263019    18A     -1.166430
      19A     -1.066440    20A     -1.046209    21A     -0.949841
      22A     -0.937889    23A     -0.894956    24A     -0.793121
      25A     -0.784434    26A     -0.684734    27A     -0.657561
      28A     -0.594971    29A     -0.590706    30A     -0.578365
      31A     -0.569047    32A     -0.559983    33A     -0.548569
      34A     -0.536773    35A     -0.499841    36A     -0.490810
      37A     -0.449919    38A     -0.391612    39A     -0.367039
      40A     -0.331183    41A     -0.318463

  @DF-RHF Final Energy:  -602.94127889259630

   => Energetics <=

    Nuclear Repulsion Energy =            523.7746719935252031
    One-Electron Energy =               -1970.4203278982542997
    Two-Electron Energy =                 843.7043770121329089
    Total Energy =                       -602.9412788925963014
  Basis Set: (AUG-CC-PVTZ AUX)
    Blend: AUG-CC-PVTZ-RI + DEF2-QZVPP-RI
    Molecular point group: c1

    Geometry (in Angstrom), charge = 0, multiplicity = 1:

       Center              X                  Y                   Z               Mass
    ------------   -----------------  -----------------  -----------------  -----------------
         I           -1.776275102628    -0.000005950628    -0.009038700402   126.904471900000
         C            2.419238897372    -1.224429950628    -0.023725700402    12.000000000000
         C            2.419245897372     1.224418049372    -0.024198700402    12.000000000000
         C            3.101398897372    -0.000001950628    -0.030737700402    12.000000000000
         C            1.016708897372    -1.218654950628    -0.014485700402    12.000000000000
         C            1.017110897372     1.218684949372     0.185039899598    12.000000000000
         C            0.332186897372     0.000001049372    -0.009084700402    12.000000000000
         C            3.174708897372    -2.529805950628     0.005719299598    12.000000000000
         C            3.174657897372     2.529839049372     0.004744299598    12.000000000000
         H            4.191064897372    -0.000008950628    -0.044403700402     1.007825032230
         H            0.467413897372    -2.156909950628    -0.015717700402     1.007825032230
         H            0.467413897372     2.156905049372    -0.016557700402     1.007825032230
         H            4.138982897372    -2.438093950628    -0.500021700402     1.007825032230
         H            2.608379897372    -3.326157950628    -0.482999700402     1.007825032230
         H            3.367693897372    -2.843075950628     1.036809299598     1.007825032230
         H            2.608992897372     3.325597049372    -0.485714700402     1.007825032230
         H            3.366180897372     2.844351049372     1.035728299598     1.007825032230
         H            4.139634897372     2.437544049372    -0.499538700402     1.007825032230

  Basis Set: AUG-CC-PVTZ
    Blend: AUG-CC-PVTZ
  Basis Set: (AUG-CC-PVTZ AUX)
    Blend: AUG-CC-PVTZ-JKFIT + DEF2-QZVPP-JKFIT
	 Reference Energy          =    -602.9412788925963014 [Eh]
	 Singles Energy            =      -0.0000000000000000 [Eh]
	 Same-Spin Energy          =      -0.4264985573160787 [Eh]
	 Opposite-Spin Energy      =      -1.3017567859263430 [Eh]
	 Correlation Energy        =      -1.7282553432424217 [Eh]
	 Total Energy              =    -604.6695342358386824 [Eh]

	 ================> DF-SCS-MP2 Energies <==================
	-----------------------------------------------------------
	 SCS Same-Spin Scale       =       0.3333333333333333 [-]
	 SCS Opposite-Spin Scale   =       1.2000000000000000 [-]
	 SCS Same-Spin Energy      =      -0.1421661857720262 [Eh]
	 SCS Opposite-Spin Energy  =      -1.5621081431116115 [Eh]
	 SCS Correlation Energy    =      -1.7042743288836377 [Eh]
	 SCS Total Energy          =    -604.6455532214799860 [Eh]
	-----------------------------------------------------------

  Dipole Moment: [D]
     X:     2.2561      Y:    -0.0724      Z:     0.0039     Total:     2.2573

*** Psi4 exiting successfully. Buy a developer a beer!
