                               Psi4 1.3.2 release

  ==> Input File <==

--------------------------------------------------------------------------
#psi4
#
memory 32 gb

molecule  {
0 1
  I       -2.0593870    -0.0000050     0.0008870
  C        2.1361270    -1.2244290    -0.0138000
  C        2.1361340     1.2244190    -0.0142730
  C        2.8182870    -0.0000010    -0.0208120
  C        0.7335970    -1.2186540    -0.0045600
  C        0.7335920     1.2186470    -0.0050340
  C        0.0490750     0.0000020     0.0008410
  C        2.8915970    -2.5298050     0.0156450
  C        2.8915460     2.5298400     0.0146700
  H        3.9079530    -0.0000080    -0.0344780
  H        0.1843020    -2.1569090    -0.0057920
  H        0.1843020     2.1569060    -0.0066320
  H        3.8558710    -2.4380930    -0.4900960
  H        2.3252680    -3.3261570    -0.4730740
  H        3.0845820    -2.8430750     1.0467350
  H        2.3258810     3.3255980    -0.4757890
  H        3.0830690     2.8443520     1.0456540
  H        3.8565230     2.4375450    -0.4896130
units angstrom
no_reorient  #important for SAPT in psi4, default
symmetry c1  #important for SAPT in psi4, default
}

set PROPERTIES_ORIGIN ["COM"]
properties('MP2/aug-cc-pvtz', properties = ['dipole'])
--------------------------------------------------------------------------

    Molecular point group: c1
  Charge       = 0
  Multiplicity = 1
  Basis Set: AUG-CC-PVTZ
    Blend: AUG-CC-PVTZ
  Basis Set: (AUG-CC-PVTZ AUX)
    Blend: AUG-CC-PVTZ-JKFIT + DEF2-QZVPP-JKFIT

    Orbital Energies [Eh]
    ---------------------

    Doubly Occupied:

       1A    -11.290404     2A    -11.255668     3A    -11.255643
       4A    -11.242624     5A    -11.242597     6A    -11.236828
       7A    -11.231998     8A    -11.231997     9A     -7.717248
      10A     -5.548947    11A     -5.539374    12A     -5.539338
      13A     -2.278614    14A     -2.273669    15A     -2.273663
      16A     -2.263011    17A     -2.263005    18A     -1.167578
      19A     -1.066975    20A     -1.046875    21A     -0.949365
      22A     -0.938929    23A     -0.895276    24A     -0.793942
      25A     -0.786947    26A     -0.688474    27A     -0.659951
      28A     -0.594858    29A     -0.589540    30A     -0.577876
      31A     -0.573282    32A     -0.560140    33A     -0.549117
      34A     -0.537237    35A     -0.498709    36A     -0.494926
      37A     -0.450563    38A     -0.392173    39A     -0.367310
      40A     -0.331236    41A     -0.318698

  @DF-RHF Final Energy:  -602.95338813221417

   => Energetics <=

    Nuclear Repulsion Energy =            524.2617036004400006
    One-Electron Energy =               -1971.4009772265508218
    Two-Electron Energy =                 844.1858854938967625
    Total Energy =                       -602.9533881322141724
  Basis Set: (AUG-CC-PVTZ AUX)
    Blend: AUG-CC-PVTZ-RI + DEF2-QZVPP-RI
    Molecular point group: c1

    Geometry (in Angstrom), charge = 0, multiplicity = 1:

       Center              X                  Y                   Z               Mass
    ------------   -----------------  -----------------  -----------------  -----------------
         I           -1.776254048626    -0.000003938341     0.001307225942   126.904471900000
         C            2.419259951374    -1.224427938341    -0.013379774058    12.000000000000
         C            2.419266951374     1.224420061659    -0.013852774058    12.000000000000
         C            3.101419951374     0.000000061659    -0.020391774058    12.000000000000
         C            1.016729951374    -1.218652938341    -0.004139774058    12.000000000000
         C            1.016724951374     1.218648061659    -0.004613774058    12.000000000000
         C            0.332207951374     0.000003061659     0.001261225942    12.000000000000
         C            3.174729951374    -2.529803938341     0.016065225942    12.000000000000
         C            3.174678951374     2.529841061659     0.015090225942    12.000000000000
         H            4.191085951374    -0.000006938341    -0.034057774058     1.007825032230
         H            0.467434951374    -2.156907938341    -0.005371774058     1.007825032230
         H            0.467434951374     2.156907061659    -0.006211774058     1.007825032230
         H            4.139003951374    -2.438091938341    -0.489675774058     1.007825032230
         H            2.608400951374    -3.326155938341    -0.472653774058     1.007825032230
         H            3.367714951374    -2.843073938341     1.047155225942     1.007825032230
         H            2.609013951374     3.325599061659    -0.475368774058     1.007825032230
         H            3.366201951374     2.844353061659     1.046074225942     1.007825032230
         H            4.139655951374     2.437546061659    -0.489192774058     1.007825032230

  Basis Set: AUG-CC-PVTZ
    Blend: AUG-CC-PVTZ
  Basis Set: (AUG-CC-PVTZ AUX)
    Blend: AUG-CC-PVTZ-JKFIT + DEF2-QZVPP-JKFIT
	 Reference Energy          =    -602.9533881322141724 [Eh]
	 Singles Energy            =      -0.0000000000000000 [Eh]
	 Same-Spin Energy          =      -0.4258720968431310 [Eh]
	 Opposite-Spin Energy      =      -1.3000863356842787 [Eh]
	 Correlation Energy        =      -1.7259584325274098 [Eh]
	 Total Energy              =    -604.6793465647415360 [Eh]

	 ================> DF-SCS-MP2 Energies <==================
	-----------------------------------------------------------
	 SCS Same-Spin Scale       =       0.3333333333333333 [-]
	 SCS Opposite-Spin Scale   =       1.2000000000000000 [-]
	 SCS Same-Spin Energy      =      -0.1419573656143770 [Eh]
	 SCS Opposite-Spin Energy  =      -1.5601036028211344 [Eh]
	 SCS Correlation Energy    =      -1.7020609684355112 [Eh]
	 SCS Total Energy          =    -604.6554491006496619 [Eh]
	-----------------------------------------------------------

  Dipole Moment: [D]
     X:     2.2012      Y:     0.0001      Z:     0.0790     Total:     2.2026

*** Psi4 exiting successfully. Buy a developer a beer!
