                               Psi4 1.3.2 release

  ==> Input File <==

--------------------------------------------------------------------------
#psi4
#
memory 32 gb

molecule  {
0 1
  O        0.3130990     2.3704440    -1.0483590
  N        1.7883250     1.2487180     0.2800910
  C        1.5287440    -1.3320340    -0.8115580
  C        2.5082430    -1.1273300     0.3546920
  C        0.0936770    -1.0844130    -0.4156830
  C       -0.3593510     0.2288580    -0.1728470
  C        2.1500350     0.1348000     1.1432270
  C       -1.6973100     0.4876920     0.1815770
  C        0.5616810     1.3866152    -0.4599069
  C       -0.8057180    -2.1460500    -0.2745700
  C       -2.5635920    -0.6025190     0.3218070
  C       -2.1294290    -1.9083920     0.0915650
  C       -2.2005820     1.8899870     0.4130340
  H        1.6305660    -2.3487650    -1.2074160
  H        1.8022820    -0.6509930    -1.6251500
  H        2.4785080    -1.9866810     1.0363320
  H        3.5296620    -1.0584230    -0.0385230
  H        1.3070990    -0.0748920     1.8087120
  H        2.9845300     0.4555350     1.7739000
  H        2.4430930     2.0063180     0.1171350
  H       -0.4670580    -3.1628320    -0.4675050
  H       -3.5988730    -0.4222000     0.6058720
  H       -2.8229980    -2.7393000     0.2003190
  H       -1.5534710     2.4410460     1.1016880
  H       -2.2209110     2.4548110    -0.5213210
  H       -3.2087000     1.8617690     0.8360960
units angstrom
no_reorient  #important for SAPT in psi4, default
symmetry c1  #important for SAPT in psi4, default
}

set PROPERTIES_ORIGIN ["COM"]
properties('MP2/aug-cc-pvtz', properties = ['dipole'])
--------------------------------------------------------------------------

    Molecular point group: c1
  Charge       = 0
  Multiplicity = 1
  Basis Set: AUG-CC-PVTZ
    Blend: AUG-CC-PVTZ
  Basis Set: (AUG-CC-PVTZ AUX)
    Blend: AUG-CC-PVTZ-JKFIT

    Orbital Energies [Eh]
    ---------------------

    Doubly Occupied:

       1A    -20.529092     2A    -15.567408     3A    -11.351469
       4A    -11.267254     5A    -11.254265     6A    -11.254209
       7A    -11.244866     8A    -11.241323     9A    -11.236275
      10A    -11.235157    11A    -11.233078    12A    -11.232580
      13A    -11.218254    14A     -1.412125    15A     -1.217192
      16A     -1.162110    17A     -1.080926    18A     -1.044596
      19A     -1.024527    20A     -0.940676    21A     -0.928872
      22A     -0.869499    23A     -0.825480    24A     -0.780962
      25A     -0.762991    26A     -0.689961    27A     -0.679487
      28A     -0.664990    29A     -0.657441    30A     -0.624612
      31A     -0.613377    32A     -0.594564    33A     -0.586616
      34A     -0.573698    35A     -0.566720    36A     -0.558116
      37A     -0.533784    38A     -0.529389    39A     -0.517625
      40A     -0.508296    41A     -0.486964    42A     -0.479355
      43A     -0.474502    44A     -0.419295    45A     -0.380385
      46A     -0.337732    47A     -0.327713

  @DF-RHF Final Energy:  -553.63683602494439

   => Energetics <=

    Nuclear Repulsion Energy =            795.8008812761868285
    One-Electron Energy =               -2331.4358199100242928
    Two-Electron Energy =                 981.9981026088930776
    Total Energy =                       -553.6368360249443867
  Basis Set: (AUG-CC-PVTZ AUX)
    Blend: AUG-CC-PVTZ-RI
    Molecular point group: c1

    Geometry (in Angstrom), charge = 0, multiplicity = 1:

       Center              X                  Y                   Z               Mass
    ------------   -----------------  -----------------  -----------------  -----------------
         O            0.327898733792     2.351725119051    -1.021278625733    15.994914619570
         N            1.803124733792     1.229999119051     0.307171374267    14.003074004430
         C            1.543543733792    -1.350752880949    -0.784477625733    12.000000000000
         C            2.523042733792    -1.146048880949     0.381772374267    12.000000000000
         C            0.108476733792    -1.103131880949    -0.388602625733    12.000000000000
         C           -0.344551266208     0.210139119051    -0.145766625733    12.000000000000
         C            2.164834733792     0.116081119051     1.170307374267    12.000000000000
         C           -1.682510266208     0.468973119051     0.208657374267    12.000000000000
         C            0.576480733792     1.367896319051    -0.432826525733    12.000000000000
         C           -0.790918266208    -2.164768880949    -0.247489625733    12.000000000000
         C           -2.548792266208    -0.621237880949     0.348887374267    12.000000000000
         C           -2.114629266208    -1.927110880949     0.118645374267    12.000000000000
         C           -2.185782266208     1.871268119051     0.440114374267    12.000000000000
         H            1.645365733792    -2.367483880949    -1.180335625733     1.007825032230
         H            1.817081733792    -0.669711880949    -1.598069625733     1.007825032230
         H            2.493307733792    -2.005399880949     1.063412374267     1.007825032230
         H            3.544461733792    -1.077141880949    -0.011442625733     1.007825032230
         H            1.321898733792    -0.093610880949     1.835792374267     1.007825032230
         H            2.999329733792     0.436816119051     1.800980374267     1.007825032230
         H            2.457892733792     1.987599119051     0.144215374267     1.007825032230
         H           -0.452258266208    -3.181550880949    -0.440424625733     1.007825032230
         H           -3.584073266208    -0.440918880949     0.632952374267     1.007825032230
         H           -2.808198266208    -2.758018880949     0.227399374267     1.007825032230
         H           -1.538671266208     2.422327119051     1.128768374267     1.007825032230
         H           -2.206111266208     2.436092119051    -0.494240625733     1.007825032230
         H           -3.193900266208     1.843050119051     0.863176374267     1.007825032230

  Basis Set: AUG-CC-PVTZ
    Blend: AUG-CC-PVTZ
  Basis Set: (AUG-CC-PVTZ AUX)
    Blend: AUG-CC-PVTZ-JKFIT
	 Reference Energy          =    -553.6368360249443867 [Eh]
	 Singles Energy            =      -0.0000000000000000 [Eh]
	 Same-Spin Energy          =      -0.6032297570008196 [Eh]
	 Opposite-Spin Energy      =      -1.9014662655316308 [Eh]
	 Correlation Energy        =      -2.5046960225324506 [Eh]
	 Total Energy              =    -556.1415320474768578 [Eh]

	 ================> DF-SCS-MP2 Energies <==================
	-----------------------------------------------------------
	 SCS Same-Spin Scale       =       0.3333333333333333 [-]
	 SCS Opposite-Spin Scale   =       1.2000000000000000 [-]
	 SCS Same-Spin Energy      =      -0.2010765856669399 [Eh]
	 SCS Opposite-Spin Energy  =      -2.2817595186379567 [Eh]
	 SCS Correlation Energy    =      -2.4828361043048965 [Eh]
	 SCS Total Energy          =    -556.1196721292492384 [Eh]
	-----------------------------------------------------------

  Dipole Moment: [D]
     X:     1.2472      Y:    -2.2569      Z:     1.7604     Total:     3.1222

*** Psi4 exiting successfully. Buy a developer a beer!
