                               Psi4 1.3.2 release

  ==> Input File <==

--------------------------------------------------------------------------
#psi4
#
memory 32 gb

molecule  {
0 1
  O        0.3130990     2.3704440    -1.0483590
  N        1.7883250     1.2487180     0.2800910
  C        1.5287440    -1.3320340    -0.8115580
  C        2.5082430    -1.1273300     0.3546920
  C        0.0936770    -1.0844130    -0.4156830
  C       -0.3593510     0.2288580    -0.1728470
  C        2.1500350     0.1348000     1.1432270
  C       -1.6973100     0.4876920     0.1815770
  C        0.5358800     1.3938245    -0.5562518
  C       -0.8057180    -2.1460500    -0.2745700
  C       -2.5635920    -0.6025190     0.3218070
  C       -2.1294290    -1.9083920     0.0915650
  C       -2.2005820     1.8899870     0.4130340
  H        1.6305660    -2.3487650    -1.2074160
  H        1.8022820    -0.6509930    -1.6251500
  H        2.4785080    -1.9866810     1.0363320
  H        3.5296620    -1.0584230    -0.0385230
  H        1.3070990    -0.0748920     1.8087120
  H        2.9845300     0.4555350     1.7739000
  H        2.4430930     2.0063180     0.1171350
  H       -0.4670580    -3.1628320    -0.4675050
  H       -3.5988730    -0.4222000     0.6058720
  H       -2.8229980    -2.7393000     0.2003190
  H       -1.5534710     2.4410460     1.1016880
  H       -2.2209110     2.4548110    -0.5213210
  H       -3.2087000     1.8617690     0.8360960
units angstrom
no_reorient  #important for SAPT in psi4, default
symmetry c1  #important for SAPT in psi4, default
}

set PROPERTIES_ORIGIN ["COM"]
properties('MP2/aug-cc-pvtz', properties = ['dipole'])
--------------------------------------------------------------------------

    Molecular point group: c1
  Charge       = 0
  Multiplicity = 1
  Basis Set: AUG-CC-PVTZ
    Blend: AUG-CC-PVTZ
  Basis Set: (AUG-CC-PVTZ AUX)
    Blend: AUG-CC-PVTZ-JKFIT

    Orbital Energies [Eh]
    ---------------------

    Doubly Occupied:

       1A    -20.545616     2A    -15.550953     3A    -11.352886
       4A    -11.259178     5A    -11.255070     6A    -11.254136
       7A    -11.245313     8A    -11.242573     9A    -11.235162
      10A    -11.234373    11A    -11.233595    12A    -11.227737
      13A    -11.220595    14A     -1.462183    15A     -1.198688
      16A     -1.159190    17A     -1.077606    18A     -1.044287
      19A     -1.019736    20A     -0.940248    21A     -0.922599
      22A     -0.865421    23A     -0.821108    24A     -0.778284
      25A     -0.758137    26A     -0.687524    27A     -0.686609
      28A     -0.669069    29A     -0.656812    30A     -0.628404
      31A     -0.613438    32A     -0.597554    33A     -0.585019
      34A     -0.584139    35A     -0.569777    36A     -0.561622
      37A     -0.536283    38A     -0.528900    39A     -0.517449
      40A     -0.509551    41A     -0.484922    42A     -0.479718
      43A     -0.473267    44A     -0.413651    45A     -0.369991
      46A     -0.337507    47A     -0.327940

  @DF-RHF Final Energy:  -553.61024948860631

   => Energetics <=

    Nuclear Repulsion Energy =            795.5799643400266632
    One-Electron Energy =               -2330.9327929745595611
    Two-Electron Energy =                 981.7425791459265838
    Total Energy =                       -553.6102494886063141
  Basis Set: (AUG-CC-PVTZ AUX)
    Blend: AUG-CC-PVTZ-RI
    Molecular point group: c1

    Geometry (in Angstrom), charge = 0, multiplicity = 1:

       Center              X                  Y                   Z               Mass
    ------------   -----------------  -----------------  -----------------  -----------------
         O            0.329666937708     2.351231048569    -1.014675880513    15.994914619570
         N            1.804892937708     1.229505048569     0.313774119487    14.003074004430
         C            1.545311937708    -1.351246951431    -0.777874880513    12.000000000000
         C            2.524810937708    -1.146542951431     0.388375119487    12.000000000000
         C            0.110244937708    -1.103625951431    -0.381999880513    12.000000000000
         C           -0.342783062292     0.209645048569    -0.139163880513    12.000000000000
         C            2.166602937708     0.115587048569     1.176910119487    12.000000000000
         C           -1.680742062292     0.468479048569     0.215260119487    12.000000000000
         C            0.552447937708     1.374611548569    -0.522568680513    12.000000000000
         C           -0.789150062292    -2.165262951431    -0.240886880513    12.000000000000
         C           -2.547024062292    -0.621731951431     0.355490119487    12.000000000000
         C           -2.112861062292    -1.927604951431     0.125248119487    12.000000000000
         C           -2.184014062292     1.870774048569     0.446717119487    12.000000000000
         H            1.647133937708    -2.367977951431    -1.173732880513     1.007825032230
         H            1.818849937708    -0.670205951431    -1.591466880513     1.007825032230
         H            2.495075937708    -2.005893951431     1.070015119487     1.007825032230
         H            3.546229937708    -1.077635951431    -0.004839880513     1.007825032230
         H            1.323666937708    -0.094104951431     1.842395119487     1.007825032230
         H            3.001097937708     0.436322048569     1.807583119487     1.007825032230
         H            2.459660937708     1.987105048569     0.150818119487     1.007825032230
         H           -0.450490062292    -3.182044951431    -0.433821880513     1.007825032230
         H           -3.582305062292    -0.441412951431     0.639555119487     1.007825032230
         H           -2.806430062292    -2.758512951431     0.234002119487     1.007825032230
         H           -1.536903062292     2.421833048569     1.135371119487     1.007825032230
         H           -2.204343062292     2.435598048569    -0.487637880513     1.007825032230
         H           -3.192132062292     1.842556048569     0.869779119487     1.007825032230

  Basis Set: AUG-CC-PVTZ
    Blend: AUG-CC-PVTZ
  Basis Set: (AUG-CC-PVTZ AUX)
    Blend: AUG-CC-PVTZ-JKFIT
	 Reference Energy          =    -553.6102494886063141 [Eh]
	 Singles Energy            =      -0.0000000000000000 [Eh]
	 Same-Spin Energy          =      -0.6027410098587196 [Eh]
	 Opposite-Spin Energy      =      -1.9008866186303972 [Eh]
	 Correlation Energy        =      -2.5036276284891166 [Eh]
	 Total Energy              =    -556.1138771170953987 [Eh]

	 ================> DF-SCS-MP2 Energies <==================
	-----------------------------------------------------------
	 SCS Same-Spin Scale       =       0.3333333333333333 [-]
	 SCS Opposite-Spin Scale   =       1.2000000000000000 [-]
	 SCS Same-Spin Energy      =      -0.2009136699529065 [Eh]
	 SCS Opposite-Spin Energy  =      -2.2810639423564765 [Eh]
	 SCS Correlation Energy    =      -2.4819776123093829 [Eh]
	 SCS Total Energy          =    -556.0922271009156930 [Eh]
	-----------------------------------------------------------

  Dipole Moment: [D]
     X:     0.7409      Y:    -1.9657      Z:     1.2738     Total:     2.4567

*** Psi4 exiting successfully. Buy a developer a beer!
