                               Psi4 1.3.2 release

  ==> Input File <==

--------------------------------------------------------------------------
#psi4
#
memory 32 gb

molecule  {
0 1
  O        0.3130990     2.3704440    -1.0483590
  N        1.7883250     1.2487180     0.2800910
  C        1.5287440    -1.3320340    -0.8115580
  C        2.5082430    -1.1273300     0.3546920
  C        0.0936770    -1.0844130    -0.4156830
  C       -0.3593510     0.2288580    -0.1728470
  C        2.1500350     0.1348000     1.1432270
  C       -1.6973100     0.4876920     0.1815770
  C        0.5229795     1.3974291    -0.6044242
  C       -0.8057180    -2.1460500    -0.2745700
  C       -2.5635920    -0.6025190     0.3218070
  C       -2.1294290    -1.9083920     0.0915650
  C       -2.2005820     1.8899870     0.4130340
  H        1.6305660    -2.3487650    -1.2074160
  H        1.8022820    -0.6509930    -1.6251500
  H        2.4785080    -1.9866810     1.0363320
  H        3.5296620    -1.0584230    -0.0385230
  H        1.3070990    -0.0748920     1.8087120
  H        2.9845300     0.4555350     1.7739000
  H        2.4430930     2.0063180     0.1171350
  H       -0.4670580    -3.1628320    -0.4675050
  H       -3.5988730    -0.4222000     0.6058720
  H       -2.8229980    -2.7393000     0.2003190
  H       -1.5534710     2.4410460     1.1016880
  H       -2.2209110     2.4548110    -0.5213210
  H       -3.2087000     1.8617690     0.8360960
units angstrom
no_reorient  #important for SAPT in psi4, default
symmetry c1  #important for SAPT in psi4, default
}

set PROPERTIES_ORIGIN ["COM"]
properties('MP2/aug-cc-pvtz', properties = ['dipole'])
--------------------------------------------------------------------------

    Molecular point group: c1
  Charge       = 0
  Multiplicity = 1
  Basis Set: AUG-CC-PVTZ
    Blend: AUG-CC-PVTZ
  Basis Set: (AUG-CC-PVTZ AUX)
    Blend: AUG-CC-PVTZ-JKFIT

    Orbital Energies [Eh]
    ---------------------

    Doubly Occupied:

       1A    -20.554040     2A    -15.542313     3A    -11.353899
       4A    -11.255572     5A    -11.254930     6A    -11.254164
       7A    -11.245585     8A    -11.244051     9A    -11.235250
      10A    -11.233950    11A    -11.233419    12A    -11.225327
      13A    -11.221787    14A     -1.487519    15A     -1.190872
      16A     -1.156772    17A     -1.076109    18A     -1.044079
      19A     -1.017194    20A     -0.940347    21A     -0.919290
      22A     -0.863387    23A     -0.819048    24A     -0.777164
      25A     -0.757186    26A     -0.694061    27A     -0.687496
      28A     -0.670109    29A     -0.656554    30A     -0.629096
      31A     -0.614023    32A     -0.601504    33A     -0.591809
      34A     -0.582528    35A     -0.571094    36A     -0.561480
      37A     -0.537034    38A     -0.528732    39A     -0.516375
      40A     -0.509301    41A     -0.484090    42A     -0.479946
      43A     -0.472018    44A     -0.408428    45A     -0.363709
      46A     -0.336819    47A     -0.328099

  @DF-RHF Final Energy:  -553.58969136757833

   => Energetics <=

    Nuclear Repulsion Energy =            795.4441362260707820
    One-Electron Energy =               -2330.6125378390916012
    Two-Electron Energy =                 981.5787102454423803
    Total Energy =                       -553.5896913675783253
  Basis Set: (AUG-CC-PVTZ AUX)
    Blend: AUG-CC-PVTZ-RI
    Molecular point group: c1

    Geometry (in Angstrom), charge = 0, multiplicity = 1:

       Center              X                  Y                   Z               Mass
    ------------   -----------------  -----------------  -----------------  -----------------
         O            0.330551039665     2.350984016755    -1.011374511329    15.994914619570
         N            1.805777039665     1.229258016755     0.317075488671    14.003074004430
         C            1.546196039665    -1.351493983245    -0.774573511329    12.000000000000
         C            2.525695039665    -1.146789983245     0.391676488671    12.000000000000
         C            0.111129039665    -1.103872983245    -0.378698511329    12.000000000000
         C           -0.341898960335     0.209398016755    -0.135862511329    12.000000000000
         C            2.167487039665     0.115340016755     1.180211488671    12.000000000000
         C           -1.679857960335     0.468232016755     0.218561488671    12.000000000000
         C            0.540431539665     1.377969116755    -0.567439711329    12.000000000000
         C           -0.788265960335    -2.165509983245    -0.237585511329    12.000000000000
         C           -2.546139960335    -0.621978983245     0.358791488671    12.000000000000
         C           -2.111976960335    -1.927851983245     0.128549488671    12.000000000000
         C           -2.183129960335     1.870527016755     0.450018488671    12.000000000000
         H            1.648018039665    -2.368224983245    -1.170431511329     1.007825032230
         H            1.819734039665    -0.670452983245    -1.588165511329     1.007825032230
         H            2.495960039665    -2.006140983245     1.073316488671     1.007825032230
         H            3.547114039665    -1.077882983245    -0.001538511329     1.007825032230
         H            1.324551039665    -0.094351983245     1.845696488671     1.007825032230
         H            3.001982039665     0.436075016755     1.810884488671     1.007825032230
         H            2.460545039665     1.986858016755     0.154119488671     1.007825032230
         H           -0.449605960335    -3.182291983245    -0.430520511329     1.007825032230
         H           -3.581420960335    -0.441659983245     0.642856488671     1.007825032230
         H           -2.805545960335    -2.758759983245     0.237303488671     1.007825032230
         H           -1.536018960335     2.421586016755     1.138672488671     1.007825032230
         H           -2.203458960335     2.435351016755    -0.484336511329     1.007825032230
         H           -3.191247960335     1.842309016755     0.873080488671     1.007825032230

  Basis Set: AUG-CC-PVTZ
    Blend: AUG-CC-PVTZ
  Basis Set: (AUG-CC-PVTZ AUX)
    Blend: AUG-CC-PVTZ-JKFIT
	 Reference Energy          =    -553.5896913675783253 [Eh]
	 Singles Energy            =      -0.0000000000000000 [Eh]
	 Same-Spin Energy          =      -0.6026929383440727 [Eh]
	 Opposite-Spin Energy      =      -1.9010105506030357 [Eh]
	 Correlation Energy        =      -2.5037034889471084 [Eh]
	 Total Energy              =    -556.0933948565253786 [Eh]

	 ================> DF-SCS-MP2 Energies <==================
	-----------------------------------------------------------
	 SCS Same-Spin Scale       =       0.3333333333333333 [-]
	 SCS Opposite-Spin Scale   =       1.2000000000000000 [-]
	 SCS Same-Spin Energy      =      -0.2008976461146909 [Eh]
	 SCS Opposite-Spin Energy  =      -2.2812126607236429 [Eh]
	 SCS Correlation Energy    =      -2.4821103068383339 [Eh]
	 SCS Total Energy          =    -556.0718016744166334 [Eh]
	-----------------------------------------------------------

  Dipole Moment: [D]
     X:     0.4794      Y:    -1.8200      Z:     1.0187     Total:     2.1401

*** Psi4 exiting successfully. Buy a developer a beer!
