                               Psi4 1.3.2 release

  ==> Input File <==

--------------------------------------------------------------------------
#psi4
#
memory 32 gb

molecule  {
0 1
  O        0.3130990     2.3704440    -1.0483590
  N        1.7883250     1.2487180     0.2800910
  C        1.5287440    -1.3320340    -0.8115580
  C        2.5082430    -1.1273300     0.3546920
  C        0.0936770    -1.0844130    -0.4156830
  C       -0.2634028     0.1163258    -0.3744170
  C        2.1500350     0.1348000     1.1432270
  C       -1.6973100     0.4876920     0.1815770
  C        0.5874820     1.3794060    -0.3635620
  C       -0.8057180    -2.1460500    -0.2745700
  C       -2.5635920    -0.6025190     0.3218070
  C       -2.1294290    -1.9083920     0.0915650
  C       -2.2005820     1.8899870     0.4130340
  H        1.6305660    -2.3487650    -1.2074160
  H        1.8022820    -0.6509930    -1.6251500
  H        2.4785080    -1.9866810     1.0363320
  H        3.5296620    -1.0584230    -0.0385230
  H        1.3070990    -0.0748920     1.8087120
  H        2.9845300     0.4555350     1.7739000
  H        2.4430930     2.0063180     0.1171350
  H       -0.4670580    -3.1628320    -0.4675050
  H       -3.5988730    -0.4222000     0.6058720
  H       -2.8229980    -2.7393000     0.2003190
  H       -1.5534710     2.4410460     1.1016880
  H       -2.2209110     2.4548110    -0.5213210
  H       -3.2087000     1.8617690     0.8360960
units angstrom
no_reorient  #important for SAPT in psi4, default
symmetry c1  #important for SAPT in psi4, default
}

set PROPERTIES_ORIGIN ["COM"]
properties('MP2/aug-cc-pvtz', properties = ['dipole'])
--------------------------------------------------------------------------

    Molecular point group: c1
  Charge       = 0
  Multiplicity = 1
  Basis Set: AUG-CC-PVTZ
    Blend: AUG-CC-PVTZ
  Basis Set: (AUG-CC-PVTZ AUX)
    Blend: AUG-CC-PVTZ-JKFIT

    Orbital Energies [Eh]
    ---------------------

    Doubly Occupied:

       1A    -20.514608     2A    -15.583508     3A    -11.353751
       4A    -11.275513     5A    -11.266775     6A    -11.244997
       7A    -11.240667     8A    -11.236584     9A    -11.234555
      10A    -11.234250    11A    -11.232774    12A    -11.230480
      13A    -11.219503    14A     -1.368593    15A     -1.236699
      16A     -1.170316    17A     -1.085269    18A     -1.040177
      19A     -1.033663    20A     -0.941796    21A     -0.934272
      22A     -0.871121    23A     -0.827091    24A     -0.792152
      25A     -0.765148    26A     -0.692084    27A     -0.681266
      28A     -0.665764    29A     -0.656723    30A     -0.621641
      31A     -0.609877    32A     -0.593900    33A     -0.582042
      34A     -0.568947    35A     -0.560445    36A     -0.555153
      37A     -0.537354    38A     -0.531516    39A     -0.514070
      40A     -0.505878    41A     -0.488415    42A     -0.479584
      43A     -0.457969    44A     -0.412698    45A     -0.386421
      46A     -0.358085    47A     -0.312604

  @DF-RHF Final Energy:  -553.59424549401183

   => Energetics <=

    Nuclear Repulsion Energy =            796.0432100526965087
    One-Electron Energy =               -2331.8615200619142342
    Two-Electron Energy =                 982.2240645152060097
    Total Energy =                       -553.5942454940118296
  Basis Set: (AUG-CC-PVTZ AUX)
    Blend: AUG-CC-PVTZ-RI
    Molecular point group: c1

    Geometry (in Angstrom), charge = 0, multiplicity = 1:

       Center              X                  Y                   Z               Mass
    ------------   -----------------  -----------------  -----------------  -----------------
         O            0.319554971451     2.359931282081    -1.014067299279    15.994914619570
         N            1.794780971451     1.238205282081     0.314382700721    14.003074004430
         C            1.535199971451    -1.342546717919    -0.777266299279    12.000000000000
         C            2.514698971451    -1.137842717919     0.388983700721    12.000000000000
         C            0.100132971451    -1.094925717919    -0.381391299279    12.000000000000
         C           -0.256946828549     0.105813082081    -0.340125299279    12.000000000000
         C            2.156490971451     0.124287282081     1.177518700721    12.000000000000
         C           -1.690854028549     0.477179282081     0.215868700721    12.000000000000
         C            0.593937971451     1.368893282081    -0.329270299279    12.000000000000
         C           -0.799262028549    -2.156562717919    -0.240278299279    12.000000000000
         C           -2.557136028549    -0.613031717919     0.356098700721    12.000000000000
         C           -2.122973028549    -1.918904717919     0.125856700721    12.000000000000
         C           -2.194126028549     1.879474282081     0.447325700721    12.000000000000
         H            1.637021971451    -2.359277717919    -1.173124299279     1.007825032230
         H            1.808737971451    -0.661505717919    -1.590858299279     1.007825032230
         H            2.484963971451    -1.997193717919     1.070623700721     1.007825032230
         H            3.536117971451    -1.068935717919    -0.004231299279     1.007825032230
         H            1.313554971451    -0.085404717919     1.843003700721     1.007825032230
         H            2.990985971451     0.445022282081     1.808191700721     1.007825032230
         H            2.449548971451     1.995805282081     0.151426700721     1.007825032230
         H           -0.460602028549    -3.173344717919    -0.433213299279     1.007825032230
         H           -3.592417028549    -0.432712717919     0.640163700721     1.007825032230
         H           -2.816542028549    -2.749812717919     0.234610700721     1.007825032230
         H           -1.547015028549     2.430533282081     1.135979700721     1.007825032230
         H           -2.214455028549     2.444298282081    -0.487029299279     1.007825032230
         H           -3.202244028549     1.851256282081     0.870387700721     1.007825032230

  Basis Set: AUG-CC-PVTZ
    Blend: AUG-CC-PVTZ
  Basis Set: (AUG-CC-PVTZ AUX)
    Blend: AUG-CC-PVTZ-JKFIT
	 Reference Energy          =    -553.5942454940118296 [Eh]
	 Singles Energy            =      -0.0000000000000000 [Eh]
	 Same-Spin Energy          =      -0.6033964407368844 [Eh]
	 Opposite-Spin Energy      =      -1.9048375528390808 [Eh]
	 Correlation Energy        =      -2.5082339935759652 [Eh]
	 Total Energy              =    -556.1024794875877433 [Eh]

	 ================> DF-SCS-MP2 Energies <==================
	-----------------------------------------------------------
	 SCS Same-Spin Scale       =       0.3333333333333333 [-]
	 SCS Opposite-Spin Scale   =       1.2000000000000000 [-]
	 SCS Same-Spin Energy      =      -0.2011321469122948 [Eh]
	 SCS Opposite-Spin Energy  =      -2.2858050634068969 [Eh]
	 SCS Correlation Energy    =      -2.4869372103191916 [Eh]
	 SCS Total Energy          =    -556.0811827043310132 [Eh]
	-----------------------------------------------------------

  Dipole Moment: [D]
     X:     1.6957      Y:    -2.4801      Z:     2.1971     Total:     3.7220

*** Psi4 exiting successfully. Buy a developer a beer!
