                               Psi4 1.3.2 release

  ==> Input File <==

--------------------------------------------------------------------------
#psi4
#
memory 32 gb

molecule  {
0 1
  O        0.3130990     2.3704440    -1.0483590
  N        1.7883250     1.2487180     0.2800910
  C        1.5287440    -1.3320340    -0.8115580
  C        2.5082430    -1.1273300     0.3546920
  C        0.0936770    -1.0844130    -0.4156830
  C       -0.3593510     0.2288580    -0.1728470
  C        2.1500350     0.1348000     1.1432270
  C       -1.6973100     0.4876920     0.1815770
  C        0.5745815     1.3830106    -0.4117344
  C       -0.8057180    -2.1460500    -0.2745700
  C       -2.5635920    -0.6025190     0.3218070
  C       -2.1294290    -1.9083920     0.0915650
  C       -2.2005820     1.8899870     0.4130340
  H        1.6305660    -2.3487650    -1.2074160
  H        1.8022820    -0.6509930    -1.6251500
  H        2.4785080    -1.9866810     1.0363320
  H        3.5296620    -1.0584230    -0.0385230
  H        1.3070990    -0.0748920     1.8087120
  H        2.9845300     0.4555350     1.7739000
  H        2.4430930     2.0063180     0.1171350
  H       -0.4670580    -3.1628320    -0.4675050
  H       -3.5988730    -0.4222000     0.6058720
  H       -2.8229980    -2.7393000     0.2003190
  H       -1.5534710     2.4410460     1.1016880
  H       -2.2209110     2.4548110    -0.5213210
  H       -3.2087000     1.8617690     0.8360960
units angstrom
no_reorient  #important for SAPT in psi4, default
symmetry c1  #important for SAPT in psi4, default
}

set PROPERTIES_ORIGIN ["COM"]
properties('MP2/aug-cc-pvtz', properties = ['dipole'])
--------------------------------------------------------------------------

    Molecular point group: c1
  Charge       = 0
  Multiplicity = 1
  Basis Set: AUG-CC-PVTZ
    Blend: AUG-CC-PVTZ
  Basis Set: (AUG-CC-PVTZ AUX)
    Blend: AUG-CC-PVTZ-JKFIT

    Orbital Energies [Eh]
    ---------------------

    Doubly Occupied:

       1A    -20.520894     2A    -15.575316     3A    -11.350911
       4A    -11.271127     5A    -11.254273     6A    -11.253879
       7A    -11.244646     8A    -11.241444     9A    -11.237237
      10A    -11.235208    11A    -11.235016    12A    -11.232877
      13A    -11.217081    14A     -1.388650    15A     -1.226777
      16A     -1.163016    17A     -1.082732    18A     -1.044685
      19A     -1.026714    20A     -0.941530    21A     -0.931441
      22A     -0.871548    23A     -0.827762    24A     -0.782685
      25A     -0.766340    26A     -0.691928    27A     -0.680417
      28A     -0.662059    29A     -0.658038    30A     -0.621666
      31A     -0.614208    32A     -0.592513    33A     -0.586540
      34A     -0.571722    35A     -0.566269    36A     -0.554961
      37A     -0.532431    38A     -0.529910    39A     -0.516117
      40A     -0.506918    41A     -0.488028    42A     -0.479293
      43A     -0.474357    44A     -0.419305    45A     -0.383975
      46A     -0.337283    47A     -0.327620

  @DF-RHF Final Energy:  -553.64256568121834

   => Energetics <=

    Nuclear Repulsion Energy =            795.8927417198242438
    One-Electron Energy =               -2331.6319235385976754
    Two-Electron Energy =                 982.0966161375550882
    Total Energy =                       -553.6425656812183433
  Basis Set: (AUG-CC-PVTZ AUX)
    Blend: AUG-CC-PVTZ-RI
    Molecular point group: c1

    Geometry (in Angstrom), charge = 0, multiplicity = 1:

       Center              X                  Y                   Z               Mass
    ------------   -----------------  -----------------  -----------------  -----------------
         O            0.327014631834     2.351972150865    -1.024580001770    15.994914619570
         N            1.802240631834     1.230246150865     0.303869998230    14.003074004430
         C            1.542659631834    -1.350505849135    -0.787779001770    12.000000000000
         C            2.522158631834    -1.145801849135     0.378470998230    12.000000000000
         C            0.107592631834    -1.102884849135    -0.391904001770    12.000000000000
         C           -0.345435368166     0.210386150865    -0.149068001770    12.000000000000
         C            2.163950631834     0.116328150865     1.167005998230    12.000000000000
         C           -1.683394368166     0.469220150865     0.205355998230    12.000000000000
         C            0.588497131834     1.364538750865    -0.387955401770    12.000000000000
         C           -0.791802368166    -2.164521849135    -0.250791001770    12.000000000000
         C           -2.549676368166    -0.620990849135     0.345585998230    12.000000000000
         C           -2.115513368166    -1.926863849135     0.115343998230    12.000000000000
         C           -2.186666368166     1.871515150865     0.436812998230    12.000000000000
         H            1.644481631834    -2.367236849135    -1.183637001770     1.007825032230
         H            1.816197631834    -0.669464849135    -1.601371001770     1.007825032230
         H            2.492423631834    -2.005152849135     1.060110998230     1.007825032230
         H            3.543577631834    -1.076894849135    -0.014744001770     1.007825032230
         H            1.321014631834    -0.093363849135     1.832490998230     1.007825032230
         H            2.998445631834     0.437063150865     1.797678998230     1.007825032230
         H            2.457008631834     1.987846150865     0.140913998230     1.007825032230
         H           -0.453142368166    -3.181303849135    -0.443726001770     1.007825032230
         H           -3.584957368166    -0.440671849135     0.629650998230     1.007825032230
         H           -2.809082368166    -2.757771849135     0.224097998230     1.007825032230
         H           -1.539555368166     2.422574150865     1.125466998230     1.007825032230
         H           -2.206995368166     2.436339150865    -0.497542001770     1.007825032230
         H           -3.194784368166     1.843297150865     0.859874998230     1.007825032230

  Basis Set: AUG-CC-PVTZ
    Blend: AUG-CC-PVTZ
  Basis Set: (AUG-CC-PVTZ AUX)
    Blend: AUG-CC-PVTZ-JKFIT
	 Reference Energy          =    -553.6425656812183433 [Eh]
	 Singles Energy            =      -0.0000000000000000 [Eh]
	 Same-Spin Energy          =      -0.6036574225599998 [Eh]
	 Opposite-Spin Energy      =      -1.9021559646257324 [Eh]
	 Correlation Energy        =      -2.5058133871857322 [Eh]
	 Total Energy              =    -556.1483790684040969 [Eh]

	 ================> DF-SCS-MP2 Energies <==================
	-----------------------------------------------------------
	 SCS Same-Spin Scale       =       0.3333333333333333 [-]
	 SCS Opposite-Spin Scale   =       1.2000000000000000 [-]
	 SCS Same-Spin Energy      =      -0.2012191408533333 [Eh]
	 SCS Opposite-Spin Energy  =      -2.2825871575508789 [Eh]
	 SCS Correlation Energy    =      -2.4838062984042120 [Eh]
	 SCS Total Energy          =    -556.1263719796226042 [Eh]
	-----------------------------------------------------------

  Dipole Moment: [D]
     X:     1.4909      Y:    -2.3995      Z:     1.9885     Total:     3.4547

*** Psi4 exiting successfully. Buy a developer a beer!
