                               Psi4 1.3.2 release

  ==> Input File <==

--------------------------------------------------------------------------
#psi4
#
memory 32 gb

molecule  {
0 1
  O        0.3130990     2.3704440    -1.0483590
  N        1.7883250     1.2487180     0.2800910
  C        1.5287440    -1.3320340    -0.8115580
  C        2.5082430    -1.1273300     0.3546920
  C        0.0936770    -1.0844130    -0.4156830
  C       -0.3017821     0.1613387    -0.2937890
  C        2.1500350     0.1348000     1.1432270
  C       -1.6973100     0.4876920     0.1815770
  C        0.5874820     1.3794060    -0.3635620
  C       -0.8057180    -2.1460500    -0.2745700
  C       -2.5635920    -0.6025190     0.3218070
  C       -2.1294290    -1.9083920     0.0915650
  C       -2.2005820     1.8899870     0.4130340
  H        1.6305660    -2.3487650    -1.2074160
  H        1.8022820    -0.6509930    -1.6251500
  H        2.4785080    -1.9866810     1.0363320
  H        3.5296620    -1.0584230    -0.0385230
  H        1.3070990    -0.0748920     1.8087120
  H        2.9845300     0.4555350     1.7739000
  H        2.4430930     2.0063180     0.1171350
  H       -0.4670580    -3.1628320    -0.4675050
  H       -3.5988730    -0.4222000     0.6058720
  H       -2.8229980    -2.7393000     0.2003190
  H       -1.5534710     2.4410460     1.1016880
  H       -2.2209110     2.4548110    -0.5213210
  H       -3.2087000     1.8617690     0.8360960
units angstrom
no_reorient  #important for SAPT in psi4, default
symmetry c1  #important for SAPT in psi4, default
}

set PROPERTIES_ORIGIN ["COM"]
properties('MP2/aug-cc-pvtz', properties = ['dipole'])
--------------------------------------------------------------------------

    Molecular point group: c1
  Charge       = 0
  Multiplicity = 1
  Basis Set: AUG-CC-PVTZ
    Blend: AUG-CC-PVTZ
  Basis Set: (AUG-CC-PVTZ AUX)
    Blend: AUG-CC-PVTZ-JKFIT

    Orbital Energies [Eh]
    ---------------------

    Doubly Occupied:

       1A    -20.513560     2A    -15.583194     3A    -11.351635
       4A    -11.275151     5A    -11.262691     6A    -11.244597
       7A    -11.242711     8A    -11.240769     9A    -11.236931
      10A    -11.235543    11A    -11.234703    12A    -11.231513
      13A    -11.218375    14A     -1.368092    15A     -1.236018
      16A     -1.166408    17A     -1.084371    18A     -1.038264
      19A     -1.035728    20A     -0.942585    21A     -0.933884
      22A     -0.872624    23A     -0.827914    24A     -0.785178
      25A     -0.772071    26A     -0.693087    27A     -0.681868
      28A     -0.663112    29A     -0.657937    30A     -0.620550
      31A     -0.611817    32A     -0.592067    33A     -0.583545
      34A     -0.569176    35A     -0.563231    36A     -0.554221
      37A     -0.535053    38A     -0.531188    39A     -0.514106
      40A     -0.505083    41A     -0.489268    42A     -0.479409
      43A     -0.466175    44A     -0.416523    45A     -0.386253
      46A     -0.348160    47A     -0.318520

  @DF-RHF Final Energy:  -553.62606081691683

   => Energetics <=

    Nuclear Repulsion Energy =            796.0649609445896431
    One-Electron Energy =               -2331.9523232721508066
    Two-Electron Energy =                 982.2613015106444436
    Total Energy =                       -553.6260608169168336
  Basis Set: (AUG-CC-PVTZ AUX)
    Blend: AUG-CC-PVTZ-RI
    Molecular point group: c1

    Geometry (in Angstrom), charge = 0, multiplicity = 1:

       Center              X                  Y                   Z               Mass
    ------------   -----------------  -----------------  -----------------  -----------------
         O            0.322185196192     2.356846440949    -1.019592927949    15.994914619570
         N            1.797411196192     1.235120440949     0.308857072051    14.003074004430
         C            1.537830196192    -1.345631559051    -0.782791927949    12.000000000000
         C            2.517329196192    -1.140927559051     0.383458072051    12.000000000000
         C            0.102763196192    -1.098010559051    -0.386916927949    12.000000000000
         C           -0.292695903808     0.147741140949    -0.265022927949    12.000000000000
         C            2.159121196192     0.121202440949     1.171993072051    12.000000000000
         C           -1.688223803808     0.474094440949     0.210343072051    12.000000000000
         C            0.596568196192     1.365808440949    -0.334795927949    12.000000000000
         C           -0.796631803808    -2.159647559051    -0.245803927949    12.000000000000
         C           -2.554505803808    -0.616116559051     0.350573072051    12.000000000000
         C           -2.120342803808    -1.921989559051     0.120331072051    12.000000000000
         C           -2.191495803808     1.876389440949     0.441800072051    12.000000000000
         H            1.639652196192    -2.362362559051    -1.178649927949     1.007825032230
         H            1.811368196192    -0.664590559051    -1.596383927949     1.007825032230
         H            2.487594196192    -2.000278559051     1.065098072051     1.007825032230
         H            3.538748196192    -1.072020559051    -0.009756927949     1.007825032230
         H            1.316185196192    -0.088489559051     1.837478072051     1.007825032230
         H            2.993616196192     0.441937440949     1.802666072051     1.007825032230
         H            2.452179196192     1.992720440949     0.145901072051     1.007825032230
         H           -0.457971803808    -3.176429559051    -0.438738927949     1.007825032230
         H           -3.589786803808    -0.435797559051     0.634638072051     1.007825032230
         H           -2.813911803808    -2.752897559051     0.229085072051     1.007825032230
         H           -1.544384803808     2.427448440949     1.130454072051     1.007825032230
         H           -2.211824803808     2.441213440949    -0.492554927949     1.007825032230
         H           -3.199613803808     1.848171440949     0.864862072051     1.007825032230

  Basis Set: AUG-CC-PVTZ
    Blend: AUG-CC-PVTZ
  Basis Set: (AUG-CC-PVTZ AUX)
    Blend: AUG-CC-PVTZ-JKFIT
	 Reference Energy          =    -553.6260608169168336 [Eh]
	 Singles Energy            =      -0.0000000000000000 [Eh]
	 Same-Spin Energy          =      -0.6037239883058404 [Eh]
	 Opposite-Spin Energy      =      -1.9035269423544821 [Eh]
	 Correlation Energy        =      -2.5072509306603226 [Eh]
	 Total Energy              =    -556.1333117475771814 [Eh]

	 ================> DF-SCS-MP2 Energies <==================
	-----------------------------------------------------------
	 SCS Same-Spin Scale       =       0.3333333333333333 [-]
	 SCS Opposite-Spin Scale   =       1.2000000000000000 [-]
	 SCS Same-Spin Energy      =      -0.2012413294352801 [Eh]
	 SCS Opposite-Spin Energy  =      -2.2842323308253785 [Eh]
	 SCS Correlation Energy    =      -2.4854736602606584 [Eh]
	 SCS Total Energy          =    -556.1115344771775426 [Eh]
	-----------------------------------------------------------

  Dipole Moment: [D]
     X:     1.6995      Y:    -2.4992      Z:     2.2043     Total:     3.7407

*** Psi4 exiting successfully. Buy a developer a beer!
