                               Psi4 1.3.2 release

  ==> Input File <==

--------------------------------------------------------------------------
#psi4
#
memory 32 gb

molecule  {
0 1
  O        0.3130990     2.3704440    -1.0483590
  N        1.7883250     1.2487180     0.2800910
  C        1.5287440    -1.3320340    -0.8115580
  C        2.5082430    -1.1273300     0.3546920
  C        0.0936770    -1.0844130    -0.4156830
  C       -0.3593510     0.2288580    -0.1728470
  C        2.1500350     0.1348000     1.1432270
  C       -1.6973100     0.4876920     0.1815770
  C        0.5487805     1.3902199    -0.5080793
  C       -0.8057180    -2.1460500    -0.2745700
  C       -2.5635920    -0.6025190     0.3218070
  C       -2.1294290    -1.9083920     0.0915650
  C       -2.2005820     1.8899870     0.4130340
  H        1.6305660    -2.3487650    -1.2074160
  H        1.8022820    -0.6509930    -1.6251500
  H        2.4785080    -1.9866810     1.0363320
  H        3.5296620    -1.0584230    -0.0385230
  H        1.3070990    -0.0748920     1.8087120
  H        2.9845300     0.4555350     1.7739000
  H        2.4430930     2.0063180     0.1171350
  H       -0.4670580    -3.1628320    -0.4675050
  H       -3.5988730    -0.4222000     0.6058720
  H       -2.8229980    -2.7393000     0.2003190
  H       -1.5534710     2.4410460     1.1016880
  H       -2.2209110     2.4548110    -0.5213210
  H       -3.2087000     1.8617690     0.8360960
units angstrom
no_reorient  #important for SAPT in psi4, default
symmetry c1  #important for SAPT in psi4, default
}

set PROPERTIES_ORIGIN ["COM"]
properties('MP2/aug-cc-pvtz', properties = ['dipole'])
--------------------------------------------------------------------------

    Molecular point group: c1
  Charge       = 0
  Multiplicity = 1
  Basis Set: AUG-CC-PVTZ
    Blend: AUG-CC-PVTZ
  Basis Set: (AUG-CC-PVTZ AUX)
    Blend: AUG-CC-PVTZ-JKFIT

    Orbital Energies [Eh]
    ---------------------

    Doubly Occupied:

       1A    -20.537318     2A    -15.559302     3A    -11.352098
       4A    -11.263278     5A    -11.254644     6A    -11.254162
       7A    -11.245082     8A    -11.241682     9A    -11.235325
      10A    -11.235134    11A    -11.233311    12A    -11.230153
      13A    -11.219422    14A     -1.436877    15A     -1.207622
      16A     -1.160887    17A     -1.079215    18A     -1.044462
      19A     -1.022191    20A     -0.940321    21A     -0.925840
      22A     -0.867459    23A     -0.823258    24A     -0.779532
      25A     -0.760163    26A     -0.688336    27A     -0.681374
      28A     -0.667666    29A     -0.657066    30A     -0.627007
      31A     -0.613124    32A     -0.596124    33A     -0.585593
      34A     -0.577739    35A     -0.568093    36A     -0.560806
      37A     -0.535186    38A     -0.529059    39A     -0.517990
      40A     -0.509225    41A     -0.485886    42A     -0.479506
      43A     -0.474127    44A     -0.417368    45A     -0.375624
      46A     -0.337806    47A     -0.327815

  @DF-RHF Final Energy:  -553.62603308578571

   => Energetics <=

    Nuclear Repulsion Energy =            795.6976220741506722
    One-Electron Energy =               -2331.2047840889404142
    Two-Electron Energy =                 981.8811289290039213
    Total Energy =                       -553.6260330857857070
  Basis Set: (AUG-CC-PVTZ AUX)
    Blend: AUG-CC-PVTZ-RI
    Molecular point group: c1

    Geometry (in Angstrom), charge = 0, multiplicity = 1:

       Center              X                  Y                   Z               Mass
    ------------   -----------------  -----------------  -----------------  -----------------
         O            0.328782835750     2.351478080383    -1.017977256549    15.994914619570
         N            1.804008835750     1.229752080383     0.310472743451    14.003074004430
         C            1.544427835750    -1.350999919617    -0.781176256549    12.000000000000
         C            2.523926835750    -1.146295919617     0.385073743451    12.000000000000
         C            0.109360835750    -1.103378919617    -0.385301256549    12.000000000000
         C           -0.343667164250     0.209892080383    -0.142465256549    12.000000000000
         C            2.165718835750     0.115834080383     1.173608743451    12.000000000000
         C           -1.681626164250     0.468726080383     0.211958743451    12.000000000000
         C            0.564464335750     1.371253980383    -0.477697556549    12.000000000000
         C           -0.790034164250    -2.165015919617    -0.244188256549    12.000000000000
         C           -2.547908164250    -0.621484919617     0.352188743451    12.000000000000
         C           -2.113745164250    -1.927357919617     0.121946743451    12.000000000000
         C           -2.184898164250     1.871021080383     0.443415743451    12.000000000000
         H            1.646249835750    -2.367730919617    -1.177034256549     1.007825032230
         H            1.817965835750    -0.669958919617    -1.594768256549     1.007825032230
         H            2.494191835750    -2.005646919617     1.066713743451     1.007825032230
         H            3.545345835750    -1.077388919617    -0.008141256549     1.007825032230
         H            1.322782835750    -0.093857919617     1.839093743451     1.007825032230
         H            3.000213835750     0.436569080383     1.804281743451     1.007825032230
         H            2.458776835750     1.987352080383     0.147516743451     1.007825032230
         H           -0.451374164250    -3.181797919617    -0.437123256549     1.007825032230
         H           -3.583189164250    -0.441165919617     0.636253743451     1.007825032230
         H           -2.807314164250    -2.758265919617     0.230700743451     1.007825032230
         H           -1.537787164250     2.422080080383     1.132069743451     1.007825032230
         H           -2.205227164250     2.435845080383    -0.490939256549     1.007825032230
         H           -3.193016164250     1.842803080383     0.866477743451     1.007825032230

  Basis Set: AUG-CC-PVTZ
    Blend: AUG-CC-PVTZ
  Basis Set: (AUG-CC-PVTZ AUX)
    Blend: AUG-CC-PVTZ-JKFIT
	 Reference Energy          =    -553.6260330857857070 [Eh]
	 Singles Energy            =      -0.0000000000000000 [Eh]
	 Same-Spin Energy          =      -0.6029205278372246 [Eh]
	 Opposite-Spin Energy      =      -1.9010388715363888 [Eh]
	 Correlation Energy        =      -2.5039593993736133 [Eh]
	 Total Energy              =    -556.1299924851592777 [Eh]

	 ================> DF-SCS-MP2 Energies <==================
	-----------------------------------------------------------
	 SCS Same-Spin Scale       =       0.3333333333333333 [-]
	 SCS Opposite-Spin Scale   =       1.2000000000000000 [-]
	 SCS Same-Spin Energy      =      -0.2009735092790749 [Eh]
	 SCS Opposite-Spin Energy  =      -2.2812466458436664 [Eh]
	 SCS Correlation Energy    =      -2.4822201551227412 [Eh]
	 SCS Total Energy          =    -556.1082532409084251 [Eh]
	-----------------------------------------------------------

  Dipole Moment: [D]
     X:     0.9970      Y:    -2.1119      Z:     1.5217     Total:     2.7874

*** Psi4 exiting successfully. Buy a developer a beer!
