                               Psi4 1.3.2 release

  ==> Input File <==

--------------------------------------------------------------------------
#psi4
#
memory 32 gb

molecule  {
0 1
  O        0.3130990     2.3704440    -1.0483590
  N        1.7883250     1.2487180     0.2800910
  C        1.5287440    -1.3320340    -0.8115580
  C        2.5082430    -1.1273300     0.3546920
  C        0.0936770    -1.0844130    -0.4156830
  C       -0.3209717     0.1838451    -0.2534750
  C        2.1500350     0.1348000     1.1432270
  C       -1.6973100     0.4876920     0.1815770
  C        0.5874820     1.3794060    -0.3635620
  C       -0.8057180    -2.1460500    -0.2745700
  C       -2.5635920    -0.6025190     0.3218070
  C       -2.1294290    -1.9083920     0.0915650
  C       -2.2005820     1.8899870     0.4130340
  H        1.6305660    -2.3487650    -1.2074160
  H        1.8022820    -0.6509930    -1.6251500
  H        2.4785080    -1.9866810     1.0363320
  H        3.5296620    -1.0584230    -0.0385230
  H        1.3070990    -0.0748920     1.8087120
  H        2.9845300     0.4555350     1.7739000
  H        2.4430930     2.0063180     0.1171350
  H       -0.4670580    -3.1628320    -0.4675050
  H       -3.5988730    -0.4222000     0.6058720
  H       -2.8229980    -2.7393000     0.2003190
  H       -1.5534710     2.4410460     1.1016880
  H       -2.2209110     2.4548110    -0.5213210
  H       -3.2087000     1.8617690     0.8360960
units angstrom
no_reorient  #important for SAPT in psi4, default
symmetry c1  #important for SAPT in psi4, default
}

set PROPERTIES_ORIGIN ["COM"]
properties('MP2/aug-cc-pvtz', properties = ['dipole'])
--------------------------------------------------------------------------

    Molecular point group: c1
  Charge       = 0
  Multiplicity = 1
  Basis Set: AUG-CC-PVTZ
    Blend: AUG-CC-PVTZ
  Basis Set: (AUG-CC-PVTZ AUX)
    Blend: AUG-CC-PVTZ-JKFIT

    Orbital Energies [Eh]
    ---------------------

    Doubly Occupied:

       1A    -20.513169     2A    -15.583108     3A    -11.350945
       4A    -11.275035     5A    -11.259991     6A    -11.246412
       7A    -11.244473     8A    -11.241698     9A    -11.237189
      10A    -11.236315    11A    -11.234932    12A    -11.231953
      13A    -11.217629    14A     -1.367887    15A     -1.235758
      16A     -1.165089    17A     -1.084235    18A     -1.040270
      19A     -1.033635    20A     -0.942884    21A     -0.933671
      22A     -0.873100    23A     -0.828522    24A     -0.782006
      25A     -0.774706    26A     -0.693466    27A     -0.682198
      28A     -0.661735    29A     -0.658581    30A     -0.620084
      31A     -0.612985    32A     -0.591401    33A     -0.584019
      34A     -0.569345    35A     -0.564482    36A     -0.553773
      37A     -0.533859    38A     -0.531015    39A     -0.514066
      40A     -0.504828    41A     -0.489567    42A     -0.479362
      43A     -0.469498    44A     -0.417354    45A     -0.386163
      46A     -0.343429    47A     -0.321802

  @DF-RHF Final Energy:  -553.63583177068210

   => Energetics <=

    Nuclear Repulsion Energy =            796.0508676480999384
    One-Electron Energy =               -2331.9381535316629197
    Two-Electron Energy =                 982.2514541128808787
    Total Energy =                       -553.6358317706821026
  Basis Set: (AUG-CC-PVTZ AUX)
    Blend: AUG-CC-PVTZ-RI
    Molecular point group: c1

    Geometry (in Angstrom), charge = 0, multiplicity = 1:

       Center              X                  Y                   Z               Mass
    ------------   -----------------  -----------------  -----------------  -----------------
         O            0.323500305135     2.355304023810    -1.022355742284    15.994914619570
         N            1.798726305135     1.233578023810     0.306094257716    14.003074004430
         C            1.539145305135    -1.347173976190    -0.785554742284    12.000000000000
         C            2.518644305135    -1.142469976190     0.380695257716    12.000000000000
         C            0.104078305135    -1.099552976190    -0.389679742284    12.000000000000
         C           -0.310570394865     0.168705123810    -0.227471742284    12.000000000000
         C            2.160436305135     0.119660023810     1.169230257716    12.000000000000
         C           -1.686908694865     0.472552023810     0.207580257716    12.000000000000
         C            0.597883305135     1.364266023810    -0.337558742284    12.000000000000
         C           -0.795316694865    -2.161189976190    -0.248566742284    12.000000000000
         C           -2.553190694865    -0.617658976190     0.347810257716    12.000000000000
         C           -2.119027694865    -1.923531976190     0.117568257716    12.000000000000
         C           -2.190180694865     1.874847023810     0.439037257716    12.000000000000
         H            1.640967305135    -2.363904976190    -1.181412742284     1.007825032230
         H            1.812683305135    -0.666132976190    -1.599146742284     1.007825032230
         H            2.488909305135    -2.001820976190     1.062335257716     1.007825032230
         H            3.540063305135    -1.073562976190    -0.012519742284     1.007825032230
         H            1.317500305135    -0.090031976190     1.834715257716     1.007825032230
         H            2.994931305135     0.440395023810     1.799903257716     1.007825032230
         H            2.453494305135     1.991178023810     0.143138257716     1.007825032230
         H           -0.456656694865    -3.177971976190    -0.441501742284     1.007825032230
         H           -3.588471694865    -0.437339976190     0.631875257716     1.007825032230
         H           -2.812596694865    -2.754439976190     0.226322257716     1.007825032230
         H           -1.543069694865     2.425906023810     1.127691257716     1.007825032230
         H           -2.210509694865     2.439671023810    -0.495317742284     1.007825032230
         H           -3.198298694865     1.846629023810     0.862099257716     1.007825032230

  Basis Set: AUG-CC-PVTZ
    Blend: AUG-CC-PVTZ
  Basis Set: (AUG-CC-PVTZ AUX)
    Blend: AUG-CC-PVTZ-JKFIT
	 Reference Energy          =    -553.6358317706821026 [Eh]
	 Singles Energy            =      -0.0000000000000000 [Eh]
	 Same-Spin Energy          =      -0.6039185825696218 [Eh]
	 Opposite-Spin Energy      =      -1.9031850555648435 [Eh]
	 Correlation Energy        =      -2.5071036381344651 [Eh]
	 Total Energy              =    -556.1429354088165837 [Eh]

	 ================> DF-SCS-MP2 Energies <==================
	-----------------------------------------------------------
	 SCS Same-Spin Scale       =       0.3333333333333333 [-]
	 SCS Opposite-Spin Scale   =       1.2000000000000000 [-]
	 SCS Same-Spin Energy      =      -0.2013061941898739 [Eh]
	 SCS Opposite-Spin Energy  =      -2.2838220666778120 [Eh]
	 SCS Correlation Energy    =      -2.4851282608676861 [Eh]
	 SCS Total Energy          =    -556.1209600315497710 [Eh]
	-----------------------------------------------------------

  Dipole Moment: [D]
     X:     1.7074      Y:    -2.5114      Z:     2.2055     Total:     3.7533

*** Psi4 exiting successfully. Buy a developer a beer!
