                               Psi4 1.3.2 release

  ==> Input File <==

--------------------------------------------------------------------------
#psi4
#
memory 32 gb

molecule  {
0 1
  O        0.3130990     2.3704440    -1.0483590
  N        1.7883250     1.2487180     0.2800910
  C        1.5287440    -1.3320340    -0.8115580
  C        2.5082430    -1.1273300     0.3546920
  C        0.0936770    -1.0844130    -0.4156830
  C       -0.3401614     0.2063516    -0.2131610
  C        2.1500350     0.1348000     1.1432270
  C       -1.6973100     0.4876920     0.1815770
  C        0.5874820     1.3794060    -0.3635620
  C       -0.8057180    -2.1460500    -0.2745700
  C       -2.5635920    -0.6025190     0.3218070
  C       -2.1294290    -1.9083920     0.0915650
  C       -2.2005820     1.8899870     0.4130340
  H        1.6305660    -2.3487650    -1.2074160
  H        1.8022820    -0.6509930    -1.6251500
  H        2.4785080    -1.9866810     1.0363320
  H        3.5296620    -1.0584230    -0.0385230
  H        1.3070990    -0.0748920     1.8087120
  H        2.9845300     0.4555350     1.7739000
  H        2.4430930     2.0063180     0.1171350
  H       -0.4670580    -3.1628320    -0.4675050
  H       -3.5988730    -0.4222000     0.6058720
  H       -2.8229980    -2.7393000     0.2003190
  H       -1.5534710     2.4410460     1.1016880
  H       -2.2209110     2.4548110    -0.5213210
  H       -3.2087000     1.8617690     0.8360960
units angstrom
no_reorient  #important for SAPT in psi4, default
symmetry c1  #important for SAPT in psi4, default
}

set PROPERTIES_ORIGIN ["COM"]
properties('MP2/aug-cc-pvtz', properties = ['dipole'])
--------------------------------------------------------------------------

    Molecular point group: c1
  Charge       = 0
  Multiplicity = 1
  Basis Set: AUG-CC-PVTZ
    Blend: AUG-CC-PVTZ
  Basis Set: (AUG-CC-PVTZ AUX)
    Blend: AUG-CC-PVTZ-JKFIT

    Orbital Energies [Eh]
    ---------------------

    Doubly Occupied:

       1A    -20.512880     2A    -15.583064     3A    -11.350506
       4A    -11.274958     5A    -11.256904     6A    -11.250451
       7A    -11.244407     8A    -11.241977     9A    -11.237588
      10A    -11.236998    11A    -11.235123    12A    -11.232346
      13A    -11.216795    14A     -1.367720    15A     -1.235543
      16A     -1.164186    17A     -1.084320    18A     -1.042478
      19A     -1.031241    20A     -0.943079    21A     -0.933455
      22A     -0.873427    23A     -0.829255    24A     -0.782081
      25A     -0.773786    26A     -0.693756    27A     -0.682534
      28A     -0.660368    29A     -0.659216    30A     -0.619702
      31A     -0.614209    32A     -0.591065    33A     -0.584118
      34A     -0.569627    35A     -0.565470    36A     -0.553395
      37A     -0.532652    38A     -0.530812    39A     -0.513990
      40A     -0.504887    41A     -0.489493    42A     -0.479327
      43A     -0.472059    44A     -0.417644    45A     -0.386094
      46A     -0.339202    47A     -0.325101

  @DF-RHF Final Energy:  -553.64153626708128

   => Energetics <=

    Nuclear Repulsion Energy =            796.0209501759669593
    One-Electron Energy =               -2331.8863992908345608
    Two-Electron Energy =                 982.2239128477864369
    Total Energy =                       -553.6415362670812783
  Basis Set: (AUG-CC-PVTZ AUX)
    Blend: AUG-CC-PVTZ-RI
    Molecular point group: c1

    Geometry (in Angstrom), charge = 0, multiplicity = 1:

       Center              X                  Y                   Z               Mass
    ------------   -----------------  -----------------  -----------------  -----------------
         O            0.324815420932     2.353761599818    -1.025118556619    15.994914619570
         N            1.800041420932     1.232035599818     0.303331443381    14.003074004430
         C            1.540460420932    -1.348716400182    -0.788317556619    12.000000000000
         C            2.519959420932    -1.144012400182     0.377932443381    12.000000000000
         C            0.105393420932    -1.101095400182    -0.392442556619    12.000000000000
         C           -0.328444979068     0.189669199818    -0.189920556619    12.000000000000
         C            2.161751420932     0.118117599818     1.166467443381    12.000000000000
         C           -1.685593579068     0.471009599818     0.204817443381    12.000000000000
         C            0.599198420932     1.362723599818    -0.340321556619    12.000000000000
         C           -0.794001579068    -2.162732400182    -0.251329556619    12.000000000000
         C           -2.551875579068    -0.619201400182     0.345047443381    12.000000000000
         C           -2.117712579068    -1.925074400182     0.114805443381    12.000000000000
         C           -2.188865579068     1.873304599818     0.436274443381    12.000000000000
         H            1.642282420932    -2.365447400182    -1.184175556619     1.007825032230
         H            1.813998420932    -0.667675400182    -1.601909556619     1.007825032230
         H            2.490224420932    -2.003363400182     1.059572443381     1.007825032230
         H            3.541378420932    -1.075105400182    -0.015282556619     1.007825032230
         H            1.318815420932    -0.091574400182     1.831952443381     1.007825032230
         H            2.996246420932     0.438852599818     1.797140443381     1.007825032230
         H            2.454809420932     1.989635599818     0.140375443381     1.007825032230
         H           -0.455341579068    -3.179514400182    -0.444264556619     1.007825032230
         H           -3.587156579068    -0.438882400182     0.629112443381     1.007825032230
         H           -2.811281579068    -2.755982400182     0.223559443381     1.007825032230
         H           -1.541754579068     2.424363599818     1.124928443381     1.007825032230
         H           -2.209194579068     2.438128599818    -0.498080556619     1.007825032230
         H           -3.196983579068     1.845086599818     0.859336443381     1.007825032230

  Basis Set: AUG-CC-PVTZ
    Blend: AUG-CC-PVTZ
  Basis Set: (AUG-CC-PVTZ AUX)
    Blend: AUG-CC-PVTZ-JKFIT
	 Reference Energy          =    -553.6415362670812783 [Eh]
	 Singles Energy            =      -0.0000000000000000 [Eh]
	 Same-Spin Energy          =      -0.6040806523796602 [Eh]
	 Opposite-Spin Energy      =      -1.9030387903966153 [Eh]
	 Correlation Energy        =      -2.5071194427762755 [Eh]
	 Total Energy              =    -556.1486557098575076 [Eh]

	 ================> DF-SCS-MP2 Energies <==================
	-----------------------------------------------------------
	 SCS Same-Spin Scale       =       0.3333333333333333 [-]
	 SCS Opposite-Spin Scale   =       1.2000000000000000 [-]
	 SCS Same-Spin Energy      =      -0.2013602174598867 [Eh]
	 SCS Opposite-Spin Energy  =      -2.2836465484759381 [Eh]
	 SCS Correlation Energy    =      -2.4850067659358248 [Eh]
	 SCS Total Energy          =    -556.1265430330171284 [Eh]
	-----------------------------------------------------------

  Dipole Moment: [D]
     X:     1.7173      Y:    -2.5250      Z:     2.2057     Total:     3.7669

*** Psi4 exiting successfully. Buy a developer a beer!
