                               Psi4 1.3.2 release

  ==> Input File <==

--------------------------------------------------------------------------
#psi4
#
memory 32 gb

molecule  {
0 1
  O        0.3130990     2.3704440    -1.0483590
  N        1.7883250     1.2487180     0.2800910
  C        1.5287440    -1.3320340    -0.8115580
  C        2.5082430    -1.1273300     0.3546920
  C        0.0936770    -1.0844130    -0.4156830
  C       -0.3593510     0.2288580    -0.1728470
  C        2.1500350     0.1348000     1.1432270
  C       -1.6973100     0.4876920     0.1815770
  C        0.5874820     1.3794060    -0.3635620
  C       -0.8057180    -2.1460500    -0.2745700
  C       -2.5635920    -0.6025190     0.3218070
  C       -2.1294290    -1.9083920     0.0915650
  C       -2.2005820     1.8899870     0.4130340
  H        1.6305660    -2.3487650    -1.2074160
  H        1.8022820    -0.6509930    -1.6251500
  H        2.4785080    -1.9866810     1.0363320
  H        3.5296620    -1.0584230    -0.0385230
  H        1.3070990    -0.0748920     1.8087120
  H        2.9845300     0.4555350     1.7739000
  H        2.4430930     2.0063180     0.1171350
  H       -0.4670580    -3.1628320    -0.4675050
  H       -3.5988730    -0.4222000     0.6058720
  H       -2.8229980    -2.7393000     0.2003190
  H       -1.5534710     2.4410460     1.1016880
  H       -2.2209110     2.4548110    -0.5213210
  H       -3.2087000     1.8617690     0.8360960
units angstrom
no_reorient  #important for SAPT in psi4, default
symmetry c1  #important for SAPT in psi4, default
}

set PROPERTIES_ORIGIN ["COM"]
properties('MP2/aug-cc-pvtz', properties = ['dipole'])
--------------------------------------------------------------------------

    Molecular point group: c1
  Charge       = 0
  Multiplicity = 1
  Basis Set: AUG-CC-PVTZ
    Blend: AUG-CC-PVTZ
  Basis Set: (AUG-CC-PVTZ AUX)
    Blend: AUG-CC-PVTZ-JKFIT

    Orbital Energies [Eh]
    ---------------------

    Doubly Occupied:

       1A    -20.512705     2A    -15.583060     3A    -11.350324
       4A    -11.274913     5A    -11.254309     6A    -11.253487
       7A    -11.244401     8A    -11.241998     9A    -11.238264
      10A    -11.237408    11A    -11.235276    12A    -11.232693
      13A    -11.215898    14A     -1.367597    15A     -1.235368
      16A     -1.163693    17A     -1.084618    18A     -1.044737
      19A     -1.028712    20A     -0.943154    21A     -0.933238
      22A     -0.873627    23A     -0.830101    24A     -0.784899
      25A     -0.769852    26A     -0.693955    27A     -0.682865
      28A     -0.659992    29A     -0.658876    30A     -0.619523
      31A     -0.615313    32A     -0.591079    33A     -0.583812
      34A     -0.570090    35A     -0.566111    36A     -0.553097
      37A     -0.531550    38A     -0.530478    39A     -0.513880
      40A     -0.505390    41A     -0.488853    42A     -0.479297
      43A     -0.473786    44A     -0.417465    45A     -0.386050
      46A     -0.336446    47A     -0.327517

  @DF-RHF Final Energy:  -553.64321537988008

   => Energetics <=

    Nuclear Repulsion Energy =            795.9754491822575346
    One-Electron Energy =               -2331.7978180351833544
    Two-Electron Energy =                 982.1791534730457442
    Total Energy =                       -553.6432153798800755
  Basis Set: (AUG-CC-PVTZ AUX)
    Blend: AUG-CC-PVTZ-RI
    Molecular point group: c1

    Geometry (in Angstrom), charge = 0, multiplicity = 1:

       Center              X                  Y                   Z               Mass
    ------------   -----------------  -----------------  -----------------  -----------------
         O            0.326130529876     2.352219182679    -1.027881370953    15.994914619570
         N            1.801356529876     1.230493182679     0.300568629047    14.003074004430
         C            1.541775529876    -1.350258817321    -0.791080370953    12.000000000000
         C            2.521274529876    -1.145554817321     0.375169629047    12.000000000000
         C            0.106708529876    -1.102637817321    -0.395205370953    12.000000000000
         C           -0.346319470124     0.210633182679    -0.152369370953    12.000000000000
         C            2.163066529876     0.116575182679     1.163704629047    12.000000000000
         C           -1.684278470124     0.469467182679     0.202054629047    12.000000000000
         C            0.600513529876     1.361181182679    -0.343084370953    12.000000000000
         C           -0.792686470124    -2.164274817321    -0.254092370953    12.000000000000
         C           -2.550560470124    -0.620743817321     0.342284629047    12.000000000000
         C           -2.116397470124    -1.926616817321     0.112042629047    12.000000000000
         C           -2.187550470124     1.871762182679     0.433511629047    12.000000000000
         H            1.643597529876    -2.366989817321    -1.186938370953     1.007825032230
         H            1.815313529876    -0.669217817321    -1.604672370953     1.007825032230
         H            2.491539529876    -2.004905817321     1.056809629047     1.007825032230
         H            3.542693529876    -1.076647817321    -0.018045370953     1.007825032230
         H            1.320130529876    -0.093116817321     1.829189629047     1.007825032230
         H            2.997561529876     0.437310182679     1.794377629047     1.007825032230
         H            2.456124529876     1.988093182679     0.137612629047     1.007825032230
         H           -0.454026470124    -3.181056817321    -0.447027370953     1.007825032230
         H           -3.585841470124    -0.440424817321     0.626349629047     1.007825032230
         H           -2.809966470124    -2.757524817321     0.220796629047     1.007825032230
         H           -1.540439470124     2.422821182679     1.122165629047     1.007825032230
         H           -2.207879470124     2.436586182679    -0.500843370953     1.007825032230
         H           -3.195668470124     1.843544182679     0.856573629047     1.007825032230

  Basis Set: AUG-CC-PVTZ
    Blend: AUG-CC-PVTZ
  Basis Set: (AUG-CC-PVTZ AUX)
    Blend: AUG-CC-PVTZ-JKFIT
	 Reference Energy          =    -553.6432153798800755 [Eh]
	 Singles Energy            =      -0.0000000000000000 [Eh]
	 Same-Spin Energy          =      -0.6041835713913677 [Eh]
	 Opposite-Spin Energy      =      -1.9030814755313392 [Eh]
	 Correlation Energy        =      -2.5072650469227069 [Eh]
	 Total Energy              =    -556.1504804268028010 [Eh]

	 ================> DF-SCS-MP2 Energies <==================
	-----------------------------------------------------------
	 SCS Same-Spin Scale       =       0.3333333333333333 [-]
	 SCS Opposite-Spin Scale   =       1.2000000000000000 [-]
	 SCS Same-Spin Energy      =      -0.2013945237971226 [Eh]
	 SCS Opposite-Spin Energy  =      -2.2836977706376071 [Eh]
	 SCS Correlation Energy    =      -2.4850922944347298 [Eh]
	 SCS Total Energy          =    -556.1283076743147831 [Eh]
	-----------------------------------------------------------

  Dipole Moment: [D]
     X:     1.7280      Y:    -2.5393      Z:     2.2049     Total:     3.7809

*** Psi4 exiting successfully. Buy a developer a beer!
