                               Psi4 1.3.2 release

  ==> Input File <==

--------------------------------------------------------------------------
#psi4
#
memory 32 gb

molecule  {
0 1
  O        0.3130990     2.3704440    -1.0483590
  N        1.7883250     1.2487180     0.2800910
  C        1.5287440    -1.3320340    -0.8115580
  C        2.5082430    -1.1273300     0.3546920
  C        0.0936770    -1.0844130    -0.4156830
  C       -0.2825924     0.1388323    -0.3341030
  C        2.1500350     0.1348000     1.1432270
  C       -1.6973100     0.4876920     0.1815770
  C        0.5874820     1.3794060    -0.3635620
  C       -0.8057180    -2.1460500    -0.2745700
  C       -2.5635920    -0.6025190     0.3218070
  C       -2.1294290    -1.9083920     0.0915650
  C       -2.2005820     1.8899870     0.4130340
  H        1.6305660    -2.3487650    -1.2074160
  H        1.8022820    -0.6509930    -1.6251500
  H        2.4785080    -1.9866810     1.0363320
  H        3.5296620    -1.0584230    -0.0385230
  H        1.3070990    -0.0748920     1.8087120
  H        2.9845300     0.4555350     1.7739000
  H        2.4430930     2.0063180     0.1171350
  H       -0.4670580    -3.1628320    -0.4675050
  H       -3.5988730    -0.4222000     0.6058720
  H       -2.8229980    -2.7393000     0.2003190
  H       -1.5534710     2.4410460     1.1016880
  H       -2.2209110     2.4548110    -0.5213210
  H       -3.2087000     1.8617690     0.8360960
units angstrom
no_reorient  #important for SAPT in psi4, default
symmetry c1  #important for SAPT in psi4, default
}

set PROPERTIES_ORIGIN ["COM"]
properties('MP2/aug-cc-pvtz', properties = ['dipole'])
--------------------------------------------------------------------------

    Molecular point group: c1
  Charge       = 0
  Multiplicity = 1
  Basis Set: AUG-CC-PVTZ
    Blend: AUG-CC-PVTZ
  Basis Set: (AUG-CC-PVTZ AUX)
    Blend: AUG-CC-PVTZ-JKFIT

    Orbital Energies [Eh]
    ---------------------

    Doubly Occupied:

       1A    -20.514042     2A    -15.583326     3A    -11.352571
       4A    -11.275309     5A    -11.264964     6A    -11.244773
       7A    -11.241314     8A    -11.237422     9A    -11.236728
      10A    -11.234814    11A    -11.234396    12A    -11.231024
      13A    -11.219006    14A     -1.368328    15A     -1.236329
      16A     -1.168151    17A     -1.084722    18A     -1.038405
      19A     -1.035568    20A     -0.942210    21A     -0.934089
      22A     -0.871972    23A     -0.827436    24A     -0.788797
      25A     -0.768655    26A     -0.692625    27A     -0.681555
      28A     -0.664461    29A     -0.657314    30A     -0.621068
      31A     -0.610775    32A     -0.592939    33A     -0.582839
      34A     -0.569056    35A     -0.561834    36A     -0.554709
      37A     -0.536214    38A     -0.531353    39A     -0.514108
      40A     -0.505477    41A     -0.488830    42A     -0.479480
      43A     -0.462243    44A     -0.415026    45A     -0.386349
      46A     -0.353103    47A     -0.315442

  @DF-RHF Final Energy:  -553.61219747896541

   => Energetics <=

    Nuclear Repulsion Energy =            796.0626928834880118
    One-Electron Energy =               -2331.9274772536564342
    Two-Electron Energy =                 982.2525868912028955
    Total Energy =                       -553.6121974789654132
  Basis Set: (AUG-CC-PVTZ AUX)
    Blend: AUG-CC-PVTZ-RI
    Molecular point group: c1

    Geometry (in Angstrom), charge = 0, multiplicity = 1:

       Center              X                  Y                   Z               Mass
    ------------   -----------------  -----------------  -----------------  -----------------
         O            0.320870080394     2.358388858089    -1.016830113614    15.994914619570
         N            1.796096080394     1.236662858089     0.311619886386    14.003074004430
         C            1.536515080394    -1.344089141911    -0.780029113614    12.000000000000
         C            2.516014080394    -1.139385141911     0.386220886386    12.000000000000
         C            0.101448080394    -1.096468141911    -0.384154113614    12.000000000000
         C           -0.274821319606     0.126777158089    -0.302574113614    12.000000000000
         C            2.157806080394     0.122744858089     1.174755886386    12.000000000000
         C           -1.689538919606     0.475636858089     0.213105886386    12.000000000000
         C            0.595253080394     1.367350858089    -0.332033113614    12.000000000000
         C           -0.797946919606    -2.158105141911    -0.243041113614    12.000000000000
         C           -2.555820919606    -0.614574141911     0.353335886386    12.000000000000
         C           -2.121657919606    -1.920447141911     0.123093886386    12.000000000000
         C           -2.192810919606     1.877931858089     0.444562886386    12.000000000000
         H            1.638337080394    -2.360820141911    -1.175887113614     1.007825032230
         H            1.810053080394    -0.663048141911    -1.593621113614     1.007825032230
         H            2.486279080394    -1.998736141911     1.067860886386     1.007825032230
         H            3.537433080394    -1.070478141911    -0.006994113614     1.007825032230
         H            1.314870080394    -0.086947141911     1.840240886386     1.007825032230
         H            2.992301080394     0.443479858089     1.805428886386     1.007825032230
         H            2.450864080394     1.994262858089     0.148663886386     1.007825032230
         H           -0.459286919606    -3.174887141911    -0.435976113614     1.007825032230
         H           -3.591101919606    -0.434255141911     0.637400886386     1.007825032230
         H           -2.815226919606    -2.751355141911     0.231847886386     1.007825032230
         H           -1.545699919606     2.428990858089     1.133216886386     1.007825032230
         H           -2.213139919606     2.442755858089    -0.489792113614     1.007825032230
         H           -3.200928919606     1.849713858089     0.867624886386     1.007825032230

  Basis Set: AUG-CC-PVTZ
    Blend: AUG-CC-PVTZ
  Basis Set: (AUG-CC-PVTZ AUX)
    Blend: AUG-CC-PVTZ-JKFIT
	 Reference Energy          =    -553.6121974789654132 [Eh]
	 Singles Energy            =      -0.0000000000000000 [Eh]
	 Same-Spin Energy          =      -0.6035355068119693 [Eh]
	 Opposite-Spin Energy      =      -1.9040735900207300 [Eh]
	 Correlation Energy        =      -2.5076090968326992 [Eh]
	 Total Energy              =    -556.1198065757980658 [Eh]

	 ================> DF-SCS-MP2 Energies <==================
	-----------------------------------------------------------
	 SCS Same-Spin Scale       =       0.3333333333333333 [-]
	 SCS Opposite-Spin Scale   =       1.2000000000000000 [-]
	 SCS Same-Spin Energy      =      -0.2011785022706564 [Eh]
	 SCS Opposite-Spin Energy  =      -2.2848883080248759 [Eh]
	 SCS Correlation Energy    =      -2.4860668102955321 [Eh]
	 SCS Total Energy          =    -556.0982642892608965 [Eh]
	-----------------------------------------------------------

  Dipole Moment: [D]
     X:     1.6951      Y:    -2.4886      Z:     2.2016     Total:     3.7301

*** Psi4 exiting successfully. Buy a developer a beer!
