                               Psi4 1.3.2 release

  ==> Input File <==

--------------------------------------------------------------------------
#psi4
#
memory 32 gb

molecule  {
0 1
  S       -1.3787688    -1.1891329     0.1569828
  O        1.4861710    -1.4617920    -0.3475990
  N        2.0488620     0.7112420     0.1011850
  C       -0.2734750     0.1140250    -0.0519740
  C        1.1480630    -0.2971330    -0.1085980
  C       -0.8491840     1.3674970    -0.1820640
  C       -2.2598870     1.3270920    -0.0933710
  C       -2.7341550     0.0450510     0.0925010
  C        3.4678020     0.4025420     0.1643440
  H       -0.2776640     2.2711280    -0.3728590
  H        1.7182220     1.5388600     0.5795510
  H       -2.9045110     2.1962980    -0.1738640
  H       -3.7641930    -0.2736150     0.1955190
  H        3.7134240    -0.2643480    -0.6614350
  H        3.7418120    -0.0946250     1.1012270
  H        4.0344840     1.3296500     0.0646150
units angstrom
no_reorient  #important for SAPT in psi4, default
symmetry c1  #important for SAPT in psi4, default
}

set PROPERTIES_ORIGIN ["COM"]
properties('MP2/aug-cc-pvtz', properties = ['dipole'])
--------------------------------------------------------------------------

    Molecular point group: c1
  Charge       = 0
  Multiplicity = 1
  Basis Set: AUG-CC-PVTZ
    Blend: AUG-CC-PVTZ
  Basis Set: (AUG-CC-PVTZ AUX)
    Blend: AUG-CC-PVTZ-JKFIT

    Orbital Energies [Eh]
    ---------------------

    Doubly Occupied:

       1A    -91.997840     2A    -20.524728     3A    -15.590874
       4A    -11.361951     5A    -11.287132     6A    -11.279684
       7A    -11.263768     8A    -11.261707     9A    -11.255345
      10A     -8.995400    11A     -6.676156    12A     -6.675391
      13A     -6.674845    14A     -1.379540    15A     -1.233484
      16A     -1.171460    17A     -1.021346    18A     -0.990128
      19A     -0.945260    20A     -0.832835    21A     -0.772866
      22A     -0.767722    23A     -0.719296    24A     -0.645772
      25A     -0.640619    26A     -0.624667    27A     -0.580357
      28A     -0.573736    29A     -0.555258    30A     -0.552661
      31A     -0.521182    32A     -0.504673    33A     -0.485294
      34A     -0.437161    35A     -0.400877    36A     -0.360396
      37A     -0.331395

  @DF-RHF Final Energy:  -758.25903817050244

   => Energetics <=

    Nuclear Repulsion Energy =            498.0011818895823694
    One-Electron Energy =               -2028.7348277285350377
    Two-Electron Energy =                 772.4746076684502896
    Total Energy =                       -758.2590381705024356
  Basis Set: (AUG-CC-PVTZ AUX)
    Blend: AUG-CC-PVTZ-RI
    Molecular point group: c1

    Geometry (in Angstrom), charge = 0, multiplicity = 1:

       Center              X                  Y                   Z               Mass
    ------------   -----------------  -----------------  -----------------  -----------------
         S           -1.355226771238    -1.124066235186     0.160778629332    31.972071174400
         O            1.509713028762    -1.396725335186    -0.343803170668    15.994914619570
         N            2.072404028762     0.776308664814     0.104980829332    14.003074004430
         C           -0.249932971238     0.179091664814    -0.048178170668    12.000000000000
         C            1.171605028762    -0.232066335186    -0.104802170668    12.000000000000
         C           -0.825641971238     1.432563664814    -0.178268170668    12.000000000000
         C           -2.236344971238     1.392158664814    -0.089575170668    12.000000000000
         C           -2.710612971238     0.110117664814     0.096296829332    12.000000000000
         C            3.491344028762     0.467608664814     0.168139829332    12.000000000000
         H           -0.254121971238     2.336194664814    -0.369063170668     1.007825032230
         H            1.741764028762     1.603926664814     0.583346829332     1.007825032230
         H           -2.880968971238     2.261364664814    -0.170068170668     1.007825032230
         H           -3.740650971238    -0.208548335186     0.199314829332     1.007825032230
         H            3.736966028762    -0.199281335186    -0.657639170668     1.007825032230
         H            3.765354028762    -0.029558335186     1.105022829332     1.007825032230
         H            4.058026028762     1.394716664814     0.068410829332     1.007825032230

  Basis Set: AUG-CC-PVTZ
    Blend: AUG-CC-PVTZ
  Basis Set: (AUG-CC-PVTZ AUX)
    Blend: AUG-CC-PVTZ-JKFIT
	 Reference Energy          =    -758.2590381705024356 [Eh]
	 Singles Energy            =      -0.0000000000000000 [Eh]
	 Same-Spin Energy          =      -0.4430043312876574 [Eh]
	 Opposite-Spin Energy      =      -1.3498106448086855 [Eh]
	 Correlation Energy        =      -1.7928149760963428 [Eh]
	 Total Energy              =    -760.0518531465987735 [Eh]

	 ================> DF-SCS-MP2 Energies <==================
	-----------------------------------------------------------
	 SCS Same-Spin Scale       =       0.3333333333333333 [-]
	 SCS Opposite-Spin Scale   =       1.2000000000000000 [-]
	 SCS Same-Spin Energy      =      -0.1476681104292191 [Eh]
	 SCS Opposite-Spin Energy  =      -1.6197727737704226 [Eh]
	 SCS Correlation Energy    =      -1.7674408841996416 [Eh]
	 SCS Total Energy          =    -760.0264790547021221 [Eh]
	-----------------------------------------------------------

  Dipole Moment: [D]
     X:    -0.2548      Y:     3.6742      Z:     1.0638     Total:     3.8336

*** Psi4 exiting successfully. Buy a developer a beer!
