                               Psi4 1.3.2 release

  ==> Input File <==

--------------------------------------------------------------------------
#psi4
#
memory 32 gb

molecule  {
0 1
  S       -1.4679970    -1.1088850     0.1509200
  O        1.4861710    -1.4617920    -0.3475990
  N        2.0488620     0.7112420     0.1011850
  C       -0.2734750     0.1140250    -0.0519740
  C        1.1480630    -0.2971330    -0.1085980
  C       -0.8491840     1.3674970    -0.1820640
  C       -2.3976032     1.3703841    -0.0900717
  C       -2.7341550     0.0450510     0.0925010
  C        3.4678020     0.4025420     0.1643440
  H       -0.2776640     2.2711280    -0.3728590
  H        1.7182220     1.5388600     0.5795510
  H       -2.9045110     2.1962980    -0.1738640
  H       -3.7641930    -0.2736150     0.1955190
  H        3.7134240    -0.2643480    -0.6614350
  H        3.7418120    -0.0946250     1.1012270
  H        4.0344840     1.3296500     0.0646150
units angstrom
no_reorient  #important for SAPT in psi4, default
symmetry c1  #important for SAPT in psi4, default
}

set PROPERTIES_ORIGIN ["COM"]
properties('MP2/aug-cc-pvtz', properties = ['dipole'])
--------------------------------------------------------------------------

    Molecular point group: c1
  Charge       = 0
  Multiplicity = 1
  Basis Set: AUG-CC-PVTZ
    Blend: AUG-CC-PVTZ
  Basis Set: (AUG-CC-PVTZ AUX)
    Blend: AUG-CC-PVTZ-JKFIT

    Orbital Energies [Eh]
    ---------------------

    Doubly Occupied:

       1A    -91.994487     2A    -20.525610     3A    -15.591413
       4A    -11.364614     5A    -11.282487     6A    -11.278772
       7A    -11.274353     8A    -11.262141     9A    -11.254876
      10A     -8.994479    11A     -6.675437    12A     -6.674712
      13A     -6.673963    14A     -1.379854    15A     -1.233955
      16A     -1.171144    17A     -1.024698    18A     -0.989830
      19A     -0.947168    20A     -0.834942    21A     -0.788030
      22A     -0.767718    23A     -0.720035    24A     -0.651868
      25A     -0.646127    26A     -0.626834    27A     -0.594384
      28A     -0.558588    29A     -0.554469    30A     -0.545182
      31A     -0.527984    32A     -0.507305    33A     -0.488929
      34A     -0.438374    35A     -0.400948    36A     -0.347313
      37A     -0.344447

  @DF-RHF Final Energy:  -758.24527825818529

   => Energetics <=

    Nuclear Repulsion Energy =            497.3214111301241473
    One-Electron Energy =               -2027.2584427355584467
    Two-Electron Energy =                 771.6917533472488913
    Total Energy =                       -758.2452782581852944
  Basis Set: (AUG-CC-PVTZ AUX)
    Blend: AUG-CC-PVTZ-RI
    Molecular point group: c1

    Geometry (in Angstrom), charge = 0, multiplicity = 1:

       Center              X                  Y                   Z               Mass
    ------------   -----------------  -----------------  -----------------  -----------------
         S           -1.412507373069    -1.065695310045     0.155809598901    31.972071174400
         O            1.541660626931    -1.418602310045    -0.342709401099    15.994914619570
         N            2.104351626931     0.754431689955     0.106074598901    14.003074004430
         C           -0.217985373069     0.157214689955    -0.047084401099    12.000000000000
         C            1.203552626931    -0.253943310045    -0.103708401099    12.000000000000
         C           -0.793694373069     1.410686689955    -0.177174401099    12.000000000000
         C           -2.342113573069     1.413573789955    -0.085182101099    12.000000000000
         C           -2.678665373069     0.088240689955     0.097390598901    12.000000000000
         C            3.523291626931     0.445731689955     0.169233598901    12.000000000000
         H           -0.222174373069     2.314317689955    -0.367969401099     1.007825032230
         H            1.773711626931     1.582049689955     0.584440598901     1.007825032230
         H           -2.849021373069     2.239487689955    -0.168974401099     1.007825032230
         H           -3.708703373069    -0.230425310045     0.200408598901     1.007825032230
         H            3.768913626931    -0.221158310045    -0.656545401099     1.007825032230
         H            3.797301626931    -0.051435310045     1.106116598901     1.007825032230
         H            4.089973626931     1.372839689955     0.069504598901     1.007825032230

  Basis Set: AUG-CC-PVTZ
    Blend: AUG-CC-PVTZ
  Basis Set: (AUG-CC-PVTZ AUX)
    Blend: AUG-CC-PVTZ-JKFIT
	 Reference Energy          =    -758.2452782581852944 [Eh]
	 Singles Energy            =      -0.0000000000000000 [Eh]
	 Same-Spin Energy          =      -0.4414522595047107 [Eh]
	 Opposite-Spin Energy      =      -1.3477006601579875 [Eh]
	 Correlation Energy        =      -1.7891529196626981 [Eh]
	 Total Energy              =    -760.0344311778479778 [Eh]

	 ================> DF-SCS-MP2 Energies <==================
	-----------------------------------------------------------
	 SCS Same-Spin Scale       =       0.3333333333333333 [-]
	 SCS Opposite-Spin Scale   =       1.2000000000000000 [-]
	 SCS Same-Spin Energy      =      -0.1471507531682369 [Eh]
	 SCS Opposite-Spin Energy  =      -1.6172407921895851 [Eh]
	 SCS Correlation Energy    =      -1.7643915453578218 [Eh]
	 SCS Total Energy          =    -760.0096698035431473 [Eh]
	-----------------------------------------------------------

  Dipole Moment: [D]
     X:    -0.2235      Y:     3.6368      Z:     1.0712     Total:     3.7979

*** Psi4 exiting successfully. Buy a developer a beer!
