                               Psi4 1.3.2 release

  ==> Input File <==

--------------------------------------------------------------------------
#psi4
#
memory 32 gb

molecule  {
0 1
  S       -1.4679970    -1.1088850     0.1509200
  O        1.4861710    -1.4617920    -0.3475990
  N        2.0488620     0.7112420     0.1011850
  C       -0.2734750     0.1140250    -0.0519740
  C        1.1610865    -0.2477544    -0.1165986
  C       -0.8491840     1.3674970    -0.1820640
  C       -2.2598870     1.3270920    -0.0933710
  C       -2.7341550     0.0450510     0.0925010
  C        3.4678020     0.4025420     0.1643440
  H       -0.2776640     2.2711280    -0.3728590
  H        1.7182220     1.5388600     0.5795510
  H       -2.9045110     2.1962980    -0.1738640
  H       -3.7641930    -0.2736150     0.1955190
  H        3.7134240    -0.2643480    -0.6614350
  H        3.7418120    -0.0946250     1.1012270
  H        4.0344840     1.3296500     0.0646150
units angstrom
no_reorient  #important for SAPT in psi4, default
symmetry c1  #important for SAPT in psi4, default
}

set PROPERTIES_ORIGIN ["COM"]
properties('MP2/aug-cc-pvtz', properties = ['dipole'])
--------------------------------------------------------------------------

    Molecular point group: c1
  Charge       = 0
  Multiplicity = 1
  Basis Set: AUG-CC-PVTZ
    Blend: AUG-CC-PVTZ
  Basis Set: (AUG-CC-PVTZ AUX)
    Blend: AUG-CC-PVTZ-JKFIT

    Orbital Energies [Eh]
    ---------------------

    Doubly Occupied:

       1A    -91.996454     2A    -20.512926     3A    -15.599579
       4A    -11.361446     5A    -11.278836     6A    -11.277035
       7A    -11.266534     8A    -11.261844     9A    -11.250255
      10A     -8.995977    11A     -6.676788    12A     -6.676269
      13A     -6.675573    14A     -1.357162    15A     -1.241300
      16A     -1.183934    17A     -1.022054    18A     -1.000170
      19A     -0.954875    20A     -0.833354    21A     -0.779520
      22A     -0.770117    23A     -0.721754    24A     -0.653552
      25A     -0.632783    26A     -0.630922    27A     -0.576432
      28A     -0.565818    29A     -0.555327    30A     -0.553344
      31A     -0.536074    32A     -0.507438    33A     -0.484790
      34A     -0.428874    35A     -0.400004    36A     -0.356558
      37A     -0.335230

  @DF-RHF Final Energy:  -758.26264065684063

   => Energetics <=

    Nuclear Repulsion Energy =            499.8270161937396665
    One-Electron Energy =               -2032.3575111511509022
    Two-Electron Energy =                 774.2678543005706615
    Total Energy =                       -758.2626406568406310
  Basis Set: (AUG-CC-PVTZ AUX)
    Blend: AUG-CC-PVTZ-RI
    Molecular point group: c1

    Geometry (in Angstrom), charge = 0, multiplicity = 1:

       Center              X                  Y                   Z               Mass
    ------------   -----------------  -----------------  -----------------  -----------------
         S           -1.425334024486    -1.066213218824     0.156771123160    31.972071174400
         O            1.528833975514    -1.419120218824    -0.341747876840    15.994914619570
         N            2.091524975514     0.753913781176     0.107036123160    14.003074004430
         C           -0.230812024486     0.156696781176    -0.046122876840    12.000000000000
         C            1.203749475514    -0.205082618824    -0.110747476840    12.000000000000
         C           -0.806521024486     1.410168781176    -0.176212876840    12.000000000000
         C           -2.217224024486     1.369763781176    -0.087519876840    12.000000000000
         C           -2.691492024486     0.087722781176     0.098352123160    12.000000000000
         C            3.510464975514     0.445213781176     0.170195123160    12.000000000000
         H           -0.235001024486     2.313799781176    -0.367007876840     1.007825032230
         H            1.760884975514     1.581531781176     0.585402123160     1.007825032230
         H           -2.861848024486     2.238969781176    -0.168012876840     1.007825032230
         H           -3.721530024486    -0.230943218824     0.201370123160     1.007825032230
         H            3.756086975514    -0.221676218824    -0.655583876840     1.007825032230
         H            3.784474975514    -0.051953218824     1.107078123160     1.007825032230
         H            4.077146975514     1.372321781176     0.070466123160     1.007825032230

  Basis Set: AUG-CC-PVTZ
    Blend: AUG-CC-PVTZ
  Basis Set: (AUG-CC-PVTZ AUX)
    Blend: AUG-CC-PVTZ-JKFIT
	 Reference Energy          =    -758.2626406568406310 [Eh]
	 Singles Energy            =      -0.0000000000000000 [Eh]
	 Same-Spin Energy          =      -0.4441230009779588 [Eh]
	 Opposite-Spin Energy      =      -1.3490439932643017 [Eh]
	 Correlation Energy        =      -1.7931669942422603 [Eh]
	 Total Energy              =    -760.0558076510828869 [Eh]

	 ================> DF-SCS-MP2 Energies <==================
	-----------------------------------------------------------
	 SCS Same-Spin Scale       =       0.3333333333333333 [-]
	 SCS Opposite-Spin Scale   =       1.2000000000000000 [-]
	 SCS Same-Spin Energy      =      -0.1480410003259862 [Eh]
	 SCS Opposite-Spin Energy  =      -1.6188527919171620 [Eh]
	 SCS Correlation Energy    =      -1.7668937922431482 [Eh]
	 SCS Total Energy          =    -760.0295344490838261 [Eh]
	-----------------------------------------------------------

  Dipole Moment: [D]
     X:    -0.1470      Y:     3.9237      Z:     1.1465     Total:     4.0904

*** Psi4 exiting successfully. Buy a developer a beer!
