                               Psi4 1.3.2 release

  ==> Input File <==

--------------------------------------------------------------------------
#psi4
#
memory 32 gb

molecule  {
0 1
  S       -1.4679970    -1.1088850     0.1509200
  O        1.4861710    -1.4617920    -0.3475990
  N        2.0488620     0.7112420     0.1011850
  C       -0.2734750     0.1140250    -0.0519740
  C        1.1409007    -0.3216382    -0.1045712
  C       -0.8491840     1.3674970    -0.1820640
  C       -2.2598870     1.3270920    -0.0933710
  C       -2.7341550     0.0450510     0.0925010
  C        3.4678020     0.4025420     0.1643440
  H       -0.2776640     2.2711280    -0.3728590
  H        1.7182220     1.5388600     0.5795510
  H       -2.9045110     2.1962980    -0.1738640
  H       -3.7641930    -0.2736150     0.1955190
  H        3.7134240    -0.2643480    -0.6614350
  H        3.7418120    -0.0946250     1.1012270
  H        4.0344840     1.3296500     0.0646150
units angstrom
no_reorient  #important for SAPT in psi4, default
symmetry c1  #important for SAPT in psi4, default
}

set PROPERTIES_ORIGIN ["COM"]
properties('MP2/aug-cc-pvtz', properties = ['dipole'])
--------------------------------------------------------------------------

    Molecular point group: c1
  Charge       = 0
  Multiplicity = 1
  Basis Set: AUG-CC-PVTZ
    Blend: AUG-CC-PVTZ
  Basis Set: (AUG-CC-PVTZ AUX)
    Blend: AUG-CC-PVTZ-JKFIT

    Orbital Energies [Eh]
    ---------------------

    Doubly Occupied:

       1A    -91.996097     2A    -20.528525     3A    -15.586331
       4A    -11.363067     5A    -11.279404     6A    -11.276837
       7A    -11.263236     8A    -11.259302     9A    -11.251189
      10A     -8.995933    11A     -6.676778    12A     -6.676209
      13A     -6.675546    14A     -1.391183    15A     -1.227534
      16A     -1.184271    17A     -1.020040    18A     -1.001242
      19A     -0.941898    20A     -0.833096    21A     -0.771573
      22A     -0.764447    23A     -0.722104    24A     -0.647205
      25A     -0.642806    26A     -0.623983    27A     -0.583780
      28A     -0.574156    29A     -0.559644    30A     -0.551573
      31A     -0.531911    32A     -0.514268    33A     -0.487168
      34A     -0.439431    35A     -0.399379    36A     -0.357252
      37A     -0.336226

  @DF-RHF Final Energy:  -758.26883455079690

   => Energetics <=

    Nuclear Repulsion Energy =            500.0118010346397455
    One-Electron Energy =               -2032.6920163388256242
    Two-Electron Energy =                 774.4113807533889258
    Total Energy =                       -758.2688345507968961
  Basis Set: (AUG-CC-PVTZ AUX)
    Blend: AUG-CC-PVTZ-RI
    Molecular point group: c1

    Geometry (in Angstrom), charge = 0, multiplicity = 1:

       Center              X                  Y                   Z               Mass
    ------------   -----------------  -----------------  -----------------  -----------------
         S           -1.423616386596    -1.059926343183     0.155747694911    31.972071174400
         O            1.530551613404    -1.412833343183    -0.342771305089    15.994914619570
         N            2.093242613404     0.760200656817     0.106012694911    14.003074004430
         C           -0.229094386596     0.162983656817    -0.047146305089    12.000000000000
         C            1.185281313404    -0.272679543183    -0.099743505089    12.000000000000
         C           -0.804803386596     1.416455656817    -0.177236305089    12.000000000000
         C           -2.215506386596     1.376050656817    -0.088543305089    12.000000000000
         C           -2.689774386596     0.094009656817     0.097328694911    12.000000000000
         C            3.512182613404     0.451500656817     0.169171694911    12.000000000000
         H           -0.233283386596     2.320086656817    -0.368031305089     1.007825032230
         H            1.762602613404     1.587818656817     0.584378694911     1.007825032230
         H           -2.860130386596     2.245256656817    -0.169036305089     1.007825032230
         H           -3.719812386596    -0.224656343183     0.200346694911     1.007825032230
         H            3.757804613404    -0.215389343183    -0.656607305089     1.007825032230
         H            3.786192613404    -0.045666343183     1.106054694911     1.007825032230
         H            4.078864613404     1.378608656817     0.069442694911     1.007825032230

  Basis Set: AUG-CC-PVTZ
    Blend: AUG-CC-PVTZ
  Basis Set: (AUG-CC-PVTZ AUX)
    Blend: AUG-CC-PVTZ-JKFIT
	 Reference Energy          =    -758.2688345507968961 [Eh]
	 Singles Energy            =      -0.0000000000000000 [Eh]
	 Same-Spin Energy          =      -0.4431922575904952 [Eh]
	 Opposite-Spin Energy      =      -1.3471772328381157 [Eh]
	 Correlation Energy        =      -1.7903694904286109 [Eh]
	 Total Energy              =    -760.0592040412254846 [Eh]

	 ================> DF-SCS-MP2 Energies <==================
	-----------------------------------------------------------
	 SCS Same-Spin Scale       =       0.3333333333333333 [-]
	 SCS Opposite-Spin Scale   =       1.2000000000000000 [-]
	 SCS Same-Spin Energy      =      -0.1477307525301651 [Eh]
	 SCS Opposite-Spin Energy  =      -1.6166126794057389 [Eh]
	 SCS Correlation Energy    =      -1.7643434319359039 [Eh]
	 SCS Total Energy          =    -760.0331779827328091 [Eh]
	-----------------------------------------------------------

  Dipole Moment: [D]
     X:    -0.4263      Y:     3.4576      Z:     1.0502     Total:     3.6386

*** Psi4 exiting successfully. Buy a developer a beer!
