                               Psi4 1.3.2 release

  ==> Input File <==

--------------------------------------------------------------------------
#psi4
#
memory 32 gb

molecule  {
0 1
  S       -1.4679970    -1.1088850     0.1509200
  O        1.4861710    -1.4617920    -0.3475990
  N        2.0123760     0.7416043     0.1064735
  C       -0.2734750     0.1140250    -0.0519740
  C        1.1480630    -0.2971330    -0.1085980
  C       -0.8491840     1.3674970    -0.1820640
  C       -2.2598870     1.3270920    -0.0933710
  C       -2.7341550     0.0450510     0.0925010
  C        3.4678020     0.4025420     0.1643440
  H       -0.2776640     2.2711280    -0.3728590
  H        1.7182220     1.5388600     0.5795510
  H       -2.9045110     2.1962980    -0.1738640
  H       -3.7641930    -0.2736150     0.1955190
  H        3.7134240    -0.2643480    -0.6614350
  H        3.7418120    -0.0946250     1.1012270
  H        4.0344840     1.3296500     0.0646150
units angstrom
no_reorient  #important for SAPT in psi4, default
symmetry c1  #important for SAPT in psi4, default
}

set PROPERTIES_ORIGIN ["COM"]
properties('MP2/aug-cc-pvtz', properties = ['dipole'])
--------------------------------------------------------------------------

    Molecular point group: c1
  Charge       = 0
  Multiplicity = 1
  Basis Set: AUG-CC-PVTZ
    Blend: AUG-CC-PVTZ
  Basis Set: (AUG-CC-PVTZ AUX)
    Blend: AUG-CC-PVTZ-JKFIT

    Orbital Energies [Eh]
    ---------------------

    Doubly Occupied:

       1A    -91.994858     2A    -20.525661     3A    -15.589481
       4A    -11.363659     5A    -11.278073     6A    -11.274838
       7A    -11.265519     8A    -11.261443     9A    -11.249931
      10A     -8.994638    11A     -6.675479    12A     -6.674919
      13A     -6.674253    14A     -1.378067    15A     -1.233106
      16A     -1.182682    17A     -1.018155    18A     -0.999769
      19A     -0.944443    20A     -0.839250    21A     -0.775141
      22A     -0.770051    23A     -0.720727    24A     -0.642702
      25A     -0.639248    26A     -0.622181    27A     -0.576178
      28A     -0.572942    29A     -0.559110    30A     -0.557348
      31A     -0.530031    32A     -0.512065    33A     -0.485343
      34A     -0.437226    35A     -0.404824    36A     -0.356042
      37A     -0.334831

  @DF-RHF Final Energy:  -758.26585039717907

   => Energetics <=

    Nuclear Repulsion Energy =            499.8333857061165872
    One-Electron Energy =               -2032.3700396046281185
    Two-Electron Energy =                 774.2708035013324661
    Total Energy =                       -758.2658503971790651
  Basis Set: (AUG-CC-PVTZ AUX)
    Blend: AUG-CC-PVTZ-RI
    Molecular point group: c1

    Geometry (in Angstrom), charge = 0, multiplicity = 1:

       Center              X                  Y                   Z               Mass
    ------------   -----------------  -----------------  -----------------  -----------------
         S           -1.420602955962    -1.065026352226     0.155565218847    31.972071174400
         O            1.533565044038    -1.417933352226    -0.342953781153    15.994914619570
         N            2.059770044038     0.785462947774     0.111118718847    14.003074004430
         C           -0.226080955962     0.157883647774    -0.047328781153    12.000000000000
         C            1.195457044038    -0.253274352226    -0.103952781153    12.000000000000
         C           -0.801789955962     1.411355647774    -0.177418781153    12.000000000000
         C           -2.212492955962     1.370950647774    -0.088725781153    12.000000000000
         C           -2.686760955962     0.088909647774     0.097146218847    12.000000000000
         C            3.515196044038     0.446400647774     0.168989218847    12.000000000000
         H           -0.230269955962     2.314986647774    -0.368213781153     1.007825032230
         H            1.765616044038     1.582718647774     0.584196218847     1.007825032230
         H           -2.857116955962     2.240156647774    -0.169218781153     1.007825032230
         H           -3.716798955962    -0.229756352226     0.200164218847     1.007825032230
         H            3.760818044038    -0.220489352226    -0.656789781153     1.007825032230
         H            3.789206044038    -0.050766352226     1.105872218847     1.007825032230
         H            4.081878044038     1.373508647774     0.069260218847     1.007825032230

  Basis Set: AUG-CC-PVTZ
    Blend: AUG-CC-PVTZ
  Basis Set: (AUG-CC-PVTZ AUX)
    Blend: AUG-CC-PVTZ-JKFIT
	 Reference Energy          =    -758.2658503971790651 [Eh]
	 Singles Energy            =      -0.0000000000000000 [Eh]
	 Same-Spin Energy          =      -0.4432655812672136 [Eh]
	 Opposite-Spin Energy      =      -1.3477586106955617 [Eh]
	 Correlation Energy        =      -1.7910241919627752 [Eh]
	 Total Energy              =    -760.0568745891417848 [Eh]

	 ================> DF-SCS-MP2 Energies <==================
	-----------------------------------------------------------
	 SCS Same-Spin Scale       =       0.3333333333333333 [-]
	 SCS Opposite-Spin Scale   =       1.2000000000000000 [-]
	 SCS Same-Spin Energy      =      -0.1477551937557379 [Eh]
	 SCS Opposite-Spin Energy  =      -1.6173103328346741 [Eh]
	 SCS Correlation Energy    =      -1.7650655265904120 [Eh]
	 SCS Total Energy          =    -760.0309159237694985 [Eh]
	-----------------------------------------------------------

  Dipole Moment: [D]
     X:    -0.2042      Y:     3.5576      Z:     1.0902     Total:     3.7264

*** Psi4 exiting successfully. Buy a developer a beer!
