                               Psi4 1.4a3.dev225

  ==> Input File <==

--------------------------------------------------------------------------
#psi4
#
memory 32 gb

molecule  {
0 1
  S       -1.4679970    -1.1088850     0.1509200
  O        1.4861710    -1.4617920    -0.3475990
  N        2.0488620     0.7112420     0.1011850
  C       -0.2387808     0.1495438    -0.0578669
  C        1.1480630    -0.2971330    -0.1085980
  C       -0.8491840     1.3674970    -0.1820640
  C       -2.2598870     1.3270920    -0.0933710
  C       -2.7341550     0.0450510     0.0925010
  C        3.4678020     0.4025420     0.1643440
  H       -0.2776640     2.2711280    -0.3728590
  H        1.7182220     1.5388600     0.5795510
  H       -2.9045110     2.1962980    -0.1738640
  H       -3.7641930    -0.2736150     0.1955190
  H        3.7134240    -0.2643480    -0.6614350
  H        3.7418120    -0.0946250     1.1012270
  H        4.0344840     1.3296500     0.0646150
units angstrom
no_reorient  #important for SAPT in psi4, default
symmetry c1  #important for SAPT in psi4, default
}

set PROPERTIES_ORIGIN ["COM"]
properties('MP2/aug-cc-pvtz', properties = ['dipole'])
--------------------------------------------------------------------------

    Molecular point group: c1
  Charge       = 0
  Multiplicity = 1
  Basis Set: AUG-CC-PVTZ
    Blend: AUG-CC-PVTZ
  Basis Set: (AUG-CC-PVTZ AUX)
    Blend: AUG-CC-PVTZ-JKFIT

    Orbital Energies [Eh]
    ---------------------

    Doubly Occupied:

       1A    -91.994123     2A    -20.524202     3A    -15.590084
       4A    -11.361954     5A    -11.282252     6A    -11.277153
       7A    -11.264510     8A    -11.261178     9A    -11.251255
      10A     -8.993197    11A     -6.674019    12A     -6.673384
      13A     -6.672788    14A     -1.378803    15A     -1.234134
      16A     -1.181306    17A     -1.025976    18A     -0.997504
      19A     -0.946539    20A     -0.837915    21A     -0.772543
      22A     -0.769530    23A     -0.722090    24A     -0.646610
      25A     -0.642635    26A     -0.626691    27A     -0.583265
      28A     -0.575959    29A     -0.557321    30A     -0.552564
      31A     -0.527306    32A     -0.510186    33A     -0.480669
      34A     -0.437900    35A     -0.400662    36A     -0.358378
      37A     -0.336933

  @DF-RHF Final Energy:  -758.26647007187034

   => Energetics <=

    Nuclear Repulsion Energy =            499.6116939456152863
    One-Electron Energy =               -2031.9092965551396901
    Two-Electron Energy =                 774.0311325376540026
    Total Energy =                       -758.2664700718703443
  Basis Set: (AUG-CC-PVTZ AUX)
    Blend: AUG-CC-PVTZ-RI
    Molecular point group: c1

    Geometry (in Angstrom), charge = 0, multiplicity = 1:

       Center              X                  Y                   Z               Mass
    ------------   -----------------  -----------------  -----------------  -----------------
         S           -1.427178014589    -1.065033869101     0.156591776026    31.972071174400
         O            1.526989985411    -1.417940869101    -0.341927223974    15.994914619570
         N            2.089680985411     0.755093130899     0.106856776026    14.003074004430
         C           -0.197961814589     0.193394930899    -0.052195123974    12.000000000000
         C            1.188881985411    -0.253281869101    -0.102926223974    12.000000000000
         C           -0.808365014589     1.411348130899    -0.176392223974    12.000000000000
         C           -2.219068014589     1.370943130899    -0.087699223974    12.000000000000
         C           -2.693336014589     0.088902130899     0.098172776026    12.000000000000
         C            3.508620985411     0.446393130899     0.170015776026    12.000000000000
         H           -0.236845014589     2.314979130899    -0.367187223974     1.007825032230
         H            1.759040985411     1.582711130899     0.585222776026     1.007825032230
         H           -2.863692014589     2.240149130899    -0.168192223974     1.007825032230
         H           -3.723374014589    -0.229763869101     0.201190776026     1.007825032230
         H            3.754242985411    -0.220496869101    -0.655763223974     1.007825032230
         H            3.782630985411    -0.050773869101     1.106898776026     1.007825032230
         H            4.075302985411     1.373501130899     0.070286776026     1.007825032230

  Basis Set: AUG-CC-PVTZ
    Blend: AUG-CC-PVTZ
  Basis Set: (AUG-CC-PVTZ AUX)
    Blend: AUG-CC-PVTZ-JKFIT
	 Reference Energy          =    -758.2664700718703443 [Eh]
	 Singles Energy            =      -0.0000000000000000 [Eh]
	 Same-Spin Energy          =      -0.4432887403591638 [Eh]
	 Opposite-Spin Energy      =      -1.3480116074208850 [Eh]
	 Correlation Energy        =      -1.7913003477800489 [Eh]
	 Total Energy              =    -760.0577704196504101 [Eh]

	 ================> DF-SCS-MP2 Energies <==================
	-----------------------------------------------------------
	 SCS Same-Spin Scale       =       0.3333333333333333 [-]
	 SCS Opposite-Spin Scale   =       1.2000000000000000 [-]
	 SCS Same-Spin Energy      =      -0.1477629134530546 [Eh]
	 SCS Opposite-Spin Energy  =      -1.6176139289050619 [Eh]
	 SCS Correlation Energy    =      -1.7653768423581166 [Eh]
	 SCS Total Energy          =    -760.0318469142284812 [Eh]
	-----------------------------------------------------------

  Dipole Moment: [D]
     X:    -0.3390      Y:     3.6869      Z:     1.0675     Total:     3.8533

*** Psi4 exiting successfully. Buy a developer a beer!
