                               Psi4 1.4a3.dev225

  ==> Input File <==

--------------------------------------------------------------------------
#psi4
#
memory 32 gb

molecule  {
0 1
  S       -1.4679970    -1.1088850     0.1509200
  O        1.4861710    -1.4617920    -0.3475990
  N        2.0488620     0.7112420     0.1011850
  C       -0.2734750     0.1140250    -0.0519740
  C        1.1480630    -0.2971330    -0.1085980
  C       -0.8491840     1.3674970    -0.1820640
  C       -2.2100059     1.3285207    -0.0965071
  C       -2.7341550     0.0450510     0.0925010
  C        3.4678020     0.4025420     0.1643440
  H       -0.2776640     2.2711280    -0.3728590
  H        1.7182220     1.5388600     0.5795510
  H       -2.9045110     2.1962980    -0.1738640
  H       -3.7641930    -0.2736150     0.1955190
  H        3.7134240    -0.2643480    -0.6614350
  H        3.7418120    -0.0946250     1.1012270
  H        4.0344840     1.3296500     0.0646150
units angstrom
no_reorient  #important for SAPT in psi4, default
symmetry c1  #important for SAPT in psi4, default
}

set PROPERTIES_ORIGIN ["COM"]
properties('MP2/aug-cc-pvtz', properties = ['dipole'])
--------------------------------------------------------------------------

    Molecular point group: c1
  Charge       = 0
  Multiplicity = 1
  Basis Set: AUG-CC-PVTZ
    Blend: AUG-CC-PVTZ
  Basis Set: (AUG-CC-PVTZ AUX)
    Blend: AUG-CC-PVTZ-JKFIT

    Orbital Energies [Eh]
    ---------------------

    Doubly Occupied:

       1A    -91.998804     2A    -20.522258     3A    -15.590347
       4A    -11.361789     5A    -11.281420     6A    -11.275662
       7A    -11.261382     8A    -11.257649     9A    -11.250481
      10A     -8.998259    11A     -6.679030    12A     -6.678541
      13A     -6.677926    14A     -1.377228    15A     -1.232856
      16A     -1.188483    17A     -1.017292    18A     -1.008180
      19A     -0.944635    20A     -0.831835    21A     -0.771149
      22A     -0.767642    23A     -0.723113    24A     -0.645791
      25A     -0.639832    26A     -0.625286    27A     -0.583652
      28A     -0.573914    29A     -0.557972    30A     -0.552792
      31A     -0.529999    32A     -0.512195    33A     -0.485396
      34A     -0.435747    35A     -0.399964    36A     -0.362325
      37A     -0.330389

  @DF-RHF Final Energy:  -758.26358491131361

   => Energetics <=

    Nuclear Repulsion Energy =            500.6342141492751239
    One-Electron Energy =               -2033.9331659427664363
    Two-Electron Energy =                 775.0353668821777546
    Total Energy =                       -758.2635849113136146
  Basis Set: (AUG-CC-PVTZ AUX)
    Blend: AUG-CC-PVTZ-RI
    Molecular point group: c1

    Geometry (in Angstrom), charge = 0, multiplicity = 1:

       Center              X                  Y                   Z               Mass
    ------------   -----------------  -----------------  -----------------  -----------------
         S           -1.428470289102    -1.062133094923     0.156357196067    31.972071174400
         O            1.525697710898    -1.415040094923    -0.342161803933    15.994914619570
         N            2.088388710898     0.757993905077     0.106622196067    14.003074004430
         C           -0.233948289102     0.160776905077    -0.046536803933    12.000000000000
         C            1.187589710898    -0.250381094923    -0.103160803933    12.000000000000
         C           -0.809657289102     1.414248905077    -0.176626803933    12.000000000000
         C           -2.170479189102     1.375272605077    -0.091069903933    12.000000000000
         C           -2.694628289102     0.091802905077     0.097938196067    12.000000000000
         C            3.507328710898     0.449293905077     0.169781196067    12.000000000000
         H           -0.238137289102     2.317879905077    -0.367421803933     1.007825032230
         H            1.757748710898     1.585611905077     0.584988196067     1.007825032230
         H           -2.864984289102     2.243049905077    -0.168426803933     1.007825032230
         H           -3.724666289102    -0.226863094923     0.200956196067     1.007825032230
         H            3.752950710898    -0.217596094923    -0.655997803933     1.007825032230
         H            3.781338710898    -0.047873094923     1.106664196067     1.007825032230
         H            4.074010710898     1.376401905077     0.070052196067     1.007825032230

  Basis Set: AUG-CC-PVTZ
    Blend: AUG-CC-PVTZ
  Basis Set: (AUG-CC-PVTZ AUX)
    Blend: AUG-CC-PVTZ-JKFIT
	 Reference Energy          =    -758.2635849113136146 [Eh]
	 Singles Energy            =      -0.0000000000000000 [Eh]
	 Same-Spin Energy          =      -0.4447711758985518 [Eh]
	 Opposite-Spin Energy      =      -1.3489757190504643 [Eh]
	 Correlation Energy        =      -1.7937468949490161 [Eh]
	 Total Energy              =    -760.0573318062625958 [Eh]

	 ================> DF-SCS-MP2 Energies <==================
	-----------------------------------------------------------
	 SCS Same-Spin Scale       =       0.3333333333333333 [-]
	 SCS Opposite-Spin Scale   =       1.2000000000000000 [-]
	 SCS Same-Spin Energy      =      -0.1482570586328506 [Eh]
	 SCS Opposite-Spin Energy  =      -1.6187708628605570 [Eh]
	 SCS Correlation Energy    =      -1.7670279214934077 [Eh]
	 SCS Total Energy          =    -760.0306128328070372 [Eh]
	-----------------------------------------------------------

  Dipole Moment: [D]
     X:    -0.3569      Y:     3.5910      Z:     1.0876     Total:     3.7690

*** Psi4 exiting successfully. Buy a developer a beer!
