                               Psi4 1.3.2 release

  ==> Input File <==

--------------------------------------------------------------------------
#psi4
#
memory 32 gb

molecule  {
0 1
  S       -1.4679970    -1.1088850     0.1509200
  O        1.4861710    -1.4617920    -0.3475990
  N        2.0488620     0.7112420     0.1011850
  C       -0.2734750     0.1140250    -0.0519740
  C        1.1480630    -0.2971330    -0.1085980
  C       -0.8518556     1.4163514    -0.1885671
  C       -2.2598870     1.3270920    -0.0933710
  C       -2.7341550     0.0450510     0.0925010
  C        3.4678020     0.4025420     0.1643440
  H       -0.2776640     2.2711280    -0.3728590
  H        1.7182220     1.5388600     0.5795510
  H       -2.9045110     2.1962980    -0.1738640
  H       -3.7641930    -0.2736150     0.1955190
  H        3.7134240    -0.2643480    -0.6614350
  H        3.7418120    -0.0946250     1.1012270
  H        4.0344840     1.3296500     0.0646150
units angstrom
no_reorient  #important for SAPT in psi4, default
symmetry c1  #important for SAPT in psi4, default
}

set PROPERTIES_ORIGIN ["COM"]
properties('MP2/aug-cc-pvtz', properties = ['dipole'])
--------------------------------------------------------------------------

    Molecular point group: c1
  Charge       = 0
  Multiplicity = 1
  Basis Set: AUG-CC-PVTZ
    Blend: AUG-CC-PVTZ
  Basis Set: (AUG-CC-PVTZ AUX)
    Blend: AUG-CC-PVTZ-JKFIT

    Orbital Energies [Eh]
    ---------------------

    Doubly Occupied:

       1A    -91.999423     2A    -20.522595     3A    -15.590396
       4A    -11.361802     5A    -11.281722     6A    -11.279104
       7A    -11.264777     8A    -11.261425     9A    -11.252120
      10A     -8.998833    11A     -6.679654    12A     -6.679084
      13A     -6.678477    14A     -1.377415    15A     -1.232675
      16A     -1.179189    17A     -1.017222    18A     -1.003355
      19A     -0.944554    20A     -0.834040    21A     -0.772058
      22A     -0.768611    23A     -0.723644    24A     -0.645666
      25A     -0.639104    26A     -0.624893    27A     -0.586320
      28A     -0.572748    29A     -0.555917    30A     -0.552361
      31A     -0.531634    32A     -0.510266    33A     -0.488330
      34A     -0.435665    35A     -0.399979    36A     -0.357596
      37A     -0.331053

  @DF-RHF Final Energy:  -758.26321750210786

   => Energetics <=

    Nuclear Repulsion Energy =            498.9440932546260115
    One-Electron Energy =               -2030.5472069051884318
    Two-Electron Energy =                 773.3398961484544998
    Total Energy =                       -758.2632175021078638
  Basis Set: (AUG-CC-PVTZ AUX)
    Blend: AUG-CC-PVTZ-RI
    Molecular point group: c1

    Geometry (in Angstrom), charge = 0, multiplicity = 1:

       Center              X                  Y                   Z               Mass
    ------------   -----------------  -----------------  -----------------  -----------------
         S           -1.423998506526    -1.066168613914     0.156643698796    31.972071174400
         O            1.530169493474    -1.419075613914    -0.341875301204    15.994914619570
         N            2.092860493474     0.753958386086     0.106908698796    14.003074004430
         C           -0.229476506526     0.156741386086    -0.046250301204    12.000000000000
         C            1.192061493474    -0.254416613914    -0.102874301204    12.000000000000
         C           -0.807857106526     1.459067786086    -0.182843401204    12.000000000000
         C           -2.215888506526     1.369808386086    -0.087647301204    12.000000000000
         C           -2.690156506526     0.087767386086     0.098224698796    12.000000000000
         C            3.511800493474     0.445258386086     0.170067698796    12.000000000000
         H           -0.233665506526     2.313844386086    -0.367135301204     1.007825032230
         H            1.762220493474     1.581576386086     0.585274698796     1.007825032230
         H           -2.860512506526     2.239014386086    -0.168140301204     1.007825032230
         H           -3.720194506526    -0.230898613914     0.201242698796     1.007825032230
         H            3.757422493474    -0.221631613914    -0.655711301204     1.007825032230
         H            3.785810493474    -0.051908613914     1.106950698796     1.007825032230
         H            4.078482493474     1.372366386086     0.070338698796     1.007825032230

  Basis Set: AUG-CC-PVTZ
    Blend: AUG-CC-PVTZ
  Basis Set: (AUG-CC-PVTZ AUX)
    Blend: AUG-CC-PVTZ-JKFIT
	 Reference Energy          =    -758.2632175021078638 [Eh]
	 Singles Energy            =      -0.0000000000000000 [Eh]
	 Same-Spin Energy          =      -0.4442794208285827 [Eh]
	 Opposite-Spin Energy      =      -1.3490114677007430 [Eh]
	 Correlation Energy        =      -1.7932908885293257 [Eh]
	 Total Energy              =    -760.0565083906371910 [Eh]

	 ================> DF-SCS-MP2 Energies <==================
	-----------------------------------------------------------
	 SCS Same-Spin Scale       =       0.3333333333333333 [-]
	 SCS Opposite-Spin Scale   =       1.2000000000000000 [-]
	 SCS Same-Spin Energy      =      -0.1480931402761942 [Eh]
	 SCS Opposite-Spin Energy  =      -1.6188137612408915 [Eh]
	 SCS Correlation Energy    =      -1.7669069015170857 [Eh]
	 SCS Total Energy          =    -760.0301244036249955 [Eh]
	-----------------------------------------------------------

  Dipole Moment: [D]
     X:    -0.3573      Y:     3.5654      Z:     1.0867     Total:     3.7445

*** Psi4 exiting successfully. Buy a developer a beer!
