                               Psi4 1.3.2 release

  ==> Input File <==

--------------------------------------------------------------------------
#psi4
#
memory 32 gb

molecule  {
0 1
  S       -1.4679970    -1.1088850     0.1509200
  O        1.4861710    -1.4617920    -0.3475990
  N        2.0488620     0.7112420     0.1011850
  C       -0.2734750     0.1140250    -0.0519740
  C        1.1480630    -0.2971330    -0.1085980
  C       -0.8491840     1.3674970    -0.1820640
  C       -2.2606314     1.3514004    -0.0975707
  C       -2.7341550     0.0450510     0.0925010
  C        3.4678020     0.4025420     0.1643440
  H       -0.2776640     2.2711280    -0.3728590
  H        1.7182220     1.5388600     0.5795510
  H       -2.9045110     2.1962980    -0.1738640
  H       -3.7641930    -0.2736150     0.1955190
  H        3.7134240    -0.2643480    -0.6614350
  H        3.7418120    -0.0946250     1.1012270
  H        4.0344840     1.3296500     0.0646150
units angstrom
no_reorient  #important for SAPT in psi4, default
symmetry c1  #important for SAPT in psi4, default
}

set PROPERTIES_ORIGIN ["COM"]
properties('MP2/aug-cc-pvtz', properties = ['dipole'])
--------------------------------------------------------------------------

    Molecular point group: c1
  Charge       = 0
  Multiplicity = 1
  Basis Set: AUG-CC-PVTZ
    Blend: AUG-CC-PVTZ
  Basis Set: (AUG-CC-PVTZ AUX)
    Blend: AUG-CC-PVTZ-JKFIT

    Orbital Energies [Eh]
    ---------------------

    Doubly Occupied:

       1A    -91.997899     2A    -20.523092     3A    -15.590513
       4A    -11.362536     5A    -11.282586     6A    -11.276255
       7A    -11.263181     8A    -11.261510     9A    -11.251907
      10A     -8.997460    11A     -6.678287    12A     -6.677727
      13A     -6.677085    14A     -1.377871    15A     -1.233017
      16A     -1.181767    17A     -1.018410    18A     -1.002233
      19A     -0.945227    20A     -0.832156    21A     -0.773951
      22A     -0.768760    23A     -0.721531    24A     -0.646317
      25A     -0.643509    26A     -0.625705    27A     -0.581041
      28A     -0.569159    29A     -0.557271    30A     -0.552707
      31A     -0.534515    32A     -0.510491    33A     -0.487498
      34A     -0.436816    35A     -0.400157    36A     -0.357668
      37A     -0.333180

  @DF-RHF Final Energy:  -758.26689683461780

   => Energetics <=

    Nuclear Repulsion Energy =            499.4956533447154925
    One-Electron Energy =               -2031.6631080178688080
    Two-Electron Energy =                 773.9005578385355193
    Total Energy =                       -758.2668968346177962
  Basis Set: (AUG-CC-PVTZ AUX)
    Blend: AUG-CC-PVTZ-RI
    Molecular point group: c1

    Geometry (in Angstrom), charge = 0, multiplicity = 1:

       Center              X                  Y                   Z               Mass
    ------------   -----------------  -----------------  -----------------  -----------------
         S           -1.424162494663    -1.064079960522     0.156447699276    31.972071174400
         O            1.530005505337    -1.416986960522    -0.342071300724    15.994914619570
         N            2.092696505337     0.756047039478     0.106712699276    14.003074004430
         C           -0.229640494663     0.158830039478    -0.046446300724    12.000000000000
         C            1.191897505337    -0.252327960522    -0.103070300724    12.000000000000
         C           -0.805349494663     1.412302039478    -0.176536300724    12.000000000000
         C           -2.216796894663     1.396205439478    -0.092043000724    12.000000000000
         C           -2.690320494663     0.089856039478     0.098028699276    12.000000000000
         C            3.511636505337     0.447347039478     0.169871699276    12.000000000000
         H           -0.233829494663     2.315933039478    -0.367331300724     1.007825032230
         H            1.762056505337     1.583665039478     0.585078699276     1.007825032230
         H           -2.860676494663     2.241103039478    -0.168336300724     1.007825032230
         H           -3.720358494663    -0.228809960522     0.201046699276     1.007825032230
         H            3.757258505337    -0.219542960522    -0.655907300724     1.007825032230
         H            3.785646505337    -0.049819960522     1.106754699276     1.007825032230
         H            4.078318505337     1.374455039478     0.070142699276     1.007825032230

  Basis Set: AUG-CC-PVTZ
    Blend: AUG-CC-PVTZ
  Basis Set: (AUG-CC-PVTZ AUX)
    Blend: AUG-CC-PVTZ-JKFIT
	 Reference Energy          =    -758.2668968346177962 [Eh]
	 Singles Energy            =      -0.0000000000000000 [Eh]
	 Same-Spin Energy          =      -0.4438044827363615 [Eh]
	 Opposite-Spin Energy      =      -1.3482926823664343 [Eh]
	 Correlation Energy        =      -1.7920971651027959 [Eh]
	 Total Energy              =    -760.0589939997205420 [Eh]

	 ================> DF-SCS-MP2 Energies <==================
	-----------------------------------------------------------
	 SCS Same-Spin Scale       =       0.3333333333333333 [-]
	 SCS Opposite-Spin Scale   =       1.2000000000000000 [-]
	 SCS Same-Spin Energy      =      -0.1479348275787872 [Eh]
	 SCS Opposite-Spin Energy  =      -1.6179512188397212 [Eh]
	 SCS Correlation Energy    =      -1.7658860464185082 [Eh]
	 SCS Total Energy          =    -760.0327828810362689 [Eh]
	-----------------------------------------------------------

  Dipole Moment: [D]
     X:    -0.3327      Y:     3.6030      Z:     1.0845     Total:     3.7774

*** Psi4 exiting successfully. Buy a developer a beer!
