                               Psi4 1.3.2 release

  ==> Input File <==

--------------------------------------------------------------------------
#psi4
#
memory 32 gb

molecule  {
0 1
  S       -1.4679970    -1.1088850     0.1509200
  O        1.4861710    -1.4617920    -0.3475990
  N        2.0488620     0.7112420     0.1011850
  C       -0.4122520    -0.0280500    -0.0284022
  C        1.1480630    -0.2971330    -0.1085980
  C       -0.8491840     1.3674970    -0.1820640
  C       -2.2598870     1.3270920    -0.0933710
  C       -2.7341550     0.0450510     0.0925010
  C        3.4678020     0.4025420     0.1643440
  H       -0.2776640     2.2711280    -0.3728590
  H        1.7182220     1.5388600     0.5795510
  H       -2.9045110     2.1962980    -0.1738640
  H       -3.7641930    -0.2736150     0.1955190
  H        3.7134240    -0.2643480    -0.6614350
  H        3.7418120    -0.0946250     1.1012270
  H        4.0344840     1.3296500     0.0646150
units angstrom
no_reorient  #important for SAPT in psi4, default
symmetry c1  #important for SAPT in psi4, default
}

set PROPERTIES_ORIGIN ["COM"]
properties('MP2/aug-cc-pvtz', properties = ['dipole'])
--------------------------------------------------------------------------

    Molecular point group: c1
  Charge       = 0
  Multiplicity = 1
  Basis Set: AUG-CC-PVTZ
    Blend: AUG-CC-PVTZ
  Basis Set: (AUG-CC-PVTZ AUX)
    Blend: AUG-CC-PVTZ-JKFIT

    Orbital Energies [Eh]
    ---------------------

    Doubly Occupied:

       1A    -92.000592     2A    -20.522013     3A    -15.595477
       4A    -11.368661     5A    -11.277371     6A    -11.264746
       7A    -11.264274     8A    -11.256414     9A    -11.249112
      10A     -9.005702    11A     -6.687290    12A     -6.685578
      13A     -6.684999    14A     -1.376894    15A     -1.233095
      16A     -1.206158    17A     -1.029720    18A     -0.990441
      19A     -0.943795    20A     -0.815683    21A     -0.770556
      22A     -0.764503    23A     -0.719476    24A     -0.646713
      25A     -0.639781    26A     -0.625578    27A     -0.573947
      28A     -0.567494    29A     -0.562290    30A     -0.553288
      31A     -0.546297    32A     -0.517847    33A     -0.494716
      34A     -0.425559    35A     -0.400835    36A     -0.366474
      37A     -0.317652

  @DF-RHF Final Energy:  -758.22098950332293

   => Energetics <=

    Nuclear Repulsion Energy =            501.6675085197313706
    One-Electron Energy =               -2035.8749494296873763
    Two-Electron Energy =                 775.9864514066330230
    Total Energy =                       -758.2209895033229259
  Basis Set: (AUG-CC-PVTZ AUX)
    Blend: AUG-CC-PVTZ-RI
    Molecular point group: c1

    Geometry (in Angstrom), charge = 0, multiplicity = 1:

       Center              X                  Y                   Z               Mass
    ------------   -----------------  -----------------  -----------------  -----------------
         S           -1.412417108117    -1.049922164843     0.154084583588    31.972071174400
         O            1.541750891883    -1.402829164843    -0.344434416412    15.994914619570
         N            2.104441891883     0.770204835157     0.104349583588    14.003074004430
         C           -0.356672108117     0.030912835157    -0.025237616412    12.000000000000
         C            1.203642891883    -0.238170164843    -0.105433416412    12.000000000000
         C           -0.793604108117     1.426459835157    -0.178899416412    12.000000000000
         C           -2.204307108117     1.386054835157    -0.090206416412    12.000000000000
         C           -2.678575108117     0.104013835157     0.095665583588    12.000000000000
         C            3.523381891883     0.461504835157     0.167508583588    12.000000000000
         H           -0.222084108117     2.330090835157    -0.369694416412     1.007825032230
         H            1.773801891883     1.597822835157     0.582715583588     1.007825032230
         H           -2.848931108117     2.255260835157    -0.170699416412     1.007825032230
         H           -3.708613108117    -0.214652164843     0.198683583588     1.007825032230
         H            3.769003891883    -0.205385164843    -0.658270416412     1.007825032230
         H            3.797391891883    -0.035662164843     1.104391583588     1.007825032230
         H            4.090063891883     1.388612835157     0.067779583588     1.007825032230

  Basis Set: AUG-CC-PVTZ
    Blend: AUG-CC-PVTZ
  Basis Set: (AUG-CC-PVTZ AUX)
    Blend: AUG-CC-PVTZ-JKFIT
	 Reference Energy          =    -758.2209895033229259 [Eh]
	 Singles Energy            =      -0.0000000000000000 [Eh]
	 Same-Spin Energy          =      -0.4462359874652838 [Eh]
	 Opposite-Spin Energy      =      -1.3499082339591966 [Eh]
	 Correlation Energy        =      -1.7961442214244803 [Eh]
	 Total Energy              =    -760.0171337247473957 [Eh]

	 ================> DF-SCS-MP2 Energies <==================
	-----------------------------------------------------------
	 SCS Same-Spin Scale       =       0.3333333333333333 [-]
	 SCS Opposite-Spin Scale   =       1.2000000000000000 [-]
	 SCS Same-Spin Energy      =      -0.1487453291550946 [Eh]
	 SCS Opposite-Spin Energy  =      -1.6198898807510358 [Eh]
	 SCS Correlation Energy    =      -1.7686352099061304 [Eh]
	 SCS Total Energy          =    -759.9896247132290910 [Eh]
	-----------------------------------------------------------

  Dipole Moment: [D]
     X:    -0.1387      Y:     3.3534      Z:     1.1305     Total:     3.5416

*** Psi4 exiting successfully. Buy a developer a beer!
