                               Psi4 1.3.2 release

  ==> Input File <==

--------------------------------------------------------------------------
#psi4
#
memory 32 gb

molecule  {
0 1
  S       -1.4679970    -1.1088850     0.1509200
  O        1.4861710    -1.4617920    -0.3475990
  N        2.0488620     0.7112420     0.1011850
  C       -0.2734750     0.1140250    -0.0519740
  C        1.1480630    -0.2971330    -0.1085980
  C       -0.8491840     1.3674970    -0.1820640
  C       -2.2571094     1.2785194    -0.0850539
  C       -2.7341550     0.0450510     0.0925010
  C        3.4678020     0.4025420     0.1643440
  H       -0.2776640     2.2711280    -0.3728590
  H        1.7182220     1.5388600     0.5795510
  H       -2.9045110     2.1962980    -0.1738640
  H       -3.7641930    -0.2736150     0.1955190
  H        3.7134240    -0.2643480    -0.6614350
  H        3.7418120    -0.0946250     1.1012270
  H        4.0344840     1.3296500     0.0646150
units angstrom
no_reorient  #important for SAPT in psi4, default
symmetry c1  #important for SAPT in psi4, default
}

set PROPERTIES_ORIGIN ["COM"]
properties('MP2/aug-cc-pvtz', properties = ['dipole'])
--------------------------------------------------------------------------

    Molecular point group: c1
  Charge       = 0
  Multiplicity = 1
  Basis Set: AUG-CC-PVTZ
    Blend: AUG-CC-PVTZ
  Basis Set: (AUG-CC-PVTZ AUX)
    Blend: AUG-CC-PVTZ-JKFIT

    Orbital Energies [Eh]
    ---------------------

    Doubly Occupied:

       1A    -91.992931     2A    -20.524077     3A    -15.591476
       4A    -11.362973     5A    -11.277956     6A    -11.272328
       7A    -11.262125     8A    -11.262114     9A    -11.248825
      10A     -8.993005    11A     -6.673848    12A     -6.673317
      13A     -6.672575    14A     -1.378635    15A     -1.233916
      16A     -1.189728    17A     -1.025265    18A     -0.998291
      19A     -0.948435    20A     -0.835262    21A     -0.770465
      22A     -0.766168    23A     -0.722055    24A     -0.646813
      25A     -0.638380    26A     -0.626413    27A     -0.586693
      28A     -0.572576    29A     -0.558698    30A     -0.553083
      31A     -0.529095    32A     -0.513534    33A     -0.483215
      34A     -0.436422    35A     -0.400699    36A     -0.356106
      37A     -0.341374

  @DF-RHF Final Energy:  -758.26669182185606

   => Energetics <=

    Nuclear Repulsion Energy =            500.8652175525278381
    One-Electron Energy =               -2034.4260744404950856
    Two-Electron Energy =                 775.2941650661111908
    Total Energy =                       -758.2666918218560568
  Basis Set: (AUG-CC-PVTZ AUX)
    Blend: AUG-CC-PVTZ-RI
    Molecular point group: c1

    Geometry (in Angstrom), charge = 0, multiplicity = 1:

       Center              X                  Y                   Z               Mass
    ------------   -----------------  -----------------  -----------------  -----------------
         S           -1.424462186558    -1.057878414533     0.155382627297    31.972071174400
         O            1.529705813442    -1.410785414533    -0.343136372703    15.994914619570
         N            2.092396813442     0.762248585467     0.105647627297    14.003074004430
         C           -0.229940186558     0.165031585467    -0.047511372703    12.000000000000
         C            1.191597813442    -0.246126414533    -0.104135372703    12.000000000000
         C           -0.805649186558     1.418503585467    -0.177601372703    12.000000000000
         C           -2.213574586558     1.329525985467    -0.080591272703    12.000000000000
         C           -2.690620186558     0.096057585467     0.096963627297    12.000000000000
         C            3.511336813442     0.453548585467     0.168806627297    12.000000000000
         H           -0.234129186558     2.322134585467    -0.368396372703     1.007825032230
         H            1.761756813442     1.589866585467     0.584013627297     1.007825032230
         H           -2.860976186558     2.247304585467    -0.169401372703     1.007825032230
         H           -3.720658186558    -0.222608414533     0.199981627297     1.007825032230
         H            3.756958813442    -0.213341414533    -0.656972372703     1.007825032230
         H            3.785346813442    -0.043618414533     1.105689627297     1.007825032230
         H            4.078018813442     1.380656585467     0.069077627297     1.007825032230

  Basis Set: AUG-CC-PVTZ
    Blend: AUG-CC-PVTZ
  Basis Set: (AUG-CC-PVTZ AUX)
    Blend: AUG-CC-PVTZ-JKFIT
	 Reference Energy          =    -758.2666918218560568 [Eh]
	 Singles Energy            =      -0.0000000000000000 [Eh]
	 Same-Spin Energy          =      -0.4429451278125159 [Eh]
	 Opposite-Spin Energy      =      -1.3469335691897804 [Eh]
	 Correlation Energy        =      -1.7898786970022962 [Eh]
	 Total Energy              =    -760.0565705188583934 [Eh]

	 ================> DF-SCS-MP2 Energies <==================
	-----------------------------------------------------------
	 SCS Same-Spin Scale       =       0.3333333333333333 [-]
	 SCS Opposite-Spin Scale   =       1.2000000000000000 [-]
	 SCS Same-Spin Energy      =      -0.1476483759375053 [Eh]
	 SCS Opposite-Spin Energy  =      -1.6163202830277363 [Eh]
	 SCS Correlation Energy    =      -1.7639686589652417 [Eh]
	 SCS Total Energy          =    -760.0306604808213251 [Eh]
	-----------------------------------------------------------

  Dipole Moment: [D]
     X:    -0.3118      Y:     3.6359      Z:     1.0771     Total:     3.8049

*** Psi4 exiting successfully. Buy a developer a beer!
