                               Psi4 1.4a3.dev225

  ==> Input File <==

--------------------------------------------------------------------------
#psi4
#
memory 32 gb

molecule  {
0 1
  S       -1.4679970    -1.1088850     0.1509200
  O        1.4861710    -1.4617920    -0.3475990
  N        2.0488620     0.7112420     0.1011850
  C       -0.2734750     0.1140250    -0.0519740
  C        1.1480630    -0.2971330    -0.1085980
  C       -0.8491840     1.3674970    -0.1820640
  C       -2.2598870     1.3270920    -0.0933710
  C       -2.7710886     0.0787111     0.0907969
  C        3.4678020     0.4025420     0.1643440
  H       -0.2776640     2.2711280    -0.3728590
  H        1.7182220     1.5388600     0.5795510
  H       -2.9045110     2.1962980    -0.1738640
  H       -3.7641930    -0.2736150     0.1955190
  H        3.7134240    -0.2643480    -0.6614350
  H        3.7418120    -0.0946250     1.1012270
  H        4.0344840     1.3296500     0.0646150
units angstrom
no_reorient  #important for SAPT in psi4, default
symmetry c1  #important for SAPT in psi4, default
}

set PROPERTIES_ORIGIN ["COM"]
properties('MP2/aug-cc-pvtz', properties = ['dipole'])
--------------------------------------------------------------------------

    Molecular point group: c1
  Charge       = 0
  Multiplicity = 1
  Basis Set: AUG-CC-PVTZ
    Blend: AUG-CC-PVTZ
  Basis Set: (AUG-CC-PVTZ AUX)
    Blend: AUG-CC-PVTZ-JKFIT

    Orbital Energies [Eh]
    ---------------------

    Doubly Occupied:

       1A    -91.993455     2A    -20.524665     3A    -15.591740
       4A    -11.363736     5A    -11.279534     6A    -11.278711
       7A    -11.263025     8A    -11.262264     9A    -11.251095
      10A     -8.992509    11A     -6.673306    12A     -6.672757
      13A     -6.672108    14A     -1.379098    15A     -1.234136
      16A     -1.180741    17A     -1.023908    18A     -0.994576
      19A     -0.948433    20A     -0.835188    21A     -0.774942
      22A     -0.769757    23A     -0.721733    24A     -0.647437
      25A     -0.642293    26A     -0.627040    27A     -0.584974
      28A     -0.578733    29A     -0.556776    30A     -0.553457
      31A     -0.527743    32A     -0.509976    33A     -0.478956
      34A     -0.437499    35A     -0.400876    36A     -0.356295
      37A     -0.338130

  @DF-RHF Final Energy:  -758.26708615766825

   => Energetics <=

    Nuclear Repulsion Energy =            499.0568769717112332
    One-Electron Energy =               -2030.8047275061987875
    Two-Electron Energy =                 773.4807643768192520
    Total Energy =                       -758.2670861576682455
  Basis Set: (AUG-CC-PVTZ AUX)
    Blend: AUG-CC-PVTZ-RI
    Molecular point group: c1

    Geometry (in Angstrom), charge = 0, multiplicity = 1:

       Center              X                  Y                   Z               Mass
    ------------   -----------------  -----------------  -----------------  -----------------
         S           -1.421083105136    -1.064875709725     0.156235345189    31.972071174400
         O            1.533084894864    -1.417782709725    -0.342283654811    15.994914619570
         N            2.095775894864     0.755251290275     0.106500345189    14.003074004430
         C           -0.226561105136     0.158034290275    -0.046658654811    12.000000000000
         C            1.194976894864    -0.253123709725    -0.103282654811    12.000000000000
         C           -0.802270105136     1.411506290275    -0.176748654811    12.000000000000
         C           -2.212973105136     1.371101290275    -0.088055654811    12.000000000000
         C           -2.724174705136     0.122720390275     0.096112245189    12.000000000000
         C            3.514715894864     0.446551290275     0.169659345189    12.000000000000
         H           -0.230750105136     2.315137290275    -0.367543654811     1.007825032230
         H            1.765135894864     1.582869290275     0.584866345189     1.007825032230
         H           -2.857597105136     2.240307290275    -0.168548654811     1.007825032230
         H           -3.717279105136    -0.229605709725     0.200834345189     1.007825032230
         H            3.760337894864    -0.220338709725    -0.656119654811     1.007825032230
         H            3.788725894864    -0.050615709725     1.106542345189     1.007825032230
         H            4.081397894864     1.373659290275     0.069930345189     1.007825032230

  Basis Set: AUG-CC-PVTZ
    Blend: AUG-CC-PVTZ
  Basis Set: (AUG-CC-PVTZ AUX)
    Blend: AUG-CC-PVTZ-JKFIT
	 Reference Energy          =    -758.2670861576682455 [Eh]
	 Singles Energy            =      -0.0000000000000000 [Eh]
	 Same-Spin Energy          =      -0.4428986226382904 [Eh]
	 Opposite-Spin Energy      =      -1.3477730318230288 [Eh]
	 Correlation Energy        =      -1.7906716544613190 [Eh]
	 Total Energy              =    -760.0577578121295801 [Eh]

	 ================> DF-SCS-MP2 Energies <==================
	-----------------------------------------------------------
	 SCS Same-Spin Scale       =       0.3333333333333333 [-]
	 SCS Opposite-Spin Scale   =       1.2000000000000000 [-]
	 SCS Same-Spin Energy      =      -0.1476328742127634 [Eh]
	 SCS Opposite-Spin Energy  =      -1.6173276381876345 [Eh]
	 SCS Correlation Energy    =      -1.7649605124003980 [Eh]
	 SCS Total Energy          =    -760.0320466700686666 [Eh]
	-----------------------------------------------------------

  Dipole Moment: [D]
     X:    -0.3108      Y:     3.6752      Z:     1.0740     Total:     3.8415

*** Psi4 exiting successfully. Buy a developer a beer!
