                               Psi4 1.3.2 release

  ==> Input File <==

--------------------------------------------------------------------------
#psi4
#
memory 32 gb

molecule  {
0 1
  S       -1.4882680    -1.1305437     0.1547896
  O        1.4861710    -1.4617920    -0.3475990
  N        2.0488620     0.7112420     0.1011850
  C       -0.2734750     0.1140250    -0.0519740
  C        1.1480630    -0.2971330    -0.1085980
  C       -0.8491840     1.3674970    -0.1820640
  C       -2.2598870     1.3270920    -0.0933710
  C       -2.7341550     0.0450510     0.0925010
  C        3.4678020     0.4025420     0.1643440
  H       -0.2776640     2.2711280    -0.3728590
  H        1.7182220     1.5388600     0.5795510
  H       -2.9045110     2.1962980    -0.1738640
  H       -3.7641930    -0.2736150     0.1955190
  H        3.7134240    -0.2643480    -0.6614350
  H        3.7418120    -0.0946250     1.1012270
  H        4.0344840     1.3296500     0.0646150
units angstrom
no_reorient  #important for SAPT in psi4, default
symmetry c1  #important for SAPT in psi4, default
}

set PROPERTIES_ORIGIN ["COM"]
properties('MP2/aug-cc-pvtz', properties = ['dipole'])
--------------------------------------------------------------------------

    Molecular point group: c1
  Charge       = 0
  Multiplicity = 1
  Basis Set: AUG-CC-PVTZ
    Blend: AUG-CC-PVTZ
  Basis Set: (AUG-CC-PVTZ AUX)
    Blend: AUG-CC-PVTZ-JKFIT

    Orbital Energies [Eh]
    ---------------------

    Doubly Occupied:

       1A    -91.997149     2A    -20.522898     3A    -15.590568
       4A    -11.362207     5A    -11.280172     6A    -11.278997
       7A    -11.264366     8A    -11.261543     9A    -11.250963
      10A     -8.996270    11A     -6.677100    12A     -6.676477
      13A     -6.675864    14A     -1.377502    15A     -1.232989
      16A     -1.180615    17A     -1.019544    18A     -1.000278
      19A     -0.945392    20A     -0.833155    21A     -0.770169
      22A     -0.769006    23A     -0.722538    24A     -0.645539
      25A     -0.641081    26A     -0.625192    27A     -0.579318
      28A     -0.573993    29A     -0.556106    30A     -0.552325
      31A     -0.529821    32A     -0.510498    33A     -0.487325
      34A     -0.436249    35A     -0.400072    36A     -0.358438
      37A     -0.334696

  @DF-RHF Final Energy:  -758.26777714061495

   => Energetics <=

    Nuclear Repulsion Energy =            498.6193264009346535
    One-Electron Energy =               -2029.9413771620779698
    Two-Electron Energy =                 773.0542736205284200
    Total Energy =                       -758.2677771406149532
  Basis Set: (AUG-CC-PVTZ AUX)
    Blend: AUG-CC-PVTZ-RI
    Molecular point group: c1

    Geometry (in Angstrom), charge = 0, multiplicity = 1:

       Center              X                  Y                   Z               Mass
    ------------   -----------------  -----------------  -----------------  -----------------
         S           -1.439901150735    -1.078759930161     0.159082654849    31.972071174400
         O            1.534537849265    -1.410008230161    -0.343305945151    15.994914619570
         N            2.097228849265     0.763025769839     0.105478054849    14.003074004430
         C           -0.225108150735     0.165808769839    -0.047680945151    12.000000000000
         C            1.196429849265    -0.245349230161    -0.104304945151    12.000000000000
         C           -0.800817150735     1.419280769839    -0.177770945151    12.000000000000
         C           -2.211520150735     1.378875769839    -0.089077945151    12.000000000000
         C           -2.685788150735     0.096834769839     0.096794054849    12.000000000000
         C            3.516168849265     0.454325769839     0.168637054849    12.000000000000
         H           -0.229297150735     2.322911769839    -0.368565945151     1.007825032230
         H            1.766588849265     1.590643769839     0.583844054849     1.007825032230
         H           -2.856144150735     2.248081769839    -0.169570945151     1.007825032230
         H           -3.715826150735    -0.221831230161     0.199812054849     1.007825032230
         H            3.761790849265    -0.212564230161    -0.657141945151     1.007825032230
         H            3.790178849265    -0.042841230161     1.105520054849     1.007825032230
         H            4.082850849265     1.381433769839     0.068908054849     1.007825032230

  Basis Set: AUG-CC-PVTZ
    Blend: AUG-CC-PVTZ
  Basis Set: (AUG-CC-PVTZ AUX)
    Blend: AUG-CC-PVTZ-JKFIT
	 Reference Energy          =    -758.2677771406149532 [Eh]
	 Singles Energy            =      -0.0000000000000000 [Eh]
	 Same-Spin Energy          =      -0.4431805109593472 [Eh]
	 Opposite-Spin Energy      =      -1.3479390487342231 [Eh]
	 Correlation Energy        =      -1.7911195596935703 [Eh]
	 Total Energy              =    -760.0588967003085372 [Eh]

	 ================> DF-SCS-MP2 Energies <==================
	-----------------------------------------------------------
	 SCS Same-Spin Scale       =       0.3333333333333333 [-]
	 SCS Opposite-Spin Scale   =       1.2000000000000000 [-]
	 SCS Same-Spin Energy      =      -0.1477268369864491 [Eh]
	 SCS Opposite-Spin Energy  =      -1.6175268584810676 [Eh]
	 SCS Correlation Energy    =      -1.7652536954675166 [Eh]
	 SCS Total Energy          =    -760.0330308360825029 [Eh]
	-----------------------------------------------------------

  Dipole Moment: [D]
     X:    -0.3361      Y:     3.6289      Z:     1.0803     Total:     3.8012

*** Psi4 exiting successfully. Buy a developer a beer!
