                               Psi4 1.3.2 release

  ==> Input File <==

--------------------------------------------------------------------------
#psi4
#
memory 32 gb

molecule  {
0 1
  S       -1.4679970    -1.1088850     0.1509200
  O        1.5274483    -1.4497142    -0.3441661
  N        2.0488620     0.7112420     0.1011850
  C       -0.2734750     0.1140250    -0.0519740
  C        1.1480630    -0.2971330    -0.1085980
  C       -0.8491840     1.3674970    -0.1820640
  C       -2.2598870     1.3270920    -0.0933710
  C       -2.7341550     0.0450510     0.0925010
  C        3.4678020     0.4025420     0.1643440
  H       -0.2776640     2.2711280    -0.3728590
  H        1.7182220     1.5388600     0.5795510
  H       -2.9045110     2.1962980    -0.1738640
  H       -3.7641930    -0.2736150     0.1955190
  H        3.7134240    -0.2643480    -0.6614350
  H        3.7418120    -0.0946250     1.1012270
  H        4.0344840     1.3296500     0.0646150
units angstrom
no_reorient  #important for SAPT in psi4, default
symmetry c1  #important for SAPT in psi4, default
}

set PROPERTIES_ORIGIN ["COM"]
properties('MP2/aug-cc-pvtz', properties = ['dipole'])
--------------------------------------------------------------------------

    Molecular point group: c1
  Charge       = 0
  Multiplicity = 1
  Basis Set: AUG-CC-PVTZ
    Blend: AUG-CC-PVTZ
  Basis Set: (AUG-CC-PVTZ AUX)
    Blend: AUG-CC-PVTZ-JKFIT

    Orbital Energies [Eh]
    ---------------------

    Doubly Occupied:

       1A    -91.997486     2A    -20.522459     3A    -15.588535
       4A    -11.362196     5A    -11.280507     6A    -11.278558
       7A    -11.264244     8A    -11.260009     9A    -11.252010
      10A     -8.997229    11A     -6.678065    12A     -6.677513
      13A     -6.676839    14A     -1.378136    15A     -1.230393
      16A     -1.185481    17A     -1.021602    18A     -1.002155
      19A     -0.945306    20A     -0.833210    21A     -0.772255
      22A     -0.768056    23A     -0.722954    24A     -0.645304
      25A     -0.641532    26A     -0.625107    27A     -0.579578
      28A     -0.574380    29A     -0.557395    30A     -0.551172
      31A     -0.533716    32A     -0.511762    33A     -0.487399
      34A     -0.436695    35A     -0.398424    36A     -0.358150
      37A     -0.337259

  @DF-RHF Final Energy:  -758.26814027349224

   => Energetics <=

    Nuclear Repulsion Energy =            499.7590070690654898
    One-Electron Energy =               -2032.1881535265690673
    Two-Electron Energy =                 774.1610061840112849
    Total Energy =                       -758.2681402734922358
  Basis Set: (AUG-CC-PVTZ AUX)
    Blend: AUG-CC-PVTZ-RI
    Molecular point group: c1

    Geometry (in Angstrom), charge = 0, multiplicity = 1:

       Center              X                  Y                   Z               Mass
    ------------   -----------------  -----------------  -----------------  -----------------
         S           -1.428907472306    -1.063381378459     0.155700984398    31.972071174400
         O            1.566537827694    -1.404210578459    -0.339385115602    15.994914619570
         N            2.087951527694     0.756745621541     0.105965984398    14.003074004430
         C           -0.234385472306     0.159528621541    -0.047193015602    12.000000000000
         C            1.187152527694    -0.251629378459    -0.103817015602    12.000000000000
         C           -0.810094472306     1.413000621541    -0.177283015602    12.000000000000
         C           -2.220797472306     1.372595621541    -0.088590015602    12.000000000000
         C           -2.695065472306     0.090554621541     0.097281984398    12.000000000000
         C            3.506891527694     0.448045621541     0.169124984398    12.000000000000
         H           -0.238574472306     2.316631621541    -0.368078015602     1.007825032230
         H            1.757311527694     1.584363621541     0.584331984398     1.007825032230
         H           -2.865421472306     2.241801621541    -0.169083015602     1.007825032230
         H           -3.725103472306    -0.228111378459     0.200299984398     1.007825032230
         H            3.752513527694    -0.218844378459    -0.656654015602     1.007825032230
         H            3.780901527694    -0.049121378459     1.106007984398     1.007825032230
         H            4.073573527694     1.375153621541     0.069395984398     1.007825032230

  Basis Set: AUG-CC-PVTZ
    Blend: AUG-CC-PVTZ
  Basis Set: (AUG-CC-PVTZ AUX)
    Blend: AUG-CC-PVTZ-JKFIT
	 Reference Energy          =    -758.2681402734922358 [Eh]
	 Singles Energy            =      -0.0000000000000000 [Eh]
	 Same-Spin Energy          =      -0.4435623578942427 [Eh]
	 Opposite-Spin Energy      =      -1.3478330620474959 [Eh]
	 Correlation Energy        =      -1.7913954199417386 [Eh]
	 Total Energy              =    -760.0595356934339861 [Eh]

	 ================> DF-SCS-MP2 Energies <==================
	-----------------------------------------------------------
	 SCS Same-Spin Scale       =       0.3333333333333333 [-]
	 SCS Opposite-Spin Scale   =       1.2000000000000000 [-]
	 SCS Same-Spin Energy      =      -0.1478541192980809 [Eh]
	 SCS Opposite-Spin Energy  =      -1.6173996744569950 [Eh]
	 SCS Correlation Energy    =      -1.7652537937550759 [Eh]
	 SCS Total Energy          =    -760.0333940672472863 [Eh]
	-----------------------------------------------------------

  Dipole Moment: [D]
     X:    -0.4902      Y:     3.5995      Z:     1.0743     Total:     3.7883

*** Psi4 exiting successfully. Buy a developer a beer!
