                               Psi4 1.3.2 release

  ==> Input File <==

--------------------------------------------------------------------------
#psi4
#
memory 32 gb

molecule  {
0 1
  S       -1.4679970    -1.1088850     0.1509200
  O        1.4861710    -1.4617920    -0.3475990
  N        2.0488620     0.7112420     0.1011850
  C       -0.2734750     0.1140250    -0.0519740
  C        1.1480630    -0.2971330    -0.1085980
  C       -0.8491840     1.3674970    -0.1820640
  C       -2.1708720     1.2903914    -0.0944405
  C       -2.7341550     0.0450510     0.0925010
  C        3.4678020     0.4025420     0.1643440
  H       -0.2776640     2.2711280    -0.3728590
  H        1.7182220     1.5388600     0.5795510
  H       -2.9045110     2.1962980    -0.1738640
  H       -3.7641930    -0.2736150     0.1955190
  H        3.7134240    -0.2643480    -0.6614350
  H        3.7418120    -0.0946250     1.1012270
  H        4.0344840     1.3296500     0.0646150
units angstrom
no_reorient  #important for SAPT in psi4, default
symmetry c1  #important for SAPT in psi4, default
}

set PROPERTIES_ORIGIN ["COM"]
properties('MP2/aug-cc-pvtz', properties = ['dipole'])
--------------------------------------------------------------------------

    Molecular point group: c1
  Charge       = 0
  Multiplicity = 1
  Basis Set: AUG-CC-PVTZ
    Blend: AUG-CC-PVTZ
  Basis Set: (AUG-CC-PVTZ AUX)
    Blend: AUG-CC-PVTZ-JKFIT

    Orbital Energies [Eh]
    ---------------------

    Doubly Occupied:

       1A    -91.998427     2A    -20.522047     3A    -15.590625
       4A    -11.361498     5A    -11.278452     6A    -11.276020
       7A    -11.261549     8A    -11.253282     9A    -11.248894
      10A     -8.997940    11A     -6.678669    12A     -6.678246
      13A     -6.677621    14A     -1.377101    15A     -1.233175
      16A     -1.196561    17A     -1.018367    18A     -1.012280
      19A     -0.945119    20A     -0.832814    21A     -0.771917
      22A     -0.764177    23A     -0.724670    24A     -0.645976
      25A     -0.636145    26A     -0.625084    27A     -0.596125
      28A     -0.569989    29A     -0.559661    30A     -0.552663
      31A     -0.525106    32A     -0.513326    33A     -0.481550
      34A     -0.434658    35A     -0.400101    36A     -0.365585
      37A     -0.330481

  @DF-RHF Final Energy:  -758.25377903101787

   => Energetics <=

    Nuclear Repulsion Energy =            501.9098514301225578
    One-Electron Energy =               -2036.4554578437850978
    Two-Electron Energy =                 776.2918273826445557
    Total Energy =                       -758.2537790310178707
  Basis Set: (AUG-CC-PVTZ AUX)
    Blend: AUG-CC-PVTZ-RI
    Molecular point group: c1

    Geometry (in Angstrom), charge = 0, multiplicity = 1:

       Center              X                  Y                   Z               Mass
    ------------   -----------------  -----------------  -----------------  -----------------
         S           -1.431800247260    -1.058888619580     0.156181346190    31.972071174400
         O            1.522367752740    -1.411795619580    -0.342337653810    15.994914619570
         N            2.085058752740     0.761238380420     0.106446346190    14.003074004430
         C           -0.237278247260     0.164021380420    -0.046712653810    12.000000000000
         C            1.184259752740    -0.247136619580    -0.103336653810    12.000000000000
         C           -0.812987247260     1.417493380420    -0.176802653810    12.000000000000
         C           -2.134675247260     1.340387780420    -0.089179153810    12.000000000000
         C           -2.697958247260     0.095047380420     0.097762346190    12.000000000000
         C            3.503998752740     0.452538380420     0.169605346190    12.000000000000
         H           -0.241467247260     2.321124380420    -0.367597653810     1.007825032230
         H            1.754418752740     1.588856380420     0.584812346190     1.007825032230
         H           -2.868314247260     2.246294380420    -0.168602653810     1.007825032230
         H           -3.727996247260    -0.223618619580     0.200780346190     1.007825032230
         H            3.749620752740    -0.214351619580    -0.656173653810     1.007825032230
         H            3.778008752740    -0.044628619580     1.106488346190     1.007825032230
         H            4.070680752740     1.379646380420     0.069876346190     1.007825032230

  Basis Set: AUG-CC-PVTZ
    Blend: AUG-CC-PVTZ
  Basis Set: (AUG-CC-PVTZ AUX)
    Blend: AUG-CC-PVTZ-JKFIT
	 Reference Energy          =    -758.2537790310178707 [Eh]
	 Singles Energy            =      -0.0000000000000000 [Eh]
	 Same-Spin Energy          =      -0.4454390829914323 [Eh]
	 Opposite-Spin Energy      =      -1.3495598478880879 [Eh]
	 Correlation Energy        =      -1.7949989308795202 [Eh]
	 Total Energy              =    -760.0487779618973718 [Eh]

	 ================> DF-SCS-MP2 Energies <==================
	-----------------------------------------------------------
	 SCS Same-Spin Scale       =       0.3333333333333333 [-]
	 SCS Opposite-Spin Scale   =       1.2000000000000000 [-]
	 SCS Same-Spin Energy      =      -0.1484796943304774 [Eh]
	 SCS Opposite-Spin Energy  =      -1.6194718174657055 [Eh]
	 SCS Correlation Energy    =      -1.7679515117961828 [Eh]
	 SCS Total Energy          =    -760.0217305428139980 [Eh]
	-----------------------------------------------------------

  Dipole Moment: [D]
     X:    -0.3537      Y:     3.5740      Z:     1.0909     Total:     3.7535

*** Psi4 exiting successfully. Buy a developer a beer!
