                               Psi4 1.4a3.dev225

  ==> Input File <==

--------------------------------------------------------------------------
#psi4
#
memory 32 gb

molecule  {
0 1
  S       -1.4679970    -1.1088850     0.1509200
  O        1.4861710    -1.4617920    -0.3475990
  N        2.0488620     0.7112420     0.1011850
  C       -0.2734750     0.1140250    -0.0519740
  C        1.1000668    -0.2832509    -0.1066862
  C       -0.8491840     1.3674970    -0.1820640
  C       -2.2598870     1.3270920    -0.0933710
  C       -2.7341550     0.0450510     0.0925010
  C        3.4678020     0.4025420     0.1643440
  H       -0.2776640     2.2711280    -0.3728590
  H        1.7182220     1.5388600     0.5795510
  H       -2.9045110     2.1962980    -0.1738640
  H       -3.7641930    -0.2736150     0.1955190
  H        3.7134240    -0.2643480    -0.6614350
  H        3.7418120    -0.0946250     1.1012270
  H        4.0344840     1.3296500     0.0646150
units angstrom
no_reorient  #important for SAPT in psi4, default
symmetry c1  #important for SAPT in psi4, default
}

set PROPERTIES_ORIGIN ["COM"]
properties('MP2/aug-cc-pvtz', properties = ['dipole'])
--------------------------------------------------------------------------

    Molecular point group: c1
  Charge       = 0
  Multiplicity = 1
  Basis Set: AUG-CC-PVTZ
    Blend: AUG-CC-PVTZ
  Basis Set: (AUG-CC-PVTZ AUX)
    Blend: AUG-CC-PVTZ-JKFIT

    Orbital Energies [Eh]
    ---------------------

    Doubly Occupied:

       1A    -91.999945     2A    -20.519088     3A    -15.587823
       4A    -11.362328     5A    -11.284371     6A    -11.276766
       7A    -11.268578     8A    -11.259337     9A    -11.254222
      10A     -8.999625    11A     -6.680438    12A     -6.679874
      13A     -6.679198    14A     -1.360210    15A     -1.221706
      16A     -1.188771    17A     -1.030224    18A     -1.005013
      19A     -0.943503    20A     -0.842806    21A     -0.775549
      22A     -0.760548    23A     -0.725696    24A     -0.644603
      25A     -0.635550    26A     -0.620850    27A     -0.580648
      28A     -0.575428    29A     -0.559024    30A     -0.550001
      31A     -0.534275    32A     -0.506027    33A     -0.489062
      34A     -0.434320    35A     -0.393621    36A     -0.360133
      37A     -0.339508

  @DF-RHF Final Energy:  -758.26182577740497

   => Energetics <=

    Nuclear Repulsion Energy =            500.0797842584844375
    One-Electron Energy =               -2032.8258839851569064
    Two-Electron Energy =                 774.4842739492676174
    Total Energy =                       -758.2618257774049653
  Basis Set: (AUG-CC-PVTZ AUX)
    Blend: AUG-CC-PVTZ-RI
    Molecular point group: c1

    Geometry (in Angstrom), charge = 0, multiplicity = 1:

       Center              X                  Y                   Z               Mass
    ------------   -----------------  -----------------  -----------------  -----------------
         S           -1.420141773065    -1.063192772106     0.155927663213    31.972071174400
         O            1.534026226935    -1.416099772106    -0.342591336787    15.994914619570
         N            2.096717226935     0.756934227894     0.106192663213    14.003074004430
         C           -0.225619773065     0.159717227894    -0.046966336787    12.000000000000
         C            1.147922026935    -0.237558672106    -0.101678536787    12.000000000000
         C           -0.801328773065     1.413189227894    -0.177056336787    12.000000000000
         C           -2.212031773065     1.372784227894    -0.088363336787    12.000000000000
         C           -2.686299773065     0.090743227894     0.097508663213    12.000000000000
         C            3.515657226935     0.448234227894     0.169351663213    12.000000000000
         H           -0.229808773065     2.316820227894    -0.367851336787     1.007825032230
         H            1.766077226935     1.584552227894     0.584558663213     1.007825032230
         H           -2.856655773065     2.241990227894    -0.168856336787     1.007825032230
         H           -3.716337773065    -0.227922772106     0.200526663213     1.007825032230
         H            3.761279226935    -0.218655772106    -0.656427336787     1.007825032230
         H            3.789667226935    -0.048932772106     1.106234663213     1.007825032230
         H            4.082339226935     1.375342227894     0.069622663213     1.007825032230

  Basis Set: AUG-CC-PVTZ
    Blend: AUG-CC-PVTZ
  Basis Set: (AUG-CC-PVTZ AUX)
    Blend: AUG-CC-PVTZ-JKFIT
	 Reference Energy          =    -758.2618257774049653 [Eh]
	 Singles Energy            =      -0.0000000000000000 [Eh]
	 Same-Spin Energy          =      -0.4446410861618340 [Eh]
	 Opposite-Spin Energy      =      -1.3498764738391924 [Eh]
	 Correlation Energy        =      -1.7945175600010264 [Eh]
	 Total Energy              =    -760.0563433374060196 [Eh]

	 ================> DF-SCS-MP2 Energies <==================
	-----------------------------------------------------------
	 SCS Same-Spin Scale       =       0.3333333333333333 [-]
	 SCS Opposite-Spin Scale   =       1.2000000000000000 [-]
	 SCS Same-Spin Energy      =      -0.1482136953872780 [Eh]
	 SCS Opposite-Spin Energy  =      -1.6198517686070308 [Eh]
	 SCS Correlation Energy    =      -1.7680654639943088 [Eh]
	 SCS Total Energy          =    -760.0298912413992412 [Eh]
	-----------------------------------------------------------

  Dipole Moment: [D]
     X:    -0.7274      Y:     3.6734      Z:     1.0876     Total:     3.8995

*** Psi4 exiting successfully. Buy a developer a beer!
