                               Psi4 1.3.2 release

  ==> Input File <==

--------------------------------------------------------------------------
#psi4
#
memory 32 gb

molecule  {
0 1
  S       -1.4679970    -1.1088850     0.1509200
  O        1.4861710    -1.4617920    -0.3475990
  N        2.0488620     0.7112420     0.1011850
  C       -0.2734750     0.1140250    -0.0519740
  C        1.1480630    -0.2971330    -0.1085980
  C       -0.7660780     1.1865530    -0.1632850
  C       -2.2598870     1.3270920    -0.0933710
  C       -2.7341550     0.0450510     0.0925010
  C        3.4678020     0.4025420     0.1643440
  H       -0.2776640     2.2711280    -0.3728590
  H        1.7182220     1.5388600     0.5795510
  H       -2.9045110     2.1962980    -0.1738640
  H       -3.7641930    -0.2736150     0.1955190
  H        3.7134240    -0.2643480    -0.6614350
  H        3.7418120    -0.0946250     1.1012270
  H        4.0344840     1.3296500     0.0646150
units angstrom
no_reorient  #important for SAPT in psi4, default
symmetry c1  #important for SAPT in psi4, default
}

set PROPERTIES_ORIGIN ["COM"]
properties('MP2/aug-cc-pvtz', properties = ['dipole'])
--------------------------------------------------------------------------

    Molecular point group: c1
  Charge       = 0
  Multiplicity = 1
  Basis Set: AUG-CC-PVTZ
    Blend: AUG-CC-PVTZ
  Basis Set: (AUG-CC-PVTZ AUX)
    Blend: AUG-CC-PVTZ-JKFIT

    Orbital Energies [Eh]
    ---------------------

    Doubly Occupied:

       1A    -91.983101     2A    -20.527548     3A    -15.593025
       4A    -11.365533     5A    -11.278568     6A    -11.263256
       7A    -11.255620     8A    -11.254729     9A    -11.251442
      10A     -8.984320    11A     -6.665230    12A     -6.664689
      13A     -6.663676    14A     -1.381699    15A     -1.237702
      16A     -1.205443    17A     -1.044383    18A     -0.982025
      19A     -0.954736    20A     -0.833009    21A     -0.781541
      22A     -0.769235    23A     -0.707783    24A     -0.652728
      25A     -0.647161    26A     -0.630159    27A     -0.593944
      28A     -0.570451    29A     -0.555918    30A     -0.548532
      31A     -0.520123    32A     -0.515035    33A     -0.473884
      34A     -0.434413    35A     -0.401994    36A     -0.376184
      37A     -0.340155

  @DF-RHF Final Energy:  -758.21385657012820

   => Energetics <=

    Nuclear Repulsion Energy =            503.8646068028840546
    One-Electron Energy =               -2040.3389771587110317
    Two-Electron Energy =                 778.2605137856987767
    Total Energy =                       -758.2138565701282005
  Basis Set: (AUG-CC-PVTZ AUX)
    Blend: AUG-CC-PVTZ-RI
    Molecular point group: c1

    Geometry (in Angstrom), charge = 0, multiplicity = 1:

       Center              X                  Y                   Z               Mass
    ------------   -----------------  -----------------  -----------------  -----------------
         S           -1.431297442205    -1.046614747395     0.154492409628    31.972071174400
         O            1.522870557795    -1.399521747395    -0.344026590372    15.994914619570
         N            2.085561557795     0.773512252605     0.104757409628    14.003074004430
         C           -0.236775442205     0.176295252605    -0.048401590372    12.000000000000
         C            1.184762557795    -0.234862747395    -0.105025590372    12.000000000000
         C           -0.729378442205     1.248823252605    -0.159712590372    12.000000000000
         C           -2.223187442205     1.389362252605    -0.089798590372    12.000000000000
         C           -2.697455442205     0.107321252605     0.096073409628    12.000000000000
         C            3.504501557795     0.464812252605     0.167916409628    12.000000000000
         H           -0.240964442205     2.333398252605    -0.369286590372     1.007825032230
         H            1.754921557795     1.601130252605     0.583123409628     1.007825032230
         H           -2.867811442205     2.258568252605    -0.170291590372     1.007825032230
         H           -3.727493442205    -0.211344747395     0.199091409628     1.007825032230
         H            3.750123557795    -0.202077747395    -0.657862590372     1.007825032230
         H            3.778511557795    -0.032354747395     1.104799409628     1.007825032230
         H            4.071183557795     1.391920252605     0.068187409628     1.007825032230

  Basis Set: AUG-CC-PVTZ
    Blend: AUG-CC-PVTZ
  Basis Set: (AUG-CC-PVTZ AUX)
    Blend: AUG-CC-PVTZ-JKFIT
	 Reference Energy          =    -758.2138565701282005 [Eh]
	 Singles Energy            =      -0.0000000000000000 [Eh]
	 Same-Spin Energy          =      -0.4401551764909868 [Eh]
	 Opposite-Spin Energy      =      -1.3445980836503686 [Eh]
	 Correlation Energy        =      -1.7847532601413554 [Eh]
	 Total Energy              =    -759.9986098302695154 [Eh]

	 ================> DF-SCS-MP2 Energies <==================
	-----------------------------------------------------------
	 SCS Same-Spin Scale       =       0.3333333333333333 [-]
	 SCS Opposite-Spin Scale   =       1.2000000000000000 [-]
	 SCS Same-Spin Energy      =      -0.1467183921636623 [Eh]
	 SCS Opposite-Spin Energy  =      -1.6135177003804422 [Eh]
	 SCS Correlation Energy    =      -1.7602360925441045 [Eh]
	 SCS Total Energy          =    -759.9740926626723194 [Eh]
	-----------------------------------------------------------

  Dipole Moment: [D]
     X:    -0.1758      Y:     3.8242      Z:     1.0563     Total:     3.9713

*** Psi4 exiting successfully. Buy a developer a beer!
