                               Psi4 1.3.2 release

  ==> Input File <==

--------------------------------------------------------------------------
#psi4
#
memory 32 gb

molecule  {
0 1
  S       -1.3321071    -1.2268992     0.1596340
  O        1.4861710    -1.4617920    -0.3475990
  N        2.0488620     0.7112420     0.1011850
  C       -0.2734750     0.1140250    -0.0519740
  C        1.1480630    -0.2971330    -0.1085980
  C       -0.8491840     1.3674970    -0.1820640
  C       -2.2598870     1.3270920    -0.0933710
  C       -2.7341550     0.0450510     0.0925010
  C        3.4678020     0.4025420     0.1643440
  H       -0.2776640     2.2711280    -0.3728590
  H        1.7182220     1.5388600     0.5795510
  H       -2.9045110     2.1962980    -0.1738640
  H       -3.7641930    -0.2736150     0.1955190
  H        3.7134240    -0.2643480    -0.6614350
  H        3.7418120    -0.0946250     1.1012270
  H        4.0344840     1.3296500     0.0646150
units angstrom
no_reorient  #important for SAPT in psi4, default
symmetry c1  #important for SAPT in psi4, default
}

set PROPERTIES_ORIGIN ["COM"]
properties('MP2/aug-cc-pvtz', properties = ['dipole'])
--------------------------------------------------------------------------

    Molecular point group: c1
  Charge       = 0
  Multiplicity = 1
  Basis Set: AUG-CC-PVTZ
    Blend: AUG-CC-PVTZ
  Basis Set: (AUG-CC-PVTZ AUX)
    Blend: AUG-CC-PVTZ-JKFIT

    Orbital Energies [Eh]
    ---------------------

    Doubly Occupied:

       1A    -91.998292     2A    -20.525377     3A    -15.590897
       4A    -11.361618     5A    -11.290601     6A    -11.280923
       7A    -11.264209     8A    -11.261699     9A    -11.257399
      10A     -8.995103    11A     -6.675820    12A     -6.674940
      13A     -6.674425    14A     -1.380325    15A     -1.233594
      16A     -1.166749    17A     -1.023132    18A     -0.984611
      19A     -0.944625    20A     -0.832561    21A     -0.774256
      22A     -0.766832    23A     -0.717863    24A     -0.645974
      25A     -0.640214    26A     -0.624153    27A     -0.581039
      28A     -0.574146    29A     -0.554573    30A     -0.552704
      31A     -0.517375    32A     -0.502018    33A     -0.480136
      34A     -0.437155    35A     -0.401194    36A     -0.363017
      37A     -0.328393

  @DF-RHF Final Energy:  -758.24997363872853

   => Energetics <=

    Nuclear Repulsion Energy =            497.2363610779466399
    One-Electron Energy =               -2027.2167855217676333
    Two-Electron Energy =                 771.7304508050924596
    Total Energy =                       -758.2499736387285338
  Basis Set: (AUG-CC-PVTZ AUX)
    Blend: AUG-CC-PVTZ-RI
    Molecular point group: c1

    Geometry (in Angstrom), charge = 0, multiplicity = 1:

       Center              X                  Y                   Z               Mass
    ------------   -----------------  -----------------  -----------------  -----------------
         S           -1.319143854707    -1.153270448718     0.162828769560    31.972071174400
         O            1.499134245293    -1.388163248718    -0.344404230440    15.994914619570
         N            2.061825245293     0.784870751282     0.104379769560    14.003074004430
         C           -0.260511754707     0.187653751282    -0.048779230440    12.000000000000
         C            1.161026245293    -0.223504248718    -0.105403230440    12.000000000000
         C           -0.836220754707     1.441125751282    -0.178869230440    12.000000000000
         C           -2.246923754707     1.400720751282    -0.090176230440    12.000000000000
         C           -2.721191754707     0.118679751282     0.095695769560    12.000000000000
         C            3.480765245293     0.476170751282     0.167538769560    12.000000000000
         H           -0.264700754707     2.344756751282    -0.369664230440     1.007825032230
         H            1.731185245293     1.612488751282     0.582745769560     1.007825032230
         H           -2.891547754707     2.269926751282    -0.170669230440     1.007825032230
         H           -3.751229754707    -0.199986248718     0.198713769560     1.007825032230
         H            3.726387245293    -0.190719248718    -0.658240230440     1.007825032230
         H            3.754775245293    -0.020996248718     1.104421769560     1.007825032230
         H            4.047447245293     1.403278751282     0.067809769560     1.007825032230

  Basis Set: AUG-CC-PVTZ
    Blend: AUG-CC-PVTZ
  Basis Set: (AUG-CC-PVTZ AUX)
    Blend: AUG-CC-PVTZ-JKFIT
	 Reference Energy          =    -758.2499736387285338 [Eh]
	 Singles Energy            =      -0.0000000000000000 [Eh]
	 Same-Spin Energy          =      -0.4429600254344102 [Eh]
	 Opposite-Spin Energy      =      -1.3511166647490556 [Eh]
	 Correlation Energy        =      -1.7940766901834657 [Eh]
	 Total Energy              =    -760.0440503289120215 [Eh]

	 ================> DF-SCS-MP2 Energies <==================
	-----------------------------------------------------------
	 SCS Same-Spin Scale       =       0.3333333333333333 [-]
	 SCS Opposite-Spin Scale   =       1.2000000000000000 [-]
	 SCS Same-Spin Energy      =      -0.1476533418114701 [Eh]
	 SCS Opposite-Spin Energy  =      -1.6213399976988667 [Eh]
	 SCS Correlation Energy    =      -1.7689933395103368 [Eh]
	 SCS Total Energy          =    -760.0189669782388364 [Eh]
	-----------------------------------------------------------

  Dipole Moment: [D]
     X:    -0.2217      Y:     3.7072      Z:     1.0534     Total:     3.8603

*** Psi4 exiting successfully. Buy a developer a beer!
