                               Psi4 1.3.2 release

  ==> Input File <==

--------------------------------------------------------------------------
#psi4
#
memory 32 gb

molecule  {
0 1
  S       -1.4679970    -1.1088850     0.1509200
  O        1.4861710    -1.4617920    -0.3475990
  N        2.0488620     0.7112420     0.1011850
  C       -0.1508231    -0.0177461    -0.0440838
  C        1.1480630    -0.2971330    -0.1085980
  C       -0.8491840     1.3674970    -0.1820640
  C       -2.2598870     1.3270920    -0.0933710
  C       -2.7341550     0.0450510     0.0925010
  C        3.4678020     0.4025420     0.1643440
  H       -0.2776640     2.2711280    -0.3728590
  H        1.7182220     1.5388600     0.5795510
  H       -2.9045110     2.1962980    -0.1738640
  H       -3.7641930    -0.2736150     0.1955190
  H        3.7134240    -0.2643480    -0.6614350
  H        3.7418120    -0.0946250     1.1012270
  H        4.0344840     1.3296500     0.0646150
units angstrom
no_reorient  #important for SAPT in psi4, default
symmetry c1  #important for SAPT in psi4, default
}

set PROPERTIES_ORIGIN ["COM"]
properties('MP2/aug-cc-pvtz', properties = ['dipole'])
--------------------------------------------------------------------------

    Molecular point group: c1
  Charge       = 0
  Multiplicity = 1
  Basis Set: AUG-CC-PVTZ
    Blend: AUG-CC-PVTZ
  Basis Set: (AUG-CC-PVTZ AUX)
    Blend: AUG-CC-PVTZ-JKFIT

    Orbital Energies [Eh]
    ---------------------

    Doubly Occupied:

       1A    -92.008549     2A    -20.509030     3A    -15.584111
       4A    -11.341987     5A    -11.291811     6A    -11.286833
       7A    -11.278905     8A    -11.259453     9A    -11.257762
      10A     -9.006982    11A     -6.687700    12A     -6.687400
      13A     -6.686812    14A     -1.375640    15A     -1.227561
      16A     -1.174726    17A     -1.040365    18A     -0.998764
      19A     -0.938474    20A     -0.860879    21A     -0.771311
      22A     -0.764374    23A     -0.712408    24A     -0.649186
      25A     -0.641717    26A     -0.625988    27A     -0.584378
      28A     -0.576767    29A     -0.559344    30A     -0.550459
      31A     -0.534033    32A     -0.506375    33A     -0.470621
      34A     -0.431048    35A     -0.394804    36A     -0.361622
      37A     -0.322294

  @DF-RHF Final Energy:  -758.22101122046217

   => Energetics <=

    Nuclear Repulsion Energy =            500.1871124256978192
    One-Electron Energy =               -2032.8952941069262579
    Two-Electron Energy =                 774.4871704607661513
    Total Energy =                       -758.2210112204621737
  Basis Set: (AUG-CC-PVTZ AUX)
    Blend: AUG-CC-PVTZ-RI
    Molecular point group: c1

    Geometry (in Angstrom), charge = 0, multiplicity = 1:

       Center              X                  Y                   Z               Mass
    ------------   -----------------  -----------------  -----------------  -----------------
         S           -1.434662458019    -1.050798938072     0.155418952814    31.972071174400
         O            1.519505541981    -1.403705938072    -0.343100047186    15.994914619570
         N            2.082196541981     0.769328061928     0.105683952814    14.003074004430
         C           -0.117488558019     0.040339961928    -0.039584847186    12.000000000000
         C            1.181397541981    -0.239046938072    -0.104099047186    12.000000000000
         C           -0.815849458019     1.425583061928    -0.177565047186    12.000000000000
         C           -2.226552458019     1.385178061928    -0.088872047186    12.000000000000
         C           -2.700820458019     0.103137061928     0.096999952814    12.000000000000
         C            3.501136541981     0.460628061928     0.168842952814    12.000000000000
         H           -0.244329458019     2.329214061928    -0.368360047186     1.007825032230
         H            1.751556541981     1.596946061928     0.584049952814     1.007825032230
         H           -2.871176458019     2.254384061928    -0.169365047186     1.007825032230
         H           -3.730858458019    -0.215528938072     0.200017952814     1.007825032230
         H            3.746758541981    -0.206261938072    -0.656936047186     1.007825032230
         H            3.775146541981    -0.036538938072     1.105725952814     1.007825032230
         H            4.067818541981     1.387736061928     0.069113952814     1.007825032230

  Basis Set: AUG-CC-PVTZ
    Blend: AUG-CC-PVTZ
  Basis Set: (AUG-CC-PVTZ AUX)
    Blend: AUG-CC-PVTZ-JKFIT
	 Reference Energy          =    -758.2210112204621737 [Eh]
	 Singles Energy            =      -0.0000000000000000 [Eh]
	 Same-Spin Energy          =      -0.4479149887913905 [Eh]
	 Opposite-Spin Energy      =      -1.3541285261086617 [Eh]
	 Correlation Energy        =      -1.8020435149000522 [Eh]
	 Total Energy              =    -760.0230547353622796 [Eh]

	 ================> DF-SCS-MP2 Energies <==================
	-----------------------------------------------------------
	 SCS Same-Spin Scale       =       0.3333333333333333 [-]
	 SCS Opposite-Spin Scale   =       1.2000000000000000 [-]
	 SCS Same-Spin Energy      =      -0.1493049962637968 [Eh]
	 SCS Opposite-Spin Energy  =      -1.6249542313303940 [Eh]
	 SCS Correlation Energy    =      -1.7742592275941909 [Eh]
	 SCS Total Energy          =    -759.9952704480563170 [Eh]
	-----------------------------------------------------------

  Dipole Moment: [D]
     X:    -0.8142      Y:     3.6393      Z:     1.1095     Total:     3.8908

*** Psi4 exiting successfully. Buy a developer a beer!
