                               Psi4 1.3.2 release

  ==> Input File <==

--------------------------------------------------------------------------
#psi4
#
memory 32 gb

molecule  {
0 1
  S       -1.4679970    -1.1088850     0.1509200
  O        1.4861710    -1.4617920    -0.3475990
  N        2.0488620     0.7112420     0.1011850
  C       -0.2734750     0.1140250    -0.0519740
  C        1.1480630    -0.2971330    -0.1085980
  C       -0.8491840     1.3674970    -0.1820640
  C       -2.3596492     1.3242346    -0.0870988
  C       -2.7341550     0.0450510     0.0925010
  C        3.4678020     0.4025420     0.1643440
  H       -0.2776640     2.2711280    -0.3728590
  H        1.7182220     1.5388600     0.5795510
  H       -2.9045110     2.1962980    -0.1738640
  H       -3.7641930    -0.2736150     0.1955190
  H        3.7134240    -0.2643480    -0.6614350
  H        3.7418120    -0.0946250     1.1012270
  H        4.0344840     1.3296500     0.0646150
units angstrom
no_reorient  #important for SAPT in psi4, default
symmetry c1  #important for SAPT in psi4, default
}

set PROPERTIES_ORIGIN ["COM"]
properties('MP2/aug-cc-pvtz', properties = ['dipole'])
--------------------------------------------------------------------------

    Molecular point group: c1
  Charge       = 0
  Multiplicity = 1
  Basis Set: AUG-CC-PVTZ
    Blend: AUG-CC-PVTZ
  Basis Set: (AUG-CC-PVTZ AUX)
    Blend: AUG-CC-PVTZ-JKFIT

    Orbital Energies [Eh]
    ---------------------

    Doubly Occupied:

       1A    -91.992256     2A    -20.525317     3A    -15.591546
       4A    -11.364145     5A    -11.278687     6A    -11.275670
       7A    -11.270749     8A    -11.262198     9A    -11.251771
      10A     -8.992415    11A     -6.673355    12A     -6.672682
      13A     -6.671912    14A     -1.379583    15A     -1.234024
      16A     -1.177470    17A     -1.027019    18A     -0.989905
      19A     -0.948258    20A     -0.835204    21A     -0.776707
      22A     -0.768414    23A     -0.721163    24A     -0.647755
      25A     -0.645483    26A     -0.626886    27A     -0.590587
      28A     -0.559790    29A     -0.555964    30A     -0.549847
      31A     -0.531739    32A     -0.510015    33A     -0.486722
      34A     -0.437832    35A     -0.400906    36A     -0.350218
      37A     -0.345081

  @DF-RHF Final Energy:  -758.26116762344157

   => Energetics <=

    Nuclear Repulsion Energy =            498.6232777134356979
    One-Electron Energy =               -2029.9303380940752959
    Two-Electron Energy =                 773.0458927571979757
    Total Energy =                       -758.2611676234415654
  Basis Set: (AUG-CC-PVTZ AUX)
    Blend: AUG-CC-PVTZ-RI
    Molecular point group: c1

    Geometry (in Angstrom), charge = 0, multiplicity = 1:

       Center              X                  Y                   Z               Mass
    ------------   -----------------  -----------------  -----------------  -----------------
         S           -1.415736931890    -1.061768384693     0.155556630692    31.972071174400
         O            1.538431068110    -1.414675384693    -0.342962369308    15.994914619570
         N            2.101122068110     0.758358615307     0.105821630692    14.003074004430
         C           -0.221214931890     0.161141615307    -0.047337369308    12.000000000000
         C            1.200323068110    -0.250016384693    -0.103961369308    12.000000000000
         C           -0.796923931890     1.414613615307    -0.177427369308    12.000000000000
         C           -2.307389131890     1.371351215307    -0.082462169308    12.000000000000
         C           -2.681894931890     0.092167615307     0.097137630692    12.000000000000
         C            3.520062068110     0.449658615307     0.168980630692    12.000000000000
         H           -0.225403931890     2.318244615307    -0.368222369308     1.007825032230
         H            1.770482068110     1.585976615307     0.584187630692     1.007825032230
         H           -2.852250931890     2.243414615307    -0.169227369308     1.007825032230
         H           -3.711932931890    -0.226498384693     0.200155630692     1.007825032230
         H            3.765684068110    -0.217231384693    -0.656798369308     1.007825032230
         H            3.794072068110    -0.047508384693     1.105863630692     1.007825032230
         H            4.086744068110     1.376766615307     0.069251630692     1.007825032230

  Basis Set: AUG-CC-PVTZ
    Blend: AUG-CC-PVTZ
  Basis Set: (AUG-CC-PVTZ AUX)
    Blend: AUG-CC-PVTZ-JKFIT
	 Reference Energy          =    -758.2611676234415654 [Eh]
	 Singles Energy            =      -0.0000000000000000 [Eh]
	 Same-Spin Energy          =      -0.4413489255211909 [Eh]
	 Opposite-Spin Energy      =      -1.3464425499315951 [Eh]
	 Correlation Energy        =      -1.7877914754527859 [Eh]
	 Total Energy              =    -760.0489590988943291 [Eh]

	 ================> DF-SCS-MP2 Energies <==================
	-----------------------------------------------------------
	 SCS Same-Spin Scale       =       0.3333333333333333 [-]
	 SCS Opposite-Spin Scale   =       1.2000000000000000 [-]
	 SCS Same-Spin Energy      =      -0.1471163085070636 [Eh]
	 SCS Opposite-Spin Energy  =      -1.6157310599179140 [Eh]
	 SCS Correlation Energy    =      -1.7628473684249777 [Eh]
	 SCS Total Energy          =    -760.0240149918665793 [Eh]
	-----------------------------------------------------------

  Dipole Moment: [D]
     X:    -0.2586      Y:     3.6705      Z:     1.0698     Total:     3.8320

*** Psi4 exiting successfully. Buy a developer a beer!
