                               Psi4 1.3.2 release

  ==> Input File <==

--------------------------------------------------------------------------
#psi4
#
memory 32 gb

molecule  {
0 1
  S       -1.4679970    -1.1088850     0.1509200
  O        1.4861710    -1.4617920    -0.3475990
  N        2.0488620     0.7112420     0.1011850
  C       -0.2734750     0.1140250    -0.0519740
  C        1.1480630    -0.2971330    -0.1085980
  C       -0.8482689     1.3185105    -0.1760917
  C       -2.2598870     1.3270920    -0.0933710
  C       -2.7341550     0.0450510     0.0925010
  C        3.4678020     0.4025420     0.1643440
  H       -0.2776640     2.2711280    -0.3728590
  H        1.7182220     1.5388600     0.5795510
  H       -2.9045110     2.1962980    -0.1738640
  H       -3.7641930    -0.2736150     0.1955190
  H        3.7134240    -0.2643480    -0.6614350
  H        3.7418120    -0.0946250     1.1012270
  H        4.0344840     1.3296500     0.0646150
units angstrom
no_reorient  #important for SAPT in psi4, default
symmetry c1  #important for SAPT in psi4, default
}

set PROPERTIES_ORIGIN ["COM"]
properties('MP2/aug-cc-pvtz', properties = ['dipole'])
--------------------------------------------------------------------------

    Molecular point group: c1
  Charge       = 0
  Multiplicity = 1
  Basis Set: AUG-CC-PVTZ
    Blend: AUG-CC-PVTZ
  Basis Set: (AUG-CC-PVTZ AUX)
    Blend: AUG-CC-PVTZ-JKFIT

    Orbital Energies [Eh]
    ---------------------

    Doubly Occupied:

       1A    -91.993140     2A    -20.524356     3A    -15.591313
       4A    -11.363689     5A    -11.279359     6A    -11.271678
       7A    -11.262018     8A    -11.260720     9A    -11.249961
      10A     -8.993194    11A     -6.674033    12A     -6.673507
      13A     -6.672762    14A     -1.378927    15A     -1.234035
      16A     -1.190036    17A     -1.024569    18A     -0.998342
      19A     -0.948207    20A     -0.832680    21A     -0.773300
      22A     -0.769135    23A     -0.718200    24A     -0.647813
      25A     -0.644141    26A     -0.627005    27A     -0.583687
      28A     -0.565305    29A     -0.558291    30A     -0.553468
      31A     -0.532782    32A     -0.512956    33A     -0.483555
      34A     -0.437658    35A     -0.400701    36A     -0.357381
      37A     -0.340267

  @DF-RHF Final Energy:  -758.26712263591014

   => Energetics <=

    Nuclear Repulsion Energy =            500.9672422631692257
    One-Electron Energy =               -2034.6243869679635736
    Two-Electron Energy =                 775.3900220688841500
    Total Energy =                       -758.2671226359101411
  Basis Set: (AUG-CC-PVTZ AUX)
    Blend: AUG-CC-PVTZ-RI
    Molecular point group: c1

    Geometry (in Angstrom), charge = 0, multiplicity = 1:

       Center              X                  Y                   Z               Mass
    ------------   -----------------  -----------------  -----------------  -----------------
         S           -1.424303703834    -1.057843195205     0.155582149601    31.972071174400
         O            1.529864296166    -1.410750195205    -0.342936850399    15.994914619570
         N            2.092555296166     0.762283804795     0.105847149601    14.003074004430
         C           -0.229781703834     0.165066804795    -0.047311850399    12.000000000000
         C            1.191756296166    -0.246091195205    -0.103935850399    12.000000000000
         C           -0.804575603834     1.369552304795    -0.171429550399    12.000000000000
         C           -2.216193703834     1.378133804795    -0.088708850399    12.000000000000
         C           -2.690461703834     0.096092804795     0.097163149601    12.000000000000
         C            3.511495296166     0.453583804795     0.169006149601    12.000000000000
         H           -0.233970703834     2.322169804795    -0.368196850399     1.007825032230
         H            1.761915296166     1.589901804795     0.584213149601     1.007825032230
         H           -2.860817703834     2.247339804795    -0.169201850399     1.007825032230
         H           -3.720499703834    -0.222573195205     0.200181149601     1.007825032230
         H            3.757117296166    -0.213306195205    -0.656772850399     1.007825032230
         H            3.785505296166    -0.043583195205     1.105889149601     1.007825032230
         H            4.078177296166     1.380691804795     0.069277149601     1.007825032230

  Basis Set: AUG-CC-PVTZ
    Blend: AUG-CC-PVTZ
  Basis Set: (AUG-CC-PVTZ AUX)
    Blend: AUG-CC-PVTZ-JKFIT
	 Reference Energy          =    -758.2671226359101411 [Eh]
	 Singles Energy            =      -0.0000000000000000 [Eh]
	 Same-Spin Energy          =      -0.4428578407423881 [Eh]
	 Opposite-Spin Energy      =      -1.3468673206980912 [Eh]
	 Correlation Energy        =      -1.7897251614404794 [Eh]
	 Total Energy              =    -760.0568477973506560 [Eh]

	 ================> DF-SCS-MP2 Energies <==================
	-----------------------------------------------------------
	 SCS Same-Spin Scale       =       0.3333333333333333 [-]
	 SCS Opposite-Spin Scale   =       1.2000000000000000 [-]
	 SCS Same-Spin Energy      =      -0.1476192802474627 [Eh]
	 SCS Opposite-Spin Energy  =      -1.6162407848377094 [Eh]
	 SCS Correlation Energy    =      -1.7638600650851721 [Eh]
	 SCS Total Energy          =    -760.0309827009953096 [Eh]
	-----------------------------------------------------------

  Dipole Moment: [D]
     X:    -0.3014      Y:     3.6599      Z:     1.0788     Total:     3.8274

*** Psi4 exiting successfully. Buy a developer a beer!
