                               Psi4 1.3.2 release

  ==> Input File <==

--------------------------------------------------------------------------
#psi4
#
memory 32 gb

molecule  {
0 1
  S       -1.4679970    -1.1088850     0.1509200
  O        1.4861710    -1.4617920    -0.3475990
  N        2.0488620     0.7112420     0.1011850
  C       -0.4076079     0.0629662    -0.0311789
  C        1.1480630    -0.2971330    -0.1085980
  C       -0.8491840     1.3674970    -0.1820640
  C       -2.2598870     1.3270920    -0.0933710
  C       -2.7341550     0.0450510     0.0925010
  C        3.4678020     0.4025420     0.1643440
  H       -0.2776640     2.2711280    -0.3728590
  H        1.7182220     1.5388600     0.5795510
  H       -2.9045110     2.1962980    -0.1738640
  H       -3.7641930    -0.2736150     0.1955190
  H        3.7134240    -0.2643480    -0.6614350
  H        3.7418120    -0.0946250     1.1012270
  H        4.0344840     1.3296500     0.0646150
units angstrom
no_reorient  #important for SAPT in psi4, default
symmetry c1  #important for SAPT in psi4, default
}

set PROPERTIES_ORIGIN ["COM"]
properties('MP2/aug-cc-pvtz', properties = ['dipole'])
--------------------------------------------------------------------------

    Molecular point group: c1
  Charge       = 0
  Multiplicity = 1
  Basis Set: AUG-CC-PVTZ
    Blend: AUG-CC-PVTZ
  Basis Set: (AUG-CC-PVTZ AUX)
    Blend: AUG-CC-PVTZ-JKFIT

    Orbital Energies [Eh]
    ---------------------

    Doubly Occupied:

       1A    -91.996697     2A    -20.524749     3A    -15.594179
       4A    -11.368605     5A    -11.275251     6A    -11.267643
       7A    -11.263833     8A    -11.252000     9A    -11.247930
      10A     -8.999743    11A     -6.680924    12A     -6.679893
      13A     -6.679145    14A     -1.376908    15A     -1.233119
      16A     -1.201458    17A     -1.018031    18A     -1.000470
      19A     -0.946691    20A     -0.813940    21A     -0.771156
      22A     -0.764202    23A     -0.724427    24A     -0.645642
      25A     -0.639608    26A     -0.624518    27A     -0.575889
      28A     -0.561863    29A     -0.558979    30A     -0.554170
      31A     -0.546873    32A     -0.517738    33A     -0.497107
      34A     -0.427848    35A     -0.400904    36A     -0.359744
      37A     -0.330540

  @DF-RHF Final Energy:  -758.24674539789385

   => Energetics <=

    Nuclear Repulsion Energy =            501.0633596827771612
    One-Electron Energy =               -2034.7753738122084997
    Two-Electron Energy =                 775.4652687315374351
    Total Energy =                       -758.2467453978938465
  Basis Set: (AUG-CC-PVTZ AUX)
    Blend: AUG-CC-PVTZ-RI
    Molecular point group: c1

    Geometry (in Angstrom), charge = 0, multiplicity = 1:

       Center              X                  Y                   Z               Mass
    ------------   -----------------  -----------------  -----------------  -----------------
         S           -1.412812281066    -1.057666860306     0.154320856866    31.972071174400
         O            1.541355718934    -1.410573860306    -0.344198143134    15.994914619570
         N            2.104046718934     0.762460139694     0.104585856866    14.003074004430
         C           -0.352423181066     0.114184339694    -0.027778043134    12.000000000000
         C            1.203247718934    -0.245914860306    -0.105197143134    12.000000000000
         C           -0.793999281066     1.418715139694    -0.178663143134    12.000000000000
         C           -2.204702281066     1.378310139694    -0.089970143134    12.000000000000
         C           -2.678970281066     0.096269139694     0.095901856866    12.000000000000
         C            3.522986718934     0.453760139694     0.167744856866    12.000000000000
         H           -0.222479281066     2.322346139694    -0.369458143134     1.007825032230
         H            1.773406718934     1.590078139694     0.582951856866     1.007825032230
         H           -2.849326281066     2.247516139694    -0.170463143134     1.007825032230
         H           -3.709008281066    -0.222396860306     0.198919856866     1.007825032230
         H            3.768608718934    -0.213129860306    -0.658034143134     1.007825032230
         H            3.796996718934    -0.043406860306     1.104627856866     1.007825032230
         H            4.089668718934     1.380868139694     0.068015856866     1.007825032230

  Basis Set: AUG-CC-PVTZ
    Blend: AUG-CC-PVTZ
  Basis Set: (AUG-CC-PVTZ AUX)
    Blend: AUG-CC-PVTZ-JKFIT
	 Reference Energy          =    -758.2467453978938465 [Eh]
	 Singles Energy            =      -0.0000000000000000 [Eh]
	 Same-Spin Energy          =      -0.4443026699011746 [Eh]
	 Opposite-Spin Energy      =      -1.3479687568544290 [Eh]
	 Correlation Energy        =      -1.7922714267556037 [Eh]
	 Total Energy              =    -760.0390168246494795 [Eh]

	 ================> DF-SCS-MP2 Energies <==================
	-----------------------------------------------------------
	 SCS Same-Spin Scale       =       0.3333333333333333 [-]
	 SCS Opposite-Spin Scale   =       1.2000000000000000 [-]
	 SCS Same-Spin Energy      =      -0.1481008899670582 [Eh]
	 SCS Opposite-Spin Energy  =      -1.6175625082253147 [Eh]
	 SCS Correlation Energy    =      -1.7656633981923728 [Eh]
	 SCS Total Energy          =    -760.0124087960862198 [Eh]
	-----------------------------------------------------------

  Dipole Moment: [D]
     X:    -0.0871      Y:     3.4028      Z:     1.1025     Total:     3.5780

*** Psi4 exiting successfully. Buy a developer a beer!
