                               Psi4 1.3.2 release

  ==> Input File <==

--------------------------------------------------------------------------
#psi4
#
memory 32 gb

molecule  {
0 1
  S       -1.4679970    -1.1088850     0.1509200
  O        1.4861710    -1.4617920    -0.3475990
  N        2.1515641     0.6129391     0.0838134
  C       -0.2734750     0.1140250    -0.0519740
  C        1.1480630    -0.2971330    -0.1085980
  C       -0.8491840     1.3674970    -0.1820640
  C       -2.2598870     1.3270920    -0.0933710
  C       -2.7341550     0.0450510     0.0925010
  C        3.4678020     0.4025420     0.1643440
  H       -0.2776640     2.2711280    -0.3728590
  H        1.7182220     1.5388600     0.5795510
  H       -2.9045110     2.1962980    -0.1738640
  H       -3.7641930    -0.2736150     0.1955190
  H        3.7134240    -0.2643480    -0.6614350
  H        3.7418120    -0.0946250     1.1012270
  H        4.0344840     1.3296500     0.0646150
units angstrom
no_reorient  #important for SAPT in psi4, default
symmetry c1  #important for SAPT in psi4, default
}

set PROPERTIES_ORIGIN ["COM"]
properties('MP2/aug-cc-pvtz', properties = ['dipole'])
--------------------------------------------------------------------------

    Molecular point group: c1
  Charge       = 0
  Multiplicity = 1
  Basis Set: AUG-CC-PVTZ
    Blend: AUG-CC-PVTZ
  Basis Set: (AUG-CC-PVTZ AUX)
    Blend: AUG-CC-PVTZ-JKFIT

    Orbital Energies [Eh]
    ---------------------

    Doubly Occupied:

       1A    -92.000199     2A    -20.517560     3A    -15.594562
       4A    -11.362656     5A    -11.282905     6A    -11.282647
       7A    -11.266613     8A    -11.253644     9A    -11.251187
      10A     -8.999792    11A     -6.680607    12A     -6.680076
      13A     -6.679377    14A     -1.380628    15A     -1.242855
      16A     -1.188684    17A     -1.027612    18A     -1.004305
      19A     -0.953294    20A     -0.825446    21A     -0.774203
      22A     -0.749732    23A     -0.725527    24A     -0.667209
      25A     -0.641454    26A     -0.639818    27A     -0.587637
      28A     -0.575635    29A     -0.559063    30A     -0.543094
      31A     -0.523346    32A     -0.509961    33A     -0.489179
      34A     -0.433645    35A     -0.385757    36A     -0.359682
      37A     -0.339105

  @DF-RHF Final Energy:  -758.23865020844357

   => Energetics <=

    Nuclear Repulsion Energy =            500.5039530619482662
    One-Electron Energy =               -2033.5278152530891020
    Two-Electron Energy =                 774.7852119826972057
    Total Energy =                       -758.2386502084435733
  Basis Set: (AUG-CC-PVTZ AUX)
    Blend: AUG-CC-PVTZ-RI
    Molecular point group: c1

    Geometry (in Angstrom), charge = 0, multiplicity = 1:

       Center              X                  Y                   Z               Mass
    ------------   -----------------  -----------------  -----------------  -----------------
         S           -1.434423651192    -1.052250529321     0.157815255567    31.972071174400
         O            1.519744348808    -1.405157529321    -0.340703744433    15.994914619570
         N            2.185137448808     0.669573570679     0.090708655567    14.003074004430
         C           -0.239901651192     0.170659470679    -0.045078744433    12.000000000000
         C            1.181636348808    -0.240498529321    -0.101702744433    12.000000000000
         C           -0.815610651192     1.424131470679    -0.175168744433    12.000000000000
         C           -2.226313651192     1.383726470679    -0.086475744433    12.000000000000
         C           -2.700581651192     0.101685470679     0.099396255567    12.000000000000
         C            3.501375348808     0.459176470679     0.171239255567    12.000000000000
         H           -0.244090651192     2.327762470679    -0.365963744433     1.007825032230
         H            1.751795348808     1.595494470679     0.586446255567     1.007825032230
         H           -2.870937651192     2.252932470679    -0.166968744433     1.007825032230
         H           -3.730619651192    -0.216980529321     0.202414255567     1.007825032230
         H            3.746997348808    -0.207713529321    -0.654539744433     1.007825032230
         H            3.775385348808    -0.037990529321     1.108122255567     1.007825032230
         H            4.068057348808     1.386284470679     0.071510255567     1.007825032230

  Basis Set: AUG-CC-PVTZ
    Blend: AUG-CC-PVTZ
  Basis Set: (AUG-CC-PVTZ AUX)
    Blend: AUG-CC-PVTZ-JKFIT
	 Reference Energy          =    -758.2386502084435733 [Eh]
	 Singles Energy            =      -0.0000000000000000 [Eh]
	 Same-Spin Energy          =      -0.4451430307078217 [Eh]
	 Opposite-Spin Energy      =      -1.3502011947189025 [Eh]
	 Correlation Energy        =      -1.7953442254267242 [Eh]
	 Total Energy              =    -760.0339944338702480 [Eh]

	 ================> DF-SCS-MP2 Energies <==================
	-----------------------------------------------------------
	 SCS Same-Spin Scale       =       0.3333333333333333 [-]
	 SCS Opposite-Spin Scale   =       1.2000000000000000 [-]
	 SCS Same-Spin Energy      =      -0.1483810102359406 [Eh]
	 SCS Opposite-Spin Energy  =      -1.6202414336626829 [Eh]
	 SCS Correlation Energy    =      -1.7686224438986236 [Eh]
	 SCS Total Energy          =    -760.0072726523421807 [Eh]
	-----------------------------------------------------------

  Dipole Moment: [D]
     X:    -0.6939      Y:     3.7551      Z:     1.0344     Total:     3.9563

*** Psi4 exiting successfully. Buy a developer a beer!
