                               Psi4 1.3.2 release

  ==> Input File <==

--------------------------------------------------------------------------
#psi4
#
memory 32 gb

molecule  {
0 1
  S       -1.4481117    -1.0868748     0.1470326
  O        1.4861710    -1.4617920    -0.3475990
  N        2.0488620     0.7112420     0.1011850
  C       -0.2734750     0.1140250    -0.0519740
  C        1.1480630    -0.2971330    -0.1085980
  C       -0.8491840     1.3674970    -0.1820640
  C       -2.2598870     1.3270920    -0.0933710
  C       -2.7341550     0.0450510     0.0925010
  C        3.4678020     0.4025420     0.1643440
  H       -0.2776640     2.2711280    -0.3728590
  H        1.7182220     1.5388600     0.5795510
  H       -2.9045110     2.1962980    -0.1738640
  H       -3.7641930    -0.2736150     0.1955190
  H        3.7134240    -0.2643480    -0.6614350
  H        3.7418120    -0.0946250     1.1012270
  H        4.0344840     1.3296500     0.0646150
units angstrom
no_reorient  #important for SAPT in psi4, default
symmetry c1  #important for SAPT in psi4, default
}

set PROPERTIES_ORIGIN ["COM"]
properties('MP2/aug-cc-pvtz', properties = ['dipole'])
--------------------------------------------------------------------------

    Molecular point group: c1
  Charge       = 0
  Multiplicity = 1
  Basis Set: AUG-CC-PVTZ
    Blend: AUG-CC-PVTZ
  Basis Set: (AUG-CC-PVTZ AUX)
    Blend: AUG-CC-PVTZ-JKFIT

    Orbital Energies [Eh]
    ---------------------

    Doubly Occupied:

       1A    -91.995154     2A    -20.523970     3A    -15.591139
       4A    -11.363221     5A    -11.278178     6A    -11.274567
       7A    -11.261901     8A    -11.261087     9A    -11.250757
      10A     -8.995570    11A     -6.676420    12A     -6.675913
      13A     -6.675182    14A     -1.378783    15A     -1.233677
      16A     -1.188174    17A     -1.022081    18A     -1.001149
      19A     -0.947081    20A     -0.833093    21A     -0.772339
      22A     -0.769315    23A     -0.721319    24A     -0.647215
      25A     -0.642309    26A     -0.626691    27A     -0.579744
      28A     -0.572823    29A     -0.559541    30A     -0.553606
      31A     -0.536270    32A     -0.512615    33A     -0.484757
      34A     -0.437286    35A     -0.400620    36A     -0.355930
      37A     -0.336839

  @DF-RHF Final Energy:  -758.26829115750752

   => Energetics <=

    Nuclear Repulsion Energy =            501.2841746431924435
    One-Electron Energy =               -2035.2322941423335578
    Two-Electron Energy =                 775.6798283416335380
    Total Energy =                       -758.2682911575075195
  Basis Set: (AUG-CC-PVTZ AUX)
    Blend: AUG-CC-PVTZ-RI
    Molecular point group: c1

    Geometry (in Angstrom), charge = 0, multiplicity = 1:

       Center              X                  Y                   Z               Mass
    ------------   -----------------  -----------------  -----------------  -----------------
         S           -1.408848779709    -1.044991308921     0.153084262516    31.972071174400
         O            1.525433920291    -1.419908508921    -0.341547337484    15.994914619570
         N            2.088124920291     0.753125491079     0.107236662516    14.003074004430
         C           -0.234212079709     0.155908491079    -0.045922337484    12.000000000000
         C            1.187325920291    -0.255249508921    -0.102546337484    12.000000000000
         C           -0.809921079709     1.409380491079    -0.176012337484    12.000000000000
         C           -2.220624079709     1.368975491079    -0.087319337484    12.000000000000
         C           -2.694892079709     0.086934491079     0.098552662516    12.000000000000
         C            3.507064920291     0.444425491079     0.170395662516    12.000000000000
         H           -0.238401079709     2.313011491079    -0.366807337484     1.007825032230
         H            1.757484920291     1.580743491079     0.585602662516     1.007825032230
         H           -2.865248079709     2.238181491079    -0.167812337484     1.007825032230
         H           -3.724930079709    -0.231731508921     0.201570662516     1.007825032230
         H            3.752686920291    -0.222464508921    -0.655383337484     1.007825032230
         H            3.781074920291    -0.052741508921     1.107278662516     1.007825032230
         H            4.073746920291     1.371533491079     0.070666662516     1.007825032230

  Basis Set: AUG-CC-PVTZ
    Blend: AUG-CC-PVTZ
  Basis Set: (AUG-CC-PVTZ AUX)
    Blend: AUG-CC-PVTZ-JKFIT
	 Reference Energy          =    -758.2682911575075195 [Eh]
	 Singles Energy            =      -0.0000000000000000 [Eh]
	 Same-Spin Energy          =      -0.4438253143542670 [Eh]
	 Opposite-Spin Energy      =      -1.3476430626052782 [Eh]
	 Correlation Energy        =      -1.7914683769595452 [Eh]
	 Total Energy              =    -760.0597595344670481 [Eh]

	 ================> DF-SCS-MP2 Energies <==================
	-----------------------------------------------------------
	 SCS Same-Spin Scale       =       0.3333333333333333 [-]
	 SCS Opposite-Spin Scale   =       1.2000000000000000 [-]
	 SCS Same-Spin Energy      =      -0.1479417714514223 [Eh]
	 SCS Opposite-Spin Energy  =      -1.6171716751263339 [Eh]
	 SCS Correlation Energy    =      -1.7651134465777563 [Eh]
	 SCS Total Energy          =    -760.0334046040852627 [Eh]
	-----------------------------------------------------------

  Dipole Moment: [D]
     X:    -0.3177      Y:     3.6034      Z:     1.0834     Total:     3.7761

*** Psi4 exiting successfully. Buy a developer a beer!
