                               Psi4 1.3.2 release

  ==> Input File <==

--------------------------------------------------------------------------
#psi4
#
memory 32 gb

molecule  {
0 1
  S       -1.4679970    -1.1088850     0.1509200
  O        1.4861710    -1.4617920    -0.3475990
  N        2.0488620     0.7112420     0.1011850
  C       -0.2734750     0.1140250    -0.0519740
  C        1.1480630    -0.2971330    -0.1085980
  C       -0.8491840     1.3674970    -0.1820640
  C       -2.2526165     1.2300553    -0.0768550
  C       -2.7341550     0.0450510     0.0925010
  C        3.4678020     0.4025420     0.1643440
  H       -0.2776640     2.2711280    -0.3728590
  H        1.7182220     1.5388600     0.5795510
  H       -2.9045110     2.1962980    -0.1738640
  H       -3.7641930    -0.2736150     0.1955190
  H        3.7134240    -0.2643480    -0.6614350
  H        3.7418120    -0.0946250     1.1012270
  H        4.0344840     1.3296500     0.0646150
units angstrom
no_reorient  #important for SAPT in psi4, default
symmetry c1  #important for SAPT in psi4, default
}

set PROPERTIES_ORIGIN ["COM"]
properties('MP2/aug-cc-pvtz', properties = ['dipole'])
--------------------------------------------------------------------------

    Molecular point group: c1
  Charge       = 0
  Multiplicity = 1
  Basis Set: AUG-CC-PVTZ
    Blend: AUG-CC-PVTZ
  Basis Set: (AUG-CC-PVTZ AUX)
    Blend: AUG-CC-PVTZ-JKFIT

    Orbital Energies [Eh]
    ---------------------

    Doubly Occupied:

       1A    -91.989925     2A    -20.524766     3A    -15.592149
       4A    -11.363302     5A    -11.279189     6A    -11.265470
       7A    -11.262541     8A    -11.261860     9A    -11.246906
      10A     -8.990344    11A     -6.671191    12A     -6.670686
      13A     -6.669872    14A     -1.379186    15A     -1.234575
      16A     -1.196118    17A     -1.030673    18A     -0.995788
      19A     -0.950742    20A     -0.837723    21A     -0.771676
      22A     -0.762605    23A     -0.721056    24A     -0.647514
      25A     -0.635975    26A     -0.627088    27A     -0.597156
      28A     -0.569823    29A     -0.559985    30A     -0.553173
      31A     -0.524869    32A     -0.514362    33A     -0.479036
      34A     -0.435709    35A     -0.401100    36A     -0.356434
      37A     -0.346133

  @DF-RHF Final Energy:  -758.25741703157280

   => Energetics <=

    Nuclear Repulsion Energy =            501.8446070939785386
    One-Electron Energy =               -2036.3706465706629842
    Two-Electron Energy =                 776.2686224451116459
    Total Energy =                       -758.2574170315727997
  Basis Set: (AUG-CC-PVTZ AUX)
    Blend: AUG-CC-PVTZ-RI
    Molecular point group: c1

    Geometry (in Angstrom), charge = 0, multiplicity = 1:

       Center              X                  Y                   Z               Mass
    ------------   -----------------  -----------------  -----------------  -----------------
         S           -1.424844493688    -1.053754536637     0.154684971456    31.972071174400
         O            1.529323506312    -1.406661536637    -0.343834028544    15.994914619570
         N            2.092014506312     0.766372463363     0.104949971456    14.003074004430
         C           -0.230322493688     0.169155463363    -0.048209028544    12.000000000000
         C            1.191215506312    -0.242002536637    -0.104833028544    12.000000000000
         C           -0.806031493688     1.422627463363    -0.178299028544    12.000000000000
         C           -2.209463993688     1.285185763363    -0.073090028544    12.000000000000
         C           -2.691002493688     0.100181463363     0.096265971456    12.000000000000
         C            3.510954506312     0.457672463363     0.168108971456    12.000000000000
         H           -0.234511493688     2.326258463363    -0.369094028544     1.007825032230
         H            1.761374506312     1.593990463363     0.583315971456     1.007825032230
         H           -2.861358493688     2.251428463363    -0.170099028544     1.007825032230
         H           -3.721040493688    -0.218484536637     0.199283971456     1.007825032230
         H            3.756576506312    -0.209217536637    -0.657670028544     1.007825032230
         H            3.784964506312    -0.039494536637     1.104991971456     1.007825032230
         H            4.077636506312     1.384780463363     0.068379971456     1.007825032230

  Basis Set: AUG-CC-PVTZ
    Blend: AUG-CC-PVTZ
  Basis Set: (AUG-CC-PVTZ AUX)
    Blend: AUG-CC-PVTZ-JKFIT
	 Reference Energy          =    -758.2574170315727997 [Eh]
	 Singles Energy            =      -0.0000000000000000 [Eh]
	 Same-Spin Energy          =      -0.4425402850618734 [Eh]
	 Opposite-Spin Energy      =      -1.3464057399767575 [Eh]
	 Correlation Energy        =      -1.7889460250386309 [Eh]
	 Total Energy              =    -760.0463630566114261 [Eh]

	 ================> DF-SCS-MP2 Energies <==================
	-----------------------------------------------------------
	 SCS Same-Spin Scale       =       0.3333333333333333 [-]
	 SCS Opposite-Spin Scale   =       1.2000000000000000 [-]
	 SCS Same-Spin Energy      =      -0.1475134283539578 [Eh]
	 SCS Opposite-Spin Energy  =      -1.6156868879721089 [Eh]
	 SCS Correlation Energy    =      -1.7632003163260668 [Eh]
	 SCS Total Energy          =    -760.0206173478989058 [Eh]
	-----------------------------------------------------------

  Dipole Moment: [D]
     X:    -0.2839      Y:     3.6476      Z:     1.0729     Total:     3.8127

*** Psi4 exiting successfully. Buy a developer a beer!
