                               Psi4 1.3.2 release

  ==> Input File <==

--------------------------------------------------------------------------
#psi4
#
memory 32 gb

molecule  {
0 1
  S       -1.4679970    -1.1088850     0.1509200
  O        1.4861710    -1.4617920    -0.3475990
  N        2.0488620     0.7112420     0.1011850
  C       -0.2734750     0.1140250    -0.0519740
  C        1.1480630    -0.2971330    -0.1085980
  C       -0.8491840     1.3674970    -0.1820640
  C       -2.2598870     1.3270920    -0.0933710
  C       -2.7341550     0.0450510     0.0925010
  C        3.4678020     0.4025420     0.1643440
  H       -0.3302859     2.1879275    -0.3552918
  H        1.7182220     1.5388600     0.5795510
  H       -2.9045110     2.1962980    -0.1738640
  H       -3.7641930    -0.2736150     0.1955190
  H        3.7134240    -0.2643480    -0.6614350
  H        3.7418120    -0.0946250     1.1012270
  H        4.0344840     1.3296500     0.0646150
units angstrom
no_reorient  #important for SAPT in psi4, default
symmetry c1  #important for SAPT in psi4, default
}

set PROPERTIES_ORIGIN ["COM"]
properties('MP2/aug-cc-pvtz', properties = ['dipole'])
--------------------------------------------------------------------------

    Molecular point group: c1
  Charge       = 0
  Multiplicity = 1
  Basis Set: AUG-CC-PVTZ
    Blend: AUG-CC-PVTZ
  Basis Set: (AUG-CC-PVTZ AUX)
    Blend: AUG-CC-PVTZ-JKFIT

    Orbital Energies [Eh]
    ---------------------

    Doubly Occupied:

       1A    -91.995662     2A    -20.523484     3A    -15.591194
       4A    -11.362722     5A    -11.278601     6A    -11.276318
       7A    -11.261897     8A    -11.251336     9A    -11.249833
      10A     -8.995412    11A     -6.676249    12A     -6.675696
      13A     -6.675030    14A     -1.378204    15A     -1.233612
      16A     -1.184379    17A     -1.021089    18A     -1.005030
      19A     -0.947016    20A     -0.835345    21A     -0.776467
      22A     -0.769519    23A     -0.734235    24A     -0.646577
      25A     -0.641588    26A     -0.625991    27A     -0.585532
      28A     -0.575741    29A     -0.557943    30A     -0.553063
      31A     -0.533881    32A     -0.511310    33A     -0.486561
      34A     -0.436780    35A     -0.400609    36A     -0.356665
      37A     -0.335526

  @DF-RHF Final Energy:  -758.26270179126050

   => Energetics <=

    Nuclear Repulsion Energy =            500.4788069699910693
    One-Electron Energy =               -2033.5908210197176231
    Two-Electron Energy =                 774.8493122584659432
    Total Energy =                       -758.2627017912604970
  Basis Set: (AUG-CC-PVTZ AUX)
    Blend: AUG-CC-PVTZ-RI
    Molecular point group: c1

    Geometry (in Angstrom), charge = 0, multiplicity = 1:

       Center              X                  Y                   Z               Mass
    ------------   -----------------  -----------------  -----------------  -----------------
         S           -1.423849777630    -1.061416937754     0.155964798063    31.972071174400
         O            1.530318222370    -1.414323937754    -0.342554201937    15.994914619570
         N            2.093009222370     0.758710062246     0.106229798063    14.003074004430
         C           -0.229327777630     0.161493062246    -0.046929201937    12.000000000000
         C            1.192210222370    -0.249664937754    -0.103553201937    12.000000000000
         C           -0.805036777630     1.414965062246    -0.177019201937    12.000000000000
         C           -2.215739777630     1.374560062246    -0.088326201937    12.000000000000
         C           -2.690007777630     0.092519062246     0.097545798063    12.000000000000
         C            3.511949222370     0.450010062246     0.169388798063    12.000000000000
         H           -0.286138677630     2.235395562246    -0.350247001937     1.007825032230
         H            1.762369222370     1.586328062246     0.584595798063     1.007825032230
         H           -2.860363777630     2.243766062246    -0.168819201937     1.007825032230
         H           -3.720045777630    -0.226146937754     0.200563798063     1.007825032230
         H            3.757571222370    -0.216879937754    -0.656390201937     1.007825032230
         H            3.785959222370    -0.047156937754     1.106271798063     1.007825032230
         H            4.078631222370     1.377118062246     0.069659798063     1.007825032230

  Basis Set: AUG-CC-PVTZ
    Blend: AUG-CC-PVTZ
  Basis Set: (AUG-CC-PVTZ AUX)
    Blend: AUG-CC-PVTZ-JKFIT
	 Reference Energy          =    -758.2627017912604970 [Eh]
	 Singles Energy            =      -0.0000000000000000 [Eh]
	 Same-Spin Energy          =      -0.4432917772731290 [Eh]
	 Opposite-Spin Energy      =      -1.3473359228487380 [Eh]
	 Correlation Energy        =      -1.7906277001218669 [Eh]
	 Total Energy              =    -760.0533294913823283 [Eh]

	 ================> DF-SCS-MP2 Energies <==================
	-----------------------------------------------------------
	 SCS Same-Spin Scale       =       0.3333333333333333 [-]
	 SCS Opposite-Spin Scale   =       1.2000000000000000 [-]
	 SCS Same-Spin Energy      =      -0.1477639257577096 [Eh]
	 SCS Opposite-Spin Energy  =      -1.6168031074184857 [Eh]
	 SCS Correlation Energy    =      -1.7645670331761953 [Eh]
	 SCS Total Energy          =    -760.0272688244366464 [Eh]
	-----------------------------------------------------------

  Dipole Moment: [D]
     X:    -0.3091      Y:     3.6246      Z:     1.0835     Total:     3.7957

*** Psi4 exiting successfully. Buy a developer a beer!
