                               Psi4 1.3.2 release

  ==> Input File <==

--------------------------------------------------------------------------
#psi4
#
memory 32 gb

molecule  {
0 1
  S       -1.4679970    -1.1088850     0.1509200
  O        1.4861710    -1.4617920    -0.3475990
  N        2.0488620     0.7112420     0.1011850
  C       -0.2734750     0.1140250    -0.0519740
  C        1.1480630    -0.2971330    -0.1085980
  C       -0.8491840     1.3674970    -0.1820640
  C       -2.2598870     1.3270920    -0.0933710
  C       -2.6602878    -0.0222692     0.0959091
  C        3.4678020     0.4025420     0.1643440
  H       -0.2776640     2.2711280    -0.3728590
  H        1.7182220     1.5388600     0.5795510
  H       -2.9045110     2.1962980    -0.1738640
  H       -3.7641930    -0.2736150     0.1955190
  H        3.7134240    -0.2643480    -0.6614350
  H        3.7418120    -0.0946250     1.1012270
  H        4.0344840     1.3296500     0.0646150
units angstrom
no_reorient  #important for SAPT in psi4, default
symmetry c1  #important for SAPT in psi4, default
}

set PROPERTIES_ORIGIN ["COM"]
properties('MP2/aug-cc-pvtz', properties = ['dipole'])
--------------------------------------------------------------------------

    Molecular point group: c1
  Charge       = 0
  Multiplicity = 1
  Basis Set: AUG-CC-PVTZ
    Blend: AUG-CC-PVTZ
  Basis Set: (AUG-CC-PVTZ AUX)
    Blend: AUG-CC-PVTZ-JKFIT

    Orbital Energies [Eh]
    ---------------------

    Doubly Occupied:

       1A    -92.000801     2A    -20.520492     3A    -15.588740
       4A    -11.360198     5A    -11.281180     6A    -11.270778
       7A    -11.262096     8A    -11.260408     9A    -11.251156
      10A     -9.002619    11A     -6.683708    12A     -6.682761
      13A     -6.682154    14A     -1.375804    15A     -1.231425
      16A     -1.194020    17A     -1.021900    18A     -1.007348
      19A     -0.941545    20A     -0.828131    21A     -0.770101
      22A     -0.762886    23A     -0.723194    24A     -0.643625
      25A     -0.639932    26A     -0.623546    27A     -0.576937
      28A     -0.561185    29A     -0.558968    30A     -0.548474
      31A     -0.543725    32A     -0.515264    33A     -0.493899
      34A     -0.434502    35A     -0.399054    36A     -0.363057
      37A     -0.327695

  @DF-RHF Final Energy:  -758.25674160391520

   => Energetics <=

    Nuclear Repulsion Energy =            501.8277240028867823
    One-Electron Energy =               -2036.3023123796019718
    Two-Electron Energy =                 776.2178467728000442
    Total Energy =                       -758.2567416039152022
  Basis Set: (AUG-CC-PVTZ AUX)
    Blend: AUG-CC-PVTZ-RI
    Molecular point group: c1

    Geometry (in Angstrom), charge = 0, multiplicity = 1:

       Center              X                  Y                   Z               Mass
    ------------   -----------------  -----------------  -----------------  -----------------
         S           -1.430511299821    -1.056283155089     0.155800340958    31.972071174400
         O            1.523656700179    -1.409190155089    -0.342718659042    15.994914619570
         N            2.086347700179     0.763843844911     0.106065340958    14.003074004430
         C           -0.235989299821     0.166626844911    -0.047093659042    12.000000000000
         C            1.185548700179    -0.244531155089    -0.103717659042    12.000000000000
         C           -0.811698299821     1.420098844911    -0.177183659042    12.000000000000
         C           -2.222401299821     1.379693844911    -0.088490659042    12.000000000000
         C           -2.622802099821     0.030332644911     0.100789440958    12.000000000000
         C            3.505287700179     0.455143844911     0.169224340958    12.000000000000
         H           -0.240178299821     2.323729844911    -0.367978659042     1.007825032230
         H            1.755707700179     1.591461844911     0.584431340958     1.007825032230
         H           -2.867025299821     2.248899844911    -0.168983659042     1.007825032230
         H           -3.726707299821    -0.221013155089     0.200399340958     1.007825032230
         H            3.750909700179    -0.211746155089    -0.656554659042     1.007825032230
         H            3.779297700179    -0.042023155089     1.106107340958     1.007825032230
         H            4.071969700179     1.382251844911     0.069495340958     1.007825032230

  Basis Set: AUG-CC-PVTZ
    Blend: AUG-CC-PVTZ
  Basis Set: (AUG-CC-PVTZ AUX)
    Blend: AUG-CC-PVTZ-JKFIT
	 Reference Energy          =    -758.2567416039152022 [Eh]
	 Singles Energy            =      -0.0000000000000000 [Eh]
	 Same-Spin Energy          =      -0.4450480205276948 [Eh]
	 Opposite-Spin Energy      =      -1.3484098722286029 [Eh]
	 Correlation Energy        =      -1.7934578927562976 [Eh]
	 Total Energy              =    -760.0501994966715529 [Eh]

	 ================> DF-SCS-MP2 Energies <==================
	-----------------------------------------------------------
	 SCS Same-Spin Scale       =       0.3333333333333333 [-]
	 SCS Opposite-Spin Scale   =       1.2000000000000000 [-]
	 SCS Same-Spin Energy      =      -0.1483493401758982 [Eh]
	 SCS Opposite-Spin Energy  =      -1.6180918466743235 [Eh]
	 SCS Correlation Energy    =      -1.7664411868502217 [Eh]
	 SCS Total Energy          =    -760.0231827907654178 [Eh]
	-----------------------------------------------------------

  Dipole Moment: [D]
     X:    -0.3944      Y:     3.5090      Z:     1.0974     Total:     3.6977

*** Psi4 exiting successfully. Buy a developer a beer!
