                               Psi4 1.4a3.dev225

  ==> Input File <==

--------------------------------------------------------------------------
#psi4
#
memory 32 gb

molecule  {
0 1
  S       -1.4679970    -1.1088850     0.1509200
  O        1.4861710    -1.4617920    -0.3475990
  N        2.0488620     0.7112420     0.1011850
  C       -0.2734750     0.1140250    -0.0519740
  C        1.1960592    -0.3110151    -0.1105098
  C       -0.8491840     1.3674970    -0.1820640
  C       -2.2598870     1.3270920    -0.0933710
  C       -2.7341550     0.0450510     0.0925010
  C        3.4678020     0.4025420     0.1643440
  H       -0.2776640     2.2711280    -0.3728590
  H        1.7182220     1.5388600     0.5795510
  H       -2.9045110     2.1962980    -0.1738640
  H       -3.7641930    -0.2736150     0.1955190
  H        3.7134240    -0.2643480    -0.6614350
  H        3.7418120    -0.0946250     1.1012270
  H        4.0344840     1.3296500     0.0646150
units angstrom
no_reorient  #important for SAPT in psi4, default
symmetry c1  #important for SAPT in psi4, default
}

set PROPERTIES_ORIGIN ["COM"]
properties('MP2/aug-cc-pvtz', properties = ['dipole'])
--------------------------------------------------------------------------

    Molecular point group: c1
  Charge       = 0
  Multiplicity = 1
  Basis Set: AUG-CC-PVTZ
    Blend: AUG-CC-PVTZ
  Basis Set: (AUG-CC-PVTZ AUX)
    Blend: AUG-CC-PVTZ-JKFIT

    Orbital Energies [Eh]
    ---------------------

    Doubly Occupied:

       1A    -91.992475     2A    -20.527734     3A    -15.593825
       4A    -11.363147     5A    -11.275621     6A    -11.274348
       7A    -11.264051     8A    -11.257123     9A    -11.247599
      10A     -8.992261    11A     -6.673114    12A     -6.672571
      13A     -6.671899    14A     -1.396165    15A     -1.245115
      16A     -1.179619    17A     -1.012160    18A     -0.996857
      19A     -0.948575    20A     -0.825732    21A     -0.775870
      22A     -0.766770    23A     -0.718326    24A     -0.651293
      25A     -0.646410    26A     -0.630762    27A     -0.579517
      28A     -0.570642    29A     -0.558351    30A     -0.556785
      31A     -0.529965    32A     -0.515573    33A     -0.483252
      34A     -0.436302    35A     -0.407017    36A     -0.353859
      37A     -0.332074

  @DF-RHF Final Energy:  -758.26857375501891

   => Energetics <=

    Nuclear Repulsion Energy =            499.8304852179432487
    One-Electron Energy =               -2032.3526013214320756
    Two-Electron Energy =                 774.2535423484698640
    Total Energy =                       -758.2685737550189060
  Basis Set: (AUG-CC-PVTZ AUX)
    Blend: AUG-CC-PVTZ-RI
    Molecular point group: c1

    Geometry (in Angstrom), charge = 0, multiplicity = 1:

       Center              X                  Y                   Z               Mass
    ------------   -----------------  -----------------  -----------------  -----------------
         S           -1.428309900330    -1.060830277586     0.156253018672    31.972071174400
         O            1.525858099670    -1.413737277586    -0.342265981328    15.994914619570
         N            2.088549099670     0.759296722414     0.106518018672    14.003074004430
         C           -0.233787900330     0.162079722414    -0.046640981328    12.000000000000
         C            1.235746299670    -0.262960377586    -0.105176781328    12.000000000000
         C           -0.809496900330     1.415551722414    -0.176730981328    12.000000000000
         C           -2.220199900330     1.375146722414    -0.088037981328    12.000000000000
         C           -2.694467900330     0.093105722414     0.097834018672    12.000000000000
         C            3.507489099670     0.450596722414     0.169677018672    12.000000000000
         H           -0.237976900330     2.319182722414    -0.367525981328     1.007825032230
         H            1.757909099670     1.586914722414     0.584884018672     1.007825032230
         H           -2.864823900330     2.244352722414    -0.168530981328     1.007825032230
         H           -3.724505900330    -0.225560277586     0.200852018672     1.007825032230
         H            3.753111099670    -0.216293277586    -0.656101981328     1.007825032230
         H            3.781499099670    -0.046570277586     1.106560018672     1.007825032230
         H            4.074171099670     1.377704722414     0.069948018672     1.007825032230

  Basis Set: AUG-CC-PVTZ
    Blend: AUG-CC-PVTZ
  Basis Set: (AUG-CC-PVTZ AUX)
    Blend: AUG-CC-PVTZ-JKFIT
	 Reference Energy          =    -758.2685737550189060 [Eh]
	 Singles Energy            =      -0.0000000000000000 [Eh]
	 Same-Spin Energy          =      -0.4426338483804342 [Eh]
	 Opposite-Spin Energy      =      -1.3461612550713316 [Eh]
	 Correlation Energy        =      -1.7887951034517657 [Eh]
	 Total Energy              =    -760.0573688584706815 [Eh]

	 ================> DF-SCS-MP2 Energies <==================
	-----------------------------------------------------------
	 SCS Same-Spin Scale       =       0.3333333333333333 [-]
	 SCS Opposite-Spin Scale   =       1.2000000000000000 [-]
	 SCS Same-Spin Energy      =      -0.1475446161268114 [Eh]
	 SCS Opposite-Spin Energy  =      -1.6153935060855977 [Eh]
	 SCS Correlation Energy    =      -1.7629381222124092 [Eh]
	 SCS Total Energy          =    -760.0315118772313099 [Eh]
	-----------------------------------------------------------

  Dipole Moment: [D]
     X:     0.0786      Y:     3.5473      Z:     1.0749     Total:     3.7074

*** Psi4 exiting successfully. Buy a developer a beer!
