                               Psi4 1.3.2 release

  ==> Input File <==

--------------------------------------------------------------------------
#psi4
#
memory 32 gb

molecule  {
0 1
  S       -1.4679970    -1.1088850     0.1509200
  O        1.4861710    -1.4617920    -0.3475990
  N        2.0488620     0.7112420     0.1011850
  C       -0.2734750     0.1140250    -0.0519740
  C        1.1480630    -0.2971330    -0.1085980
  C       -0.8907370     1.4579690    -0.1914535
  C       -2.2598870     1.3270920    -0.0933710
  C       -2.7341550     0.0450510     0.0925010
  C        3.4678020     0.4025420     0.1643440
  H       -0.2776640     2.2711280    -0.3728590
  H        1.7182220     1.5388600     0.5795510
  H       -2.9045110     2.1962980    -0.1738640
  H       -3.7641930    -0.2736150     0.1955190
  H        3.7134240    -0.2643480    -0.6614350
  H        3.7418120    -0.0946250     1.1012270
  H        4.0344840     1.3296500     0.0646150
units angstrom
no_reorient  #important for SAPT in psi4, default
symmetry c1  #important for SAPT in psi4, default
}

set PROPERTIES_ORIGIN ["COM"]
properties('MP2/aug-cc-pvtz', properties = ['dipole'])
--------------------------------------------------------------------------

    Molecular point group: c1
  Charge       = 0
  Multiplicity = 1
  Basis Set: AUG-CC-PVTZ
    Blend: AUG-CC-PVTZ
  Basis Set: (AUG-CC-PVTZ AUX)
    Blend: AUG-CC-PVTZ-JKFIT

    Orbital Energies [Eh]
    ---------------------

    Doubly Occupied:

       1A    -92.003926     2A    -20.521501     3A    -15.589845
       4A    -11.361312     5A    -11.284838     6A    -11.279406
       7A    -11.265943     8A    -11.261011     9A    -11.250213
      10A     -9.002853    11A     -6.683617    12A     -6.683074
      13A     -6.682568    14A     -1.376518    15A     -1.231854
      16A     -1.178202    17A     -1.016791    18A     -1.005938
      19A     -0.942530    20A     -0.834614    21A     -0.772606
      22A     -0.768721    23A     -0.721527    24A     -0.645433
      25A     -0.638034    26A     -0.624254    27A     -0.596515
      28A     -0.569062    29A     -0.554001    30A     -0.551833
      31A     -0.527462    32A     -0.510451    33A     -0.488601
      34A     -0.434655    35A     -0.399545    36A     -0.362498
      37A     -0.323126

  @DF-RHF Final Energy:  -758.25228347633117

   => Energetics <=

    Nuclear Repulsion Energy =            498.2140430672977232
    One-Electron Energy =               -2029.0428979242080914
    Two-Electron Energy =                 772.5765713805791393
    Total Energy =                       -758.2522834763311721
  Basis Set: (AUG-CC-PVTZ AUX)
    Blend: AUG-CC-PVTZ-RI
    Molecular point group: c1

    Geometry (in Angstrom), charge = 0, multiplicity = 1:

       Center              X                  Y                   Z               Mass
    ------------   -----------------  -----------------  -----------------  -----------------
         S           -1.420690033944    -1.069709913572     0.156889306600    31.972071174400
         O            1.533477966056    -1.422616913572    -0.341629693400    15.994914619570
         N            2.096168966056     0.750417086428     0.107154306600    14.003074004430
         C           -0.226168033944     0.153200086428    -0.046004693400    12.000000000000
         C            1.195369966056    -0.257957913572    -0.102628693400    12.000000000000
         C           -0.843430033944     1.497144086428    -0.185484193400    12.000000000000
         C           -2.212580033944     1.366267086428    -0.087401693400    12.000000000000
         C           -2.686848033944     0.084226086428     0.098470306600    12.000000000000
         C            3.515108966056     0.441717086428     0.170313306600    12.000000000000
         H           -0.230357033944     2.310303086428    -0.366889693400     1.007825032230
         H            1.765528966056     1.578035086428     0.585520306600     1.007825032230
         H           -2.857204033944     2.235473086428    -0.167894693400     1.007825032230
         H           -3.716886033944    -0.234439913572     0.201488306600     1.007825032230
         H            3.760730966056    -0.225172913572    -0.655465693400     1.007825032230
         H            3.789118966056    -0.055449913572     1.107196306600     1.007825032230
         H            4.081790966056     1.368825086428     0.070584306600     1.007825032230

  Basis Set: AUG-CC-PVTZ
    Blend: AUG-CC-PVTZ
  Basis Set: (AUG-CC-PVTZ AUX)
    Blend: AUG-CC-PVTZ-JKFIT
	 Reference Energy          =    -758.2522834763311721 [Eh]
	 Singles Energy            =      -0.0000000000000000 [Eh]
	 Same-Spin Energy          =      -0.4459100349970127 [Eh]
	 Opposite-Spin Energy      =      -1.3510315895394589 [Eh]
	 Correlation Energy        =      -1.7969416245364715 [Eh]
	 Total Energy              =    -760.0492251008676021 [Eh]

	 ================> DF-SCS-MP2 Energies <==================
	-----------------------------------------------------------
	 SCS Same-Spin Scale       =       0.3333333333333333 [-]
	 SCS Opposite-Spin Scale   =       1.2000000000000000 [-]
	 SCS Same-Spin Energy      =      -0.1486366783323376 [Eh]
	 SCS Opposite-Spin Energy  =      -1.6212379074473506 [Eh]
	 SCS Correlation Energy    =      -1.7698745857796883 [Eh]
	 SCS Total Energy          =    -760.0221580621108615 [Eh]
	-----------------------------------------------------------

  Dipole Moment: [D]
     X:    -0.3846      Y:     3.5214      Z:     1.0931     Total:     3.7072

*** Psi4 exiting successfully. Buy a developer a beer!
