                               Psi4 1.3.2 release

  ==> Input File <==

--------------------------------------------------------------------------
#psi4
#
memory 32 gb

molecule  {
0 1
  S       -1.4679970    -1.1088850     0.1509200
  O        1.4861710    -1.4617920    -0.3475990
  N        2.0488620     0.7112420     0.1011850
  C       -0.2310674     0.0715216    -0.0495871
  C        1.1480630    -0.2971330    -0.1085980
  C       -0.8491840     1.3674970    -0.1820640
  C       -2.2598870     1.3270920    -0.0933710
  C       -2.7341550     0.0450510     0.0925010
  C        3.4678020     0.4025420     0.1643440
  H       -0.2776640     2.2711280    -0.3728590
  H        1.7182220     1.5388600     0.5795510
  H       -2.9045110     2.1962980    -0.1738640
  H       -3.7641930    -0.2736150     0.1955190
  H        3.7134240    -0.2643480    -0.6614350
  H        3.7418120    -0.0946250     1.1012270
  H        4.0344840     1.3296500     0.0646150
units angstrom
no_reorient  #important for SAPT in psi4, default
symmetry c1  #important for SAPT in psi4, default
}

set PROPERTIES_ORIGIN ["COM"]
properties('MP2/aug-cc-pvtz', properties = ['dipole'])
--------------------------------------------------------------------------

    Molecular point group: c1
  Charge       = 0
  Multiplicity = 1
  Basis Set: AUG-CC-PVTZ
    Blend: AUG-CC-PVTZ
  Basis Set: (AUG-CC-PVTZ AUX)
    Blend: AUG-CC-PVTZ-JKFIT

    Orbital Energies [Eh]
    ---------------------

    Doubly Occupied:

       1A    -92.000048     2A    -20.519126     3A    -15.588910
       4A    -11.356755     5A    -11.282986     6A    -11.278363
       7A    -11.271407     8A    -11.260607     9A    -11.253514
      10A     -8.999373    11A     -6.680169    12A     -6.679702
      13A     -6.679059    14A     -1.377237    15A     -1.231788
      16A     -1.179948    17A     -1.026238    18A     -0.999502
      19A     -0.943836    20A     -0.842511    21A     -0.770936
      22A     -0.768188    23A     -0.718760    24A     -0.646692
      25A     -0.641773    26A     -0.626097    27A     -0.579746
      28A     -0.575656    29A     -0.558111    30A     -0.552256
      31A     -0.534600    32A     -0.509392    33A     -0.481536
      34A     -0.436737    35A     -0.398685    36A     -0.357281
      37A     -0.332082

  @DF-RHF Final Energy:  -758.26145640547475

   => Energetics <=

    Nuclear Repulsion Energy =            499.9559137580220636
    One-Electron Energy =               -2032.5555214789878846
    Two-Electron Energy =                 774.3381513154911318
    Total Energy =                       -758.2614564054747461
  Basis Set: (AUG-CC-PVTZ AUX)
    Blend: AUG-CC-PVTZ-RI
    Molecular point group: c1

    Geometry (in Angstrom), charge = 0, multiplicity = 1:

       Center              X                  Y                   Z               Mass
    ------------   -----------------  -----------------  -----------------  -----------------
         S           -1.427834358558    -1.058394851230     0.155887236291    31.972071174400
         O            1.526333641442    -1.411301851230    -0.342631763709    15.994914619570
         N            2.089024641442     0.761732148770     0.106152236291    14.003074004430
         C           -0.190904758558     0.122011748770    -0.044619863709    12.000000000000
         C            1.188225641442    -0.246642851230    -0.103630763709    12.000000000000
         C           -0.809021358558     1.417987148770    -0.177096763709    12.000000000000
         C           -2.219724358558     1.377582148770    -0.088403763709    12.000000000000
         C           -2.693992358558     0.095541148770     0.097468236291    12.000000000000
         C            3.507964641442     0.453032148770     0.169311236291    12.000000000000
         H           -0.237501358558     2.321618148770    -0.367891763709     1.007825032230
         H            1.758384641442     1.589350148770     0.584518236291     1.007825032230
         H           -2.864348358558     2.246788148770    -0.168896763709     1.007825032230
         H           -3.724030358558    -0.223124851230     0.200486236291     1.007825032230
         H            3.753586641442    -0.213857851230    -0.656467763709     1.007825032230
         H            3.781974641442    -0.044134851230     1.106194236291     1.007825032230
         H            4.074646641442     1.380140148770     0.069582236291     1.007825032230

  Basis Set: AUG-CC-PVTZ
    Blend: AUG-CC-PVTZ
  Basis Set: (AUG-CC-PVTZ AUX)
    Blend: AUG-CC-PVTZ-JKFIT
	 Reference Energy          =    -758.2614564054747461 [Eh]
	 Singles Energy            =      -0.0000000000000000 [Eh]
	 Same-Spin Energy          =      -0.4447548714754045 [Eh]
	 Opposite-Spin Energy      =      -1.3493696548875163 [Eh]
	 Correlation Energy        =      -1.7941245263629209 [Eh]
	 Total Energy              =    -760.0555809318376532 [Eh]

	 ================> DF-SCS-MP2 Energies <==================
	-----------------------------------------------------------
	 SCS Same-Spin Scale       =       0.3333333333333333 [-]
	 SCS Opposite-Spin Scale   =       1.2000000000000000 [-]
	 SCS Same-Spin Energy      =      -0.1482516238251348 [Eh]
	 SCS Opposite-Spin Energy  =      -1.6192435858650194 [Eh]
	 SCS Correlation Energy    =      -1.7674952096901542 [Eh]
	 SCS Total Energy          =    -760.0289516151649423 [Eh]
	-----------------------------------------------------------

  Dipole Moment: [D]
     X:    -0.5136      Y:     3.6318      Z:     1.0931     Total:     3.8274

*** Psi4 exiting successfully. Buy a developer a beer!
