                               Psi4 1.3.2 release

  ==> Input File <==

--------------------------------------------------------------------------
#psi4
#
memory 32 gb

molecule  {
0 1
  S       -1.4679970    -1.1088850     0.1509200
  O        1.4861710    -1.4617920    -0.3475990
  N        2.0488620     0.7112420     0.1011850
  C       -0.2734750     0.1140250    -0.0519740
  C        1.1480630    -0.2971330    -0.1085980
  C       -0.8515973     1.2206286    -0.1638520
  C       -2.2598870     1.3270920    -0.0933710
  C       -2.7341550     0.0450510     0.0925010
  C        3.4678020     0.4025420     0.1643440
  H       -0.2776640     2.2711280    -0.3728590
  H        1.7182220     1.5388600     0.5795510
  H       -2.9045110     2.1962980    -0.1738640
  H       -3.7641930    -0.2736150     0.1955190
  H        3.7134240    -0.2643480    -0.6614350
  H        3.7418120    -0.0946250     1.1012270
  H        4.0344840     1.3296500     0.0646150
units angstrom
no_reorient  #important for SAPT in psi4, default
symmetry c1  #important for SAPT in psi4, default
}

set PROPERTIES_ORIGIN ["COM"]
properties('MP2/aug-cc-pvtz', properties = ['dipole'])
--------------------------------------------------------------------------

    Molecular point group: c1
  Charge       = 0
  Multiplicity = 1
  Basis Set: AUG-CC-PVTZ
    Blend: AUG-CC-PVTZ
  Basis Set: (AUG-CC-PVTZ AUX)
    Blend: AUG-CC-PVTZ-JKFIT

    Orbital Energies [Eh]
    ---------------------

    Doubly Occupied:

       1A    -91.987838     2A    -20.526586     3A    -15.592418
       4A    -11.366161     5A    -11.280055     6A    -11.262713
       7A    -11.261509     8A    -11.256742     9A    -11.249302
      10A     -8.988540    11A     -6.669365    12A     -6.668914
      13A     -6.668011    14A     -1.380860    15A     -1.235914
      16A     -1.204125    17A     -1.034576    18A     -0.993285
      19A     -0.952649    20A     -0.833374    21A     -0.780724
      22A     -0.769749    23A     -0.707663    24A     -0.655666
      25A     -0.646314    26A     -0.629311    27A     -0.592030
      28A     -0.567871    29A     -0.554828    30A     -0.550774
      31A     -0.523255    32A     -0.515783    33A     -0.475063
      34A     -0.438314    35A     -0.401467    36A     -0.363278
      37A     -0.345123

  @DF-RHF Final Energy:  -758.24197054470619

   => Energetics <=

    Nuclear Repulsion Energy =            503.1221763981158688
    One-Electron Energy =               -2038.8679939193471000
    Two-Electron Energy =                 777.5038469765249829
    Total Energy =                       -758.2419705447061915
  Basis Set: (AUG-CC-PVTZ AUX)
    Blend: AUG-CC-PVTZ-RI
    Molecular point group: c1

    Geometry (in Angstrom), charge = 0, multiplicity = 1:

       Center              X                  Y                   Z               Mass
    ------------   -----------------  -----------------  -----------------  -----------------
         S           -1.424020485633    -1.049514287748     0.154540656449    31.972071174400
         O            1.530147514367    -1.402421287748    -0.343978343551    15.994914619570
         N            2.092838514367     0.770612712252     0.104805656449    14.003074004430
         C           -0.229498485633     0.173395712252    -0.048353343551    12.000000000000
         C            1.192039514367    -0.237762287748    -0.104977343551    12.000000000000
         C           -0.807620785633     1.279999312252    -0.160231343551    12.000000000000
         C           -2.215910485633     1.386462712252    -0.089750343551    12.000000000000
         C           -2.690178485633     0.104421712252     0.096121656449    12.000000000000
         C            3.511778514367     0.461912712252     0.167964656449    12.000000000000
         H           -0.233687485633     2.330498712252    -0.369238343551     1.007825032230
         H            1.762198514367     1.598230712252     0.583171656449     1.007825032230
         H           -2.860534485633     2.255668712252    -0.170243343551     1.007825032230
         H           -3.720216485633    -0.214244287748     0.199139656449     1.007825032230
         H            3.757400514367    -0.204977287748    -0.657814343551     1.007825032230
         H            3.785788514367    -0.035254287748     1.104847656449     1.007825032230
         H            4.078460514367     1.389020712252     0.068235656449     1.007825032230

  Basis Set: AUG-CC-PVTZ
    Blend: AUG-CC-PVTZ
  Basis Set: (AUG-CC-PVTZ AUX)
    Blend: AUG-CC-PVTZ-JKFIT
	 Reference Energy          =    -758.2419705447061915 [Eh]
	 Singles Energy            =      -0.0000000000000000 [Eh]
	 Same-Spin Energy          =      -0.4421356378942399 [Eh]
	 Opposite-Spin Energy      =      -1.3460982636579399 [Eh]
	 Correlation Energy        =      -1.7882339015521800 [Eh]
	 Total Energy              =    -760.0302044462583808 [Eh]

	 ================> DF-SCS-MP2 Energies <==================
	-----------------------------------------------------------
	 SCS Same-Spin Scale       =       0.3333333333333333 [-]
	 SCS Opposite-Spin Scale   =       1.2000000000000000 [-]
	 SCS Same-Spin Energy      =      -0.1473785459647466 [Eh]
	 SCS Opposite-Spin Energy  =      -1.6153179163895279 [Eh]
	 SCS Correlation Energy    =      -1.7626964623542745 [Eh]
	 SCS Total Energy          =    -760.0046670070604478 [Eh]
	-----------------------------------------------------------

  Dipole Moment: [D]
     X:    -0.2543      Y:     3.7161      Z:     1.0778     Total:     3.8776

*** Psi4 exiting successfully. Buy a developer a beer!
