                               Psi4 1.3.2 release

  ==> Input File <==

--------------------------------------------------------------------------
#psi4
#
memory 32 gb

molecule  {
0 1
  S       -1.5089185    -1.1518442     0.1586403
  O        1.4861710    -1.4617920    -0.3475990
  N        2.0488620     0.7112420     0.1011850
  C       -0.2734750     0.1140250    -0.0519740
  C        1.1480630    -0.2971330    -0.1085980
  C       -0.8491840     1.3674970    -0.1820640
  C       -2.2598870     1.3270920    -0.0933710
  C       -2.7341550     0.0450510     0.0925010
  C        3.4678020     0.4025420     0.1643440
  H       -0.2776640     2.2711280    -0.3728590
  H        1.7182220     1.5388600     0.5795510
  H       -2.9045110     2.1962980    -0.1738640
  H       -3.7641930    -0.2736150     0.1955190
  H        3.7134240    -0.2643480    -0.6614350
  H        3.7418120    -0.0946250     1.1012270
  H        4.0344840     1.3296500     0.0646150
units angstrom
no_reorient  #important for SAPT in psi4, default
symmetry c1  #important for SAPT in psi4, default
}

set PROPERTIES_ORIGIN ["COM"]
properties('MP2/aug-cc-pvtz', properties = ['dipole'])
--------------------------------------------------------------------------

    Molecular point group: c1
  Charge       = 0
  Multiplicity = 1
  Basis Set: AUG-CC-PVTZ
    Blend: AUG-CC-PVTZ
  Basis Set: (AUG-CC-PVTZ AUX)
    Blend: AUG-CC-PVTZ-JKFIT

    Orbital Energies [Eh]
    ---------------------

    Doubly Occupied:

       1A    -91.998022     2A    -20.522413     3A    -15.590350
       4A    -11.361809     5A    -11.281145     6A    -11.281100
       7A    -11.265954     8A    -11.261406     9A    -11.251062
      10A     -8.996601    11A     -6.677431    12A     -6.676730
      13A     -6.676172    14A     -1.376928    15A     -1.232715
      16A     -1.177348    17A     -1.019099    18A     -0.999333
      19A     -0.944510    20A     -0.833284    21A     -0.769986
      22A     -0.768022    23A     -0.723096    24A     -0.644913
      25A     -0.640503    26A     -0.624520    27A     -0.579291
      28A     -0.574565    29A     -0.554577    30A     -0.551885
      31A     -0.526486    32A     -0.509530    33A     -0.487841
      34A     -0.435795    35A     -0.399839    36A     -0.360099
      37A     -0.333307

  @DF-RHF Final Energy:  -758.26603620817286

   => Energetics <=

    Nuclear Repulsion Energy =            497.3245018485376363
    One-Electron Energy =               -2027.3657463054994423
    Two-Electron Energy =                 771.7752082487888856
    Total Energy =                       -758.2660362081728636
  Basis Set: (AUG-CC-PVTZ AUX)
    Blend: AUG-CC-PVTZ-RI
    Molecular point group: c1

    Geometry (in Angstrom), charge = 0, multiplicity = 1:

       Center              X                  Y                   Z               Mass
    ------------   -----------------  -----------------  -----------------  -----------------
         S           -1.455869927436    -1.095231343837     0.162060353618    31.972071174400
         O            1.539219572564    -1.405179143837    -0.344178946382    15.994914619570
         N            2.101910572564     0.767854856163     0.104605053618    14.003074004430
         C           -0.220426427436     0.170637856163    -0.048553946382    12.000000000000
         C            1.201111572564    -0.240520143837    -0.105177946382    12.000000000000
         C           -0.796135427436     1.424109856163    -0.178643946382    12.000000000000
         C           -2.206838427436     1.383704856163    -0.089950946382    12.000000000000
         C           -2.681106427436     0.101663856163     0.095921053618    12.000000000000
         C            3.520850572564     0.459154856163     0.167764053618    12.000000000000
         H           -0.224615427436     2.327740856163    -0.369438946382     1.007825032230
         H            1.771270572564     1.595472856163     0.582971053618     1.007825032230
         H           -2.851462427436     2.252910856163    -0.170443946382     1.007825032230
         H           -3.711144427436    -0.217002143837     0.198939053618     1.007825032230
         H            3.766472572564    -0.207735143837    -0.658014946382     1.007825032230
         H            3.794860572564    -0.038012143837     1.104647053618     1.007825032230
         H            4.087532572564     1.386262856163     0.068035053618     1.007825032230

  Basis Set: AUG-CC-PVTZ
    Blend: AUG-CC-PVTZ
  Basis Set: (AUG-CC-PVTZ AUX)
    Blend: AUG-CC-PVTZ-JKFIT
	 Reference Energy          =    -758.2660362081728636 [Eh]
	 Singles Energy            =      -0.0000000000000000 [Eh]
	 Same-Spin Energy          =      -0.4429062775740237 [Eh]
	 Opposite-Spin Energy      =      -1.3481661077109268 [Eh]
	 Correlation Energy        =      -1.7910723852849506 [Eh]
	 Total Energy              =    -760.0571085934577695 [Eh]

	 ================> DF-SCS-MP2 Energies <==================
	-----------------------------------------------------------
	 SCS Same-Spin Scale       =       0.3333333333333333 [-]
	 SCS Opposite-Spin Scale   =       1.2000000000000000 [-]
	 SCS Same-Spin Energy      =      -0.1476354258580079 [Eh]
	 SCS Opposite-Spin Energy  =      -1.6177993292531121 [Eh]
	 SCS Correlation Energy    =      -1.7654347551111200 [Eh]
	 SCS Total Energy          =    -760.0314709632839367 [Eh]
	-----------------------------------------------------------

  Dipole Moment: [D]
     X:    -0.3407      Y:     3.6435      Z:     1.0784     Total:     3.8150

*** Psi4 exiting successfully. Buy a developer a beer!
