                               Psi4 1.3.2 release

  ==> Input File <==

--------------------------------------------------------------------------
#psi4
#
memory 32 gb

molecule  {
0 1
  S       -1.4679970    -1.1088850     0.1509200
  O        1.4861710    -1.4617920    -0.3475990
  N        2.0488620     0.7112420     0.1011850
  C       -0.2734750     0.1140250    -0.0519740
  C        1.1480630    -0.2971330    -0.1085980
  C       -0.8491840     1.3674970    -0.1820640
  C       -2.2587129     1.3027959    -0.0891983
  C       -2.7341550     0.0450510     0.0925010
  C        3.4678020     0.4025420     0.1643440
  H       -0.2776640     2.2711280    -0.3728590
  H        1.7182220     1.5388600     0.5795510
  H       -2.9045110     2.1962980    -0.1738640
  H       -3.7641930    -0.2736150     0.1955190
  H        3.7134240    -0.2643480    -0.6614350
  H        3.7418120    -0.0946250     1.1012270
  H        4.0344840     1.3296500     0.0646150
units angstrom
no_reorient  #important for SAPT in psi4, default
symmetry c1  #important for SAPT in psi4, default
}

set PROPERTIES_ORIGIN ["COM"]
properties('MP2/aug-cc-pvtz', properties = ['dipole'])
--------------------------------------------------------------------------

    Molecular point group: c1
  Charge       = 0
  Multiplicity = 1
  Basis Set: AUG-CC-PVTZ
    Blend: AUG-CC-PVTZ
  Basis Set: (AUG-CC-PVTZ AUX)
    Blend: AUG-CC-PVTZ-JKFIT

    Orbital Energies [Eh]
    ---------------------

    Doubly Occupied:

       1A    -91.994536     2A    -20.523744     3A    -15.591151
       4A    -11.362822     5A    -11.277373     6A    -11.275771
       7A    -11.262391     8A    -11.261909     9A    -11.249832
      10A     -8.994437    11A     -6.675277    12A     -6.674734
      13A     -6.674027    14A     -1.378374    15A     -1.233608
      16A     -1.186865    17A     -1.022810    18A     -0.999585
      19A     -0.947324    20A     -0.834131    21A     -0.769887
      22A     -0.768464    23A     -0.722131    24A     -0.646519
      25A     -0.639925    26A     -0.626149    27A     -0.581800
      28A     -0.574105    29A     -0.558209    30A     -0.553006
      31A     -0.531289    32A     -0.512571    33A     -0.484854
      34A     -0.436619    35A     -0.400512    36A     -0.356461
      37A     -0.338671

  @DF-RHF Final Energy:  -758.26852489718328

   => Energetics <=

    Nuclear Repulsion Energy =            500.3955333627557138
    One-Electron Energy =               -2033.4843720112444316
    Two-Electron Energy =                 774.8203137513054344
    Total Energy =                       -758.2685248971832834
  Basis Set: (AUG-CC-PVTZ AUX)
    Blend: AUG-CC-PVTZ-RI
    Molecular point group: c1

    Geometry (in Angstrom), charge = 0, multiplicity = 1:

       Center              X                  Y                   Z               Mass
    ------------   -----------------  -----------------  -----------------  -----------------
         S           -1.424325742505    -1.059944135794     0.155735280077    31.972071174400
         O            1.529842257495    -1.412851135794    -0.342783719923    15.994914619570
         N            2.092533257495     0.760182864206     0.106000280077    14.003074004430
         C           -0.229803742505     0.162965864206    -0.047158719923    12.000000000000
         C            1.191734257495    -0.248192135794    -0.103782719923    12.000000000000
         C           -0.805512742505     1.416437864206    -0.177248719923    12.000000000000
         C           -2.215041642505     1.351736764206    -0.084383019923    12.000000000000
         C           -2.690483742505     0.093991864206     0.097316280077    12.000000000000
         C            3.511473257495     0.451482864206     0.169159280077    12.000000000000
         H           -0.233992742505     2.320068864206    -0.368043719923     1.007825032230
         H            1.761893257495     1.587800864206     0.584366280077     1.007825032230
         H           -2.860839742505     2.245238864206    -0.169048719923     1.007825032230
         H           -3.720521742505    -0.224674135794     0.200334280077     1.007825032230
         H            3.757095257495    -0.215407135794    -0.656619719923     1.007825032230
         H            3.785483257495    -0.045684135794     1.106042280077     1.007825032230
         H            4.078155257495     1.378590864206     0.069430280077     1.007825032230

  Basis Set: AUG-CC-PVTZ
    Blend: AUG-CC-PVTZ
  Basis Set: (AUG-CC-PVTZ AUX)
    Blend: AUG-CC-PVTZ-JKFIT
	 Reference Energy          =    -758.2685248971832834 [Eh]
	 Singles Energy            =      -0.0000000000000000 [Eh]
	 Same-Spin Energy          =      -0.4432000387621682 [Eh]
	 Opposite-Spin Energy      =      -1.3473111934759181 [Eh]
	 Correlation Energy        =      -1.7905112322380863 [Eh]
	 Total Energy              =    -760.0590361294213153 [Eh]

	 ================> DF-SCS-MP2 Energies <==================
	-----------------------------------------------------------
	 SCS Same-Spin Scale       =       0.3333333333333333 [-]
	 SCS Opposite-Spin Scale   =       1.2000000000000000 [-]
	 SCS Same-Spin Energy      =      -0.1477333462540560 [Eh]
	 SCS Opposite-Spin Energy  =      -1.6167734321711016 [Eh]
	 SCS Correlation Energy    =      -1.7645067784251576 [Eh]
	 SCS Total Energy          =    -760.0330316756084130 [Eh]
	-----------------------------------------------------------

  Dipole Moment: [D]
     X:    -0.3215      Y:     3.6266      Z:     1.0795     Total:     3.7975

*** Psi4 exiting successfully. Buy a developer a beer!
