                               Psi4 1.3.2 release

  ==> Input File <==

--------------------------------------------------------------------------
#psi4
#
memory 32 gb

molecule  {
0 1
  S       -1.4679970    -1.1088850     0.1509200
  O        1.4861710    -1.4617920    -0.3475990
  N        2.0488620     0.7112420     0.1011850
  C       -0.2734750     0.1140250    -0.0519740
  C        1.1480630    -0.2971330    -0.1085980
  C       -0.8076310     1.2770250    -0.1726745
  C       -2.2598870     1.3270920    -0.0933710
  C       -2.7341550     0.0450510     0.0925010
  C        3.4678020     0.4025420     0.1643440
  H       -0.2776640     2.2711280    -0.3728590
  H        1.7182220     1.5388600     0.5795510
  H       -2.9045110     2.1962980    -0.1738640
  H       -3.7641930    -0.2736150     0.1955190
  H        3.7134240    -0.2643480    -0.6614350
  H        3.7418120    -0.0946250     1.1012270
  H        4.0344840     1.3296500     0.0646150
units angstrom
no_reorient  #important for SAPT in psi4, default
symmetry c1  #important for SAPT in psi4, default
}

set PROPERTIES_ORIGIN ["COM"]
properties('MP2/aug-cc-pvtz', properties = ['dipole'])
--------------------------------------------------------------------------

    Molecular point group: c1
  Charge       = 0
  Multiplicity = 1
  Basis Set: AUG-CC-PVTZ
    Blend: AUG-CC-PVTZ
  Basis Set: (AUG-CC-PVTZ AUX)
    Blend: AUG-CC-PVTZ-JKFIT

    Orbital Energies [Eh]
    ---------------------

    Doubly Occupied:

       1A    -91.989058     2A    -20.525469     3A    -15.591916
       4A    -11.364072     5A    -11.278812     6A    -11.266408
       7A    -11.262471     8A    -11.258585     9A    -11.252450
      10A     -8.989566    11A     -6.670449    12A     -6.669900
      13A     -6.669055    14A     -1.379866    15A     -1.235124
      16A     -1.193055    17A     -1.031089    18A     -0.991622
      19A     -0.950557    20A     -0.832489    21A     -0.775708
      22A     -0.769082    23A     -0.716748    24A     -0.648496
      25A     -0.645387    26A     -0.627975    27A     -0.587947
      28A     -0.563843    29A     -0.554396    30A     -0.552116
      31A     -0.532720    32A     -0.513082    33A     -0.481469
      34A     -0.437280    35A     -0.401145    36A     -0.360259
      37A     -0.343065

  @DF-RHF Final Energy:  -758.25956727264384

   => Energetics <=

    Nuclear Repulsion Energy =            501.8048737107679358
    One-Electron Energy =               -2036.3034176598191607
    Two-Electron Energy =                 776.2389766764074466
    Total Energy =                       -758.2595672726438352
  Basis Set: (AUG-CC-PVTZ AUX)
    Blend: AUG-CC-PVTZ-RI
    Molecular point group: c1

    Geometry (in Angstrom), charge = 0, multiplicity = 1:

       Center              X                  Y                   Z               Mass
    ------------   -----------------  -----------------  -----------------  -----------------
         S           -1.427761639451    -1.054313136120     0.155291375285    31.972071174400
         O            1.526406360549    -1.407220136120    -0.343227624715    15.994914619570
         N            2.089097360549     0.765813863880     0.105556375285    14.003074004430
         C           -0.233239639451     0.168596863880    -0.047602624715    12.000000000000
         C            1.188298360549    -0.242561136120    -0.104226624715    12.000000000000
         C           -0.767395639451     1.331596863880    -0.168303124715    12.000000000000
         C           -2.219651639451     1.381663863880    -0.088999624715    12.000000000000
         C           -2.693919639451     0.099622863880     0.096872375285    12.000000000000
         C            3.508037360549     0.457113863880     0.168715375285    12.000000000000
         H           -0.237428639451     2.325699863880    -0.368487624715     1.007825032230
         H            1.758457360549     1.593431863880     0.583922375285     1.007825032230
         H           -2.864275639451     2.250869863880    -0.169492624715     1.007825032230
         H           -3.723957639451    -0.219043136120     0.199890375285     1.007825032230
         H            3.753659360549    -0.209776136120    -0.657063624715     1.007825032230
         H            3.782047360549    -0.040053136120     1.105598375285     1.007825032230
         H            4.074719360549     1.384221863880     0.068986375285     1.007825032230

  Basis Set: AUG-CC-PVTZ
    Blend: AUG-CC-PVTZ
  Basis Set: (AUG-CC-PVTZ AUX)
    Blend: AUG-CC-PVTZ-JKFIT
	 Reference Energy          =    -758.2595672726438352 [Eh]
	 Singles Energy            =      -0.0000000000000000 [Eh]
	 Same-Spin Energy          =      -0.4414731918009990 [Eh]
	 Opposite-Spin Energy      =      -1.3455659815014784 [Eh]
	 Correlation Energy        =      -1.7870391733024775 [Eh]
	 Total Energy              =    -760.0466064459462814 [Eh]

	 ================> DF-SCS-MP2 Energies <==================
	-----------------------------------------------------------
	 SCS Same-Spin Scale       =       0.3333333333333333 [-]
	 SCS Opposite-Spin Scale   =       1.2000000000000000 [-]
	 SCS Same-Spin Energy      =      -0.1471577306003330 [Eh]
	 SCS Opposite-Spin Energy  =      -1.6146791778017742 [Eh]
	 SCS Correlation Energy    =      -1.7618369084021070 [Eh]
	 SCS Total Energy          =    -760.0214041810459094 [Eh]
	-----------------------------------------------------------

  Dipole Moment: [D]
     X:    -0.2582      Y:     3.7239      Z:     1.0687     Total:     3.8828

*** Psi4 exiting successfully. Buy a developer a beer!
