                               Psi4 1.3.2 release

  ==> Input File <==

--------------------------------------------------------------------------
#psi4
#
memory 32 gb

molecule  {
0 1
  S       -1.4679970    -1.1088850     0.1509200
  O        1.4861710    -1.4617920    -0.3475990
  N        2.0488620     0.7112420     0.1011850
  C       -0.2734750     0.1140250    -0.0519740
  C        1.1480630    -0.2971330    -0.1085980
  C       -0.8491840     1.3674970    -0.1820640
  C       -2.2598870     1.3270920    -0.0933710
  C       -2.5963135     0.0020446     0.0914914
  C        3.4678020     0.4025420     0.1643440
  H       -0.2776640     2.2711280    -0.3728590
  H        1.7182220     1.5388600     0.5795510
  H       -2.9045110     2.1962980    -0.1738640
  H       -3.7641930    -0.2736150     0.1955190
  H        3.7134240    -0.2643480    -0.6614350
  H        3.7418120    -0.0946250     1.1012270
  H        4.0344840     1.3296500     0.0646150
units angstrom
no_reorient  #important for SAPT in psi4, default
symmetry c1  #important for SAPT in psi4, default
}

set PROPERTIES_ORIGIN ["COM"]
properties('MP2/aug-cc-pvtz', properties = ['dipole'])
--------------------------------------------------------------------------

    Molecular point group: c1
  Charge       = 0
  Multiplicity = 1
  Basis Set: AUG-CC-PVTZ
    Blend: AUG-CC-PVTZ
  Basis Set: (AUG-CC-PVTZ AUX)
    Blend: AUG-CC-PVTZ-JKFIT

    Orbital Energies [Eh]
    ---------------------

    Doubly Occupied:

       1A    -91.999252     2A    -20.519856     3A    -15.587832
       4A    -11.359032     5A    -11.279282     6A    -11.268788
       7A    -11.261824     8A    -11.259853     9A    -11.245990
      10A     -9.002311    11A     -6.683526    12A     -6.682315
      13A     -6.681676    14A     -1.375148    15A     -1.230828
      16A     -1.204019    17A     -1.023348    18A     -1.012540
      19A     -0.940817    20A     -0.828570    21A     -0.770205
      22A     -0.754776    23A     -0.726299    24A     -0.641478
      25A     -0.639989    26A     -0.621365    27A     -0.578757
      28A     -0.564084    29A     -0.560955    30A     -0.547489
      31A     -0.530183    32A     -0.518567    33A     -0.496921
      34A     -0.434059    35A     -0.398520    36A     -0.364095
      37A     -0.331034

  @DF-RHF Final Energy:  -758.24453534823783

   => Energetics <=

    Nuclear Repulsion Energy =            503.4225132503046325
    One-Electron Energy =               -2039.4829322811422117
    Two-Electron Energy =                 777.8158836825998605
    Total Energy =                       -758.2445353482378323
  Basis Set: (AUG-CC-PVTZ AUX)
    Blend: AUG-CC-PVTZ-RI
    Molecular point group: c1

    Geometry (in Angstrom), charge = 0, multiplicity = 1:

       Center              X                  Y                   Z               Mass
    ------------   -----------------  -----------------  -----------------  -----------------
         S           -1.435954962279    -1.058352050258     0.156176249215    31.972071174400
         O            1.518213037721    -1.411259050258    -0.342342750785    15.994914619570
         N            2.080904037721     0.761774949742     0.106441249215    14.003074004430
         C           -0.241432962279     0.164557949742    -0.046717750785    12.000000000000
         C            1.180105037721    -0.246600050258    -0.103341750785    12.000000000000
         C           -0.817141962279     1.418029949742    -0.176807750785    12.000000000000
         C           -2.227844962279     1.377624949742    -0.088114750785    12.000000000000
         C           -2.564271462279     0.052577549742     0.096747649215    12.000000000000
         C            3.499844037721     0.453074949742     0.169600249215    12.000000000000
         H           -0.245621962279     2.321660949742    -0.367602750785     1.007825032230
         H            1.750264037721     1.589392949742     0.584807249215     1.007825032230
         H           -2.872468962279     2.246830949742    -0.168607750785     1.007825032230
         H           -3.732150962279    -0.223082050258     0.200775249215     1.007825032230
         H            3.745466037721    -0.213815050258    -0.656178750785     1.007825032230
         H            3.773854037721    -0.044092050258     1.106483249215     1.007825032230
         H            4.066526037721     1.380182949742     0.069871249215     1.007825032230

  Basis Set: AUG-CC-PVTZ
    Blend: AUG-CC-PVTZ
  Basis Set: (AUG-CC-PVTZ AUX)
    Blend: AUG-CC-PVTZ-JKFIT
	 Reference Energy          =    -758.2445353482378323 [Eh]
	 Singles Energy            =      -0.0000000000000000 [Eh]
	 Same-Spin Energy          =      -0.4451264624189291 [Eh]
	 Opposite-Spin Energy      =      -1.3483388267173733 [Eh]
	 Correlation Energy        =      -1.7934652891363023 [Eh]
	 Total Energy              =    -760.0380006373741253 [Eh]

	 ================> DF-SCS-MP2 Energies <==================
	-----------------------------------------------------------
	 SCS Same-Spin Scale       =       0.3333333333333333 [-]
	 SCS Opposite-Spin Scale   =       1.2000000000000000 [-]
	 SCS Same-Spin Energy      =      -0.1483754874729764 [Eh]
	 SCS Opposite-Spin Energy  =      -1.6180065920608480 [Eh]
	 SCS Correlation Energy    =      -1.7663820795338243 [Eh]
	 SCS Total Energy          =    -760.0109174277716875 [Eh]
	-----------------------------------------------------------

  Dipole Moment: [D]
     X:    -0.4209      Y:     3.4847      Z:     1.0980     Total:     3.6777

*** Psi4 exiting successfully. Buy a developer a beer!
