                               Psi4 1.3.2 release

  ==> Input File <==

--------------------------------------------------------------------------
#psi4
#
memory 32 gb

molecule  {
0 1
  S       -1.4679970    -1.1088850     0.1509200
  O        1.4861710    -1.4617920    -0.3475990
  N        2.0488620     0.7112420     0.1011850
  C       -0.2734750     0.1140250    -0.0519740
  C        1.1480630    -0.2971330    -0.1085980
  C       -0.8491840     1.3674970    -0.1820640
  C       -2.1273670     1.2697536    -0.0946338
  C       -2.7341550     0.0450510     0.0925010
  C        3.4678020     0.4025420     0.1643440
  H       -0.2776640     2.2711280    -0.3728590
  H        1.7182220     1.5388600     0.5795510
  H       -2.9045110     2.1962980    -0.1738640
  H       -3.7641930    -0.2736150     0.1955190
  H        3.7134240    -0.2643480    -0.6614350
  H        3.7418120    -0.0946250     1.1012270
  H        4.0344840     1.3296500     0.0646150
units angstrom
no_reorient  #important for SAPT in psi4, default
symmetry c1  #important for SAPT in psi4, default
}

set PROPERTIES_ORIGIN ["COM"]
properties('MP2/aug-cc-pvtz', properties = ['dipole'])
--------------------------------------------------------------------------

    Molecular point group: c1
  Charge       = 0
  Multiplicity = 1
  Basis Set: AUG-CC-PVTZ
    Blend: AUG-CC-PVTZ
  Basis Set: (AUG-CC-PVTZ AUX)
    Blend: AUG-CC-PVTZ-JKFIT

    Orbital Energies [Eh]
    ---------------------

    Doubly Occupied:

       1A    -91.999891     2A    -20.521481     3A    -15.590648
       4A    -11.361039     5A    -11.278477     6A    -11.275965
       7A    -11.261559     8A    -11.249359     9A    -11.247201
      10A     -8.999286    11A     -6.679957    12A     -6.679602
      13A     -6.679000    14A     -1.376718    15A     -1.233346
      16A     -1.203940    17A     -1.020304    18A     -1.016152
      19A     -0.944520    20A     -0.832972    21A     -0.773251
      22A     -0.761970    23A     -0.726561    24A     -0.646001
      25A     -0.634739    26A     -0.624538    27A     -0.606266
      28A     -0.567459    29A     -0.560970    30A     -0.552325
      31A     -0.522709    32A     -0.511679    33A     -0.477092
      34A     -0.433096    35A     -0.400124    36A     -0.370411
      37A     -0.328036

  @DF-RHF Final Energy:  -758.23629261278097

   => Energetics <=

    Nuclear Repulsion Energy =            502.9646456869222675
    One-Electron Energy =               -2038.5045861543376304
    Two-Electron Energy =                 777.3036478546343915
    Total Energy =                       -758.2362926127809715
  Basis Set: (AUG-CC-PVTZ AUX)
    Blend: AUG-CC-PVTZ-RI
    Molecular point group: c1

    Geometry (in Angstrom), charge = 0, multiplicity = 1:

       Center              X                  Y                   Z               Mass
    ------------   -----------------  -----------------  -----------------  -----------------
         S           -1.435502148418    -1.057132520379     0.156197794356    31.972071174400
         O            1.518665851582    -1.410039520379    -0.342321205644    15.994914619570
         N            2.081356851582     0.762994479621     0.106462794356    14.003074004430
         C           -0.240980148418     0.165777479621    -0.046696205644    12.000000000000
         C            1.180557851582    -0.245380520379    -0.103320205644    12.000000000000
         C           -0.816689148418     1.419249479621    -0.176786205644    12.000000000000
         C           -2.094872148418     1.321506079621    -0.089356005644    12.000000000000
         C           -2.701660148418     0.096803479621     0.097778794356    12.000000000000
         C            3.500296851582     0.454294479621     0.169621794356    12.000000000000
         H           -0.245169148418     2.322880479621    -0.367581205644     1.007825032230
         H            1.750716851582     1.590612479621     0.584828794356     1.007825032230
         H           -2.872016148418     2.248050479621    -0.168586205644     1.007825032230
         H           -3.731698148418    -0.221862520379     0.200796794356     1.007825032230
         H            3.745918851582    -0.212595520379    -0.656157205644     1.007825032230
         H            3.774306851582    -0.042872520379     1.106504794356     1.007825032230
         H            4.066978851582     1.381402479621     0.069892794356     1.007825032230

  Basis Set: AUG-CC-PVTZ
    Blend: AUG-CC-PVTZ
  Basis Set: (AUG-CC-PVTZ AUX)
    Blend: AUG-CC-PVTZ-JKFIT
	 Reference Energy          =    -758.2362926127809715 [Eh]
	 Singles Energy            =      -0.0000000000000000 [Eh]
	 Same-Spin Energy          =      -0.4465544346177633 [Eh]
	 Opposite-Spin Energy      =      -1.3509266652986156 [Eh]
	 Correlation Energy        =      -1.7974810999163791 [Eh]
	 Total Energy              =    -760.0337737126973252 [Eh]

	 ================> DF-SCS-MP2 Energies <==================
	-----------------------------------------------------------
	 SCS Same-Spin Scale       =       0.3333333333333333 [-]
	 SCS Opposite-Spin Scale   =       1.2000000000000000 [-]
	 SCS Same-Spin Energy      =      -0.1488514782059211 [Eh]
	 SCS Opposite-Spin Energy  =      -1.6211119983583386 [Eh]
	 SCS Correlation Energy    =      -1.7699634765642598 [Eh]
	 SCS Total Energy          =    -760.0062560893452428 [Eh]
	-----------------------------------------------------------

  Dipole Moment: [D]
     X:    -0.3450      Y:     3.5411      Z:     1.0959     Total:     3.7228

*** Psi4 exiting successfully. Buy a developer a beer!
