                               Psi4 1.3.2 release

  ==> Input File <==

--------------------------------------------------------------------------
#psi4
#
memory 32 gb

molecule  {
0 1
  S       -1.4242002    -1.1500108     0.1519935
  O        1.4861710    -1.4617920    -0.3475990
  N        2.0488620     0.7112420     0.1011850
  C       -0.2734750     0.1140250    -0.0519740
  C        1.1480630    -0.2971330    -0.1085980
  C       -0.8491840     1.3674970    -0.1820640
  C       -2.2598870     1.3270920    -0.0933710
  C       -2.7341550     0.0450510     0.0925010
  C        3.4678020     0.4025420     0.1643440
  H       -0.2776640     2.2711280    -0.3728590
  H        1.7182220     1.5388600     0.5795510
  H       -2.9045110     2.1962980    -0.1738640
  H       -3.7641930    -0.2736150     0.1955190
  H        3.7134240    -0.2643480    -0.6614350
  H        3.7418120    -0.0946250     1.1012270
  H        4.0344840     1.3296500     0.0646150
units angstrom
no_reorient  #important for SAPT in psi4, default
symmetry c1  #important for SAPT in psi4, default
}

set PROPERTIES_ORIGIN ["COM"]
properties('MP2/aug-cc-pvtz', properties = ['dipole'])
--------------------------------------------------------------------------

    Molecular point group: c1
  Charge       = 0
  Multiplicity = 1
  Basis Set: AUG-CC-PVTZ
    Blend: AUG-CC-PVTZ
  Basis Set: (AUG-CC-PVTZ AUX)
    Blend: AUG-CC-PVTZ-JKFIT

    Orbital Energies [Eh]
    ---------------------

    Doubly Occupied:

       1A    -91.997150     2A    -20.524078     3A    -15.590856
       4A    -11.362310     5A    -11.283331     6A    -11.278313
       7A    -11.263287     8A    -11.261713     9A    -11.253157
      10A     -8.995668    11A     -6.676455    12A     -6.675816
      13A     -6.675211    14A     -1.378814    15A     -1.233391
      16A     -1.177205    17A     -1.020167    18A     -0.995887
      19A     -0.945808    20A     -0.833016    21A     -0.771656
      22A     -0.768653    23A     -0.720703    24A     -0.645808
      25A     -0.641148    26A     -0.625262    27A     -0.579800
      28A     -0.573487    29A     -0.556286    30A     -0.552699
      31A     -0.526747    32A     -0.507906    33A     -0.487138
      34A     -0.437008    35A     -0.400598    36A     -0.358165
      37A     -0.334111

  @DF-RHF Final Energy:  -758.26549914693123

   => Energetics <=

    Nuclear Repulsion Energy =            498.9012881695668966
    One-Electron Energy =               -2030.5159584385187372
    Two-Electron Energy =                 773.3491711220206071
    Total Energy =                       -758.2654991469312336
  Basis Set: (AUG-CC-PVTZ AUX)
    Blend: AUG-CC-PVTZ-RI
    Molecular point group: c1

    Geometry (in Angstrom), charge = 0, multiplicity = 1:

       Center              X                  Y                   Z               Mass
    ------------   -----------------  -----------------  -----------------  -----------------
         S           -1.390358311967    -1.093813598252     0.156920465239    31.972071174400
         O            1.520012888033    -1.405594798252    -0.342672034761    15.994914619570
         N            2.082703888033     0.767439201748     0.106111965239    14.003074004430
         C           -0.239633111967     0.170222201748    -0.047047034761    12.000000000000
         C            1.181904888033    -0.240935798252    -0.103671034761    12.000000000000
         C           -0.815342111967     1.423694201748    -0.177137034761    12.000000000000
         C           -2.226045111967     1.383289201748    -0.088444034761    12.000000000000
         C           -2.700313111967     0.101248201748     0.097427965239    12.000000000000
         C            3.501643888033     0.458739201748     0.169270965239    12.000000000000
         H           -0.243822111967     2.327325201748    -0.367932034761     1.007825032230
         H            1.752063888033     1.595057201748     0.584477965239     1.007825032230
         H           -2.870669111967     2.252495201748    -0.168937034761     1.007825032230
         H           -3.730351111967    -0.217417798252     0.200445965239     1.007825032230
         H            3.747265888033    -0.208150798252    -0.656508034761     1.007825032230
         H            3.775653888033    -0.038427798252     1.106153965239     1.007825032230
         H            4.068325888033     1.385847201748     0.069541965239     1.007825032230

  Basis Set: AUG-CC-PVTZ
    Blend: AUG-CC-PVTZ
  Basis Set: (AUG-CC-PVTZ AUX)
    Blend: AUG-CC-PVTZ-JKFIT
	 Reference Energy          =    -758.2654991469312336 [Eh]
	 Singles Energy            =      -0.0000000000000000 [Eh]
	 Same-Spin Energy          =      -0.4431821411477503 [Eh]
	 Opposite-Spin Energy      =      -1.3486916452306978 [Eh]
	 Correlation Energy        =      -1.7918737863784482 [Eh]
	 Total Energy              =    -760.0573729333096935 [Eh]

	 ================> DF-SCS-MP2 Energies <==================
	-----------------------------------------------------------
	 SCS Same-Spin Scale       =       0.3333333333333333 [-]
	 SCS Opposite-Spin Scale   =       1.2000000000000000 [-]
	 SCS Same-Spin Energy      =      -0.1477273803825834 [Eh]
	 SCS Opposite-Spin Energy  =      -1.6184299742768373 [Eh]
	 SCS Correlation Energy    =      -1.7661573546594207 [Eh]
	 SCS Total Energy          =    -760.0316565015906463 [Eh]
	-----------------------------------------------------------

  Dipole Moment: [D]
     X:    -0.2896      Y:     3.6431      Z:     1.0718     Total:     3.8085

*** Psi4 exiting successfully. Buy a developer a beer!
