                               Psi4 1.3.2 release

  ==> Input File <==

--------------------------------------------------------------------------
#psi4
#
memory 32 gb

molecule  {
0 1
  S       -1.4679970    -1.1088850     0.1509200
  O        1.4861710    -1.4617920    -0.3475990
  N        2.0488620     0.7112420     0.1011850
  C       -0.2734750     0.1140250    -0.0519740
  C        1.1480630    -0.2971330    -0.1085980
  C       -0.8491840     1.3674970    -0.1820640
  C       -2.2609459     1.3757138    -0.1017962
  C       -2.7341550     0.0450510     0.0925010
  C        3.4678020     0.4025420     0.1643440
  H       -0.2776640     2.2711280    -0.3728590
  H        1.7182220     1.5388600     0.5795510
  H       -2.9045110     2.1962980    -0.1738640
  H       -3.7641930    -0.2736150     0.1955190
  H        3.7134240    -0.2643480    -0.6614350
  H        3.7418120    -0.0946250     1.1012270
  H        4.0344840     1.3296500     0.0646150
units angstrom
no_reorient  #important for SAPT in psi4, default
symmetry c1  #important for SAPT in psi4, default
}

set PROPERTIES_ORIGIN ["COM"]
properties('MP2/aug-cc-pvtz', properties = ['dipole'])
--------------------------------------------------------------------------

    Molecular point group: c1
  Charge       = 0
  Multiplicity = 1
  Basis Set: AUG-CC-PVTZ
    Blend: AUG-CC-PVTZ
  Basis Set: (AUG-CC-PVTZ AUX)
    Blend: AUG-CC-PVTZ-JKFIT

    Orbital Energies [Eh]
    ---------------------

    Doubly Occupied:

       1A    -91.999641     2A    -20.522771     3A    -15.590199
       4A    -11.362398     5A    -11.285923     6A    -11.275714
       7A    -11.263703     8A    -11.261315     9A    -11.252969
      10A     -8.999034    11A     -6.679852    12A     -6.679285
      13A     -6.678675    14A     -1.377625    15A     -1.232731
      16A     -1.179514    17A     -1.016467    18A     -1.003576
      19A     -0.944258    20A     -0.831356    21A     -0.777019
      22A     -0.768244    23A     -0.720910    24A     -0.647340
      25A     -0.644624    26A     -0.625508    27A     -0.583511
      28A     -0.564603    29A     -0.556512    30A     -0.552420
      31A     -0.535368    32A     -0.509484    33A     -0.488567
      34A     -0.436843    35A     -0.399986    36A     -0.358433
      37A     -0.330483

  @DF-RHF Final Energy:  -758.26356267626238

   => Energetics <=

    Nuclear Repulsion Energy =            499.0650960102431100
    One-Electron Energy =               -2030.7835912804580403
    Two-Electron Energy =                 773.4549325939526625
    Total Energy =                       -758.2635626762623815
  Basis Set: (AUG-CC-PVTZ AUX)
    Blend: AUG-CC-PVTZ-RI
    Molecular point group: c1

    Geometry (in Angstrom), charge = 0, multiplicity = 1:

       Center              X                  Y                   Z               Mass
    ------------   -----------------  -----------------  -----------------  -----------------
         S           -1.424135733419    -1.066148821656     0.156807252967    31.972071174400
         O            1.530032266581    -1.419055821656    -0.341711747033    15.994914619570
         N            2.092723266581     0.753978178344     0.107072252967    14.003074004430
         C           -0.229613733419     0.156761178344    -0.046086747033    12.000000000000
         C            1.191924266581    -0.254396821656    -0.102710747033    12.000000000000
         C           -0.805322733419     1.410233178344    -0.176176747033    12.000000000000
         C           -2.217084633419     1.418449978344    -0.095908947033    12.000000000000
         C           -2.690293733419     0.087787178344     0.098388252967    12.000000000000
         C            3.511663266581     0.445278178344     0.170231252967    12.000000000000
         H           -0.233802733419     2.313864178344    -0.366971747033     1.007825032230
         H            1.762083266581     1.581596178344     0.585438252967     1.007825032230
         H           -2.860649733419     2.239034178344    -0.167976747033     1.007825032230
         H           -3.720331733419    -0.230878821656     0.201406252967     1.007825032230
         H            3.757285266581    -0.221611821656    -0.655547747033     1.007825032230
         H            3.785673266581    -0.051888821656     1.107114252967     1.007825032230
         H            4.078345266581     1.372386178344     0.070502252967     1.007825032230

  Basis Set: AUG-CC-PVTZ
    Blend: AUG-CC-PVTZ
  Basis Set: (AUG-CC-PVTZ AUX)
    Blend: AUG-CC-PVTZ-JKFIT
	 Reference Energy          =    -758.2635626762623815 [Eh]
	 Singles Energy            =      -0.0000000000000000 [Eh]
	 Same-Spin Energy          =      -0.4441496189647521 [Eh]
	 Opposite-Spin Energy      =      -1.3488938694285271 [Eh]
	 Correlation Energy        =      -1.7930434883932791 [Eh]
	 Total Energy              =    -760.0566061646557046 [Eh]

	 ================> DF-SCS-MP2 Energies <==================
	-----------------------------------------------------------
	 SCS Same-Spin Scale       =       0.3333333333333333 [-]
	 SCS Opposite-Spin Scale   =       1.2000000000000000 [-]
	 SCS Same-Spin Energy      =      -0.1480498729882507 [Eh]
	 SCS Opposite-Spin Energy  =      -1.6186726433142324 [Eh]
	 SCS Correlation Energy    =      -1.7667225163024831 [Eh]
	 SCS Total Energy          =    -760.0302851925648611 [Eh]
	-----------------------------------------------------------

  Dipole Moment: [D]
     X:    -0.3342      Y:     3.5896      Z:     1.0871     Total:     3.7655

*** Psi4 exiting successfully. Buy a developer a beer!
