                               Psi4 1.3.2 release

  ==> Input File <==

--------------------------------------------------------------------------
#psi4
#
memory 32 gb

molecule  {
0 1
  S       -1.4679970    -1.1088850     0.1509200
  O        1.4861710    -1.4617920    -0.3475990
  N        2.0488620     0.7112420     0.1011850
  C       -0.2734750     0.1140250    -0.0519740
  C        1.1480630    -0.2971330    -0.1085980
  C       -0.8622267     1.5139228    -0.1993042
  C       -2.2598870     1.3270920    -0.0933710
  C       -2.7341550     0.0450510     0.0925010
  C        3.4678020     0.4025420     0.1643440
  H       -0.2776640     2.2711280    -0.3728590
  H        1.7182220     1.5388600     0.5795510
  H       -2.9045110     2.1962980    -0.1738640
  H       -3.7641930    -0.2736150     0.1955190
  H        3.7134240    -0.2643480    -0.6614350
  H        3.7418120    -0.0946250     1.1012270
  H        4.0344840     1.3296500     0.0646150
units angstrom
no_reorient  #important for SAPT in psi4, default
symmetry c1  #important for SAPT in psi4, default
}

set PROPERTIES_ORIGIN ["COM"]
properties('MP2/aug-cc-pvtz', properties = ['dipole'])
--------------------------------------------------------------------------

    Molecular point group: c1
  Charge       = 0
  Multiplicity = 1
  Basis Set: AUG-CC-PVTZ
    Blend: AUG-CC-PVTZ
  Basis Set: (AUG-CC-PVTZ AUX)
    Blend: AUG-CC-PVTZ-JKFIT

    Orbital Energies [Eh]
    ---------------------

    Doubly Occupied:

       1A    -92.006192     2A    -20.521309     3A    -15.589682
       4A    -11.360441     5A    -11.290560     6A    -11.278963
       7A    -11.268872     8A    -11.260943     9A    -11.255684
      10A     -9.004966    11A     -6.685745    12A     -6.685159
      13A     -6.684676    14A     -1.376313    15A     -1.231632
      16A     -1.171276    17A     -1.013981    18A     -1.006665
      19A     -0.942130    20A     -0.837765    21A     -0.780658
      22A     -0.767514    23A     -0.720478    24A     -0.645215
      25A     -0.635291    26A     -0.623317    27A     -0.607769
      28A     -0.564646    29A     -0.551743    30A     -0.551321
      31A     -0.524559    32A     -0.508198    33A     -0.490610
      34A     -0.433067    35A     -0.399332    36A     -0.360253
      37A     -0.321301

  @DF-RHF Final Energy:  -758.23404791609892

   => Energetics <=

    Nuclear Repulsion Energy =            497.0517347569888216
    One-Electron Energy =               -2026.6551140634808235
    Two-Electron Energy =                 771.3693313903931994
    Total Energy =                       -758.2340479160989162
  Basis Set: (AUG-CC-PVTZ AUX)
    Blend: AUG-CC-PVTZ-RI
    Molecular point group: c1

    Geometry (in Angstrom), charge = 0, multiplicity = 1:

       Center              X                  Y                   Z               Mass
    ------------   -----------------  -----------------  -----------------  -----------------
         S           -1.423116015155    -1.074471100492     0.157557333617    31.972071174400
         O            1.531051984845    -1.427378100492    -0.340961666383    15.994914619570
         N            2.093742984845     0.745655899508     0.107822333617    14.003074004430
         C           -0.228594015155     0.148438899508    -0.045336666383    12.000000000000
         C            1.192943984845    -0.262719100492    -0.101960666383    12.000000000000
         C           -0.817345715155     1.548336699508    -0.192666866383    12.000000000000
         C           -2.215006015155     1.361505899508    -0.086733666383    12.000000000000
         C           -2.689274015155     0.079464899508     0.099138333617    12.000000000000
         C            3.512682984845     0.436955899508     0.170981333617    12.000000000000
         H           -0.232783015155     2.305541899508    -0.366221666383     1.007825032230
         H            1.763102984845     1.573273899508     0.586188333617     1.007825032230
         H           -2.859630015155     2.230711899508    -0.167226666383     1.007825032230
         H           -3.719312015155    -0.239201100492     0.202156333617     1.007825032230
         H            3.758304984845    -0.229934100492    -0.654797666383     1.007825032230
         H            3.786692984845    -0.060211100492     1.107864333617     1.007825032230
         H            4.079364984845     1.364063899508     0.071252333617     1.007825032230

  Basis Set: AUG-CC-PVTZ
    Blend: AUG-CC-PVTZ
  Basis Set: (AUG-CC-PVTZ AUX)
    Blend: AUG-CC-PVTZ-JKFIT
	 Reference Energy          =    -758.2340479160989162 [Eh]
	 Singles Energy            =      -0.0000000000000000 [Eh]
	 Same-Spin Energy          =      -0.4463076222002369 [Eh]
	 Opposite-Spin Energy      =      -1.3525573963816027 [Eh]
	 Correlation Energy        =      -1.7988650185818396 [Eh]
	 Total Energy              =    -760.0329129346807804 [Eh]

	 ================> DF-SCS-MP2 Energies <==================
	-----------------------------------------------------------
	 SCS Same-Spin Scale       =       0.3333333333333333 [-]
	 SCS Opposite-Spin Scale   =       1.2000000000000000 [-]
	 SCS Same-Spin Energy      =      -0.1487692074000790 [Eh]
	 SCS Opposite-Spin Energy  =      -1.6230688756579232 [Eh]
	 SCS Correlation Energy    =      -1.7718380830580023 [Eh]
	 SCS Total Energy          =    -760.0058859991569307 [Eh]
	-----------------------------------------------------------

  Dipole Moment: [D]
     X:    -0.4231      Y:     3.4616      Z:     1.0963     Total:     3.6556

*** Psi4 exiting successfully. Buy a developer a beer!
