                               Psi4 1.3.2 release

  ==> Input File <==

--------------------------------------------------------------------------
#psi4
#
memory 32 gb

molecule  {
0 1
  S       -1.4679970    -1.1088850     0.1509200
  O        1.4861710    -1.4617920    -0.3475990
  N        2.0488620     0.7112420     0.1011850
  C       -0.2734750     0.1140250    -0.0519740
  C        1.1480630    -0.2971330    -0.1085980
  C       -0.8491840     1.3674970    -0.1820640
  C       -2.2150633     1.3095120    -0.0940194
  C       -2.7341550     0.0450510     0.0925010
  C        3.4678020     0.4025420     0.1643440
  H       -0.2776640     2.2711280    -0.3728590
  H        1.7182220     1.5388600     0.5795510
  H       -2.9045110     2.1962980    -0.1738640
  H       -3.7641930    -0.2736150     0.1955190
  H        3.7134240    -0.2643480    -0.6614350
  H        3.7418120    -0.0946250     1.1012270
  H        4.0344840     1.3296500     0.0646150
units angstrom
no_reorient  #important for SAPT in psi4, default
symmetry c1  #important for SAPT in psi4, default
}

set PROPERTIES_ORIGIN ["COM"]
properties('MP2/aug-cc-pvtz', properties = ['dipole'])
--------------------------------------------------------------------------

    Molecular point group: c1
  Charge       = 0
  Multiplicity = 1
  Basis Set: AUG-CC-PVTZ
    Blend: AUG-CC-PVTZ
  Basis Set: (AUG-CC-PVTZ AUX)
    Blend: AUG-CC-PVTZ-JKFIT

    Orbital Energies [Eh]
    ---------------------

    Doubly Occupied:

       1A    -91.997197     2A    -20.522703     3A    -15.590694
       4A    -11.362055     5A    -11.278693     6A    -11.276323
       7A    -11.261605     8A    -11.258080     9A    -11.249844
      10A     -8.996822    11A     -6.677606    12A     -6.677117
      13A     -6.676468    14A     -1.377579    15A     -1.233186
      16A     -1.189989    17A     -1.019316    18A     -1.006293
      19A     -0.945711    20A     -0.832853    21A     -0.770718
      22A     -0.767048    23A     -0.723122    24A     -0.646068
      25A     -0.638628    26A     -0.625535    27A     -0.585061
      28A     -0.574236    29A     -0.558453    30A     -0.552906
      31A     -0.529293    32A     -0.512816    33A     -0.484403
      34A     -0.435822    35A     -0.400181    36A     -0.361107
      37A     -0.333127

  @DF-RHF Final Energy:  -758.26443118172870

   => Energetics <=

    Nuclear Repulsion Energy =            500.9012805855902570
    One-Electron Energy =               -2034.4741079280008762
    Two-Electron Energy =                 775.3083961606819230
    Total Energy =                       -758.2644311817286962
  Basis Set: (AUG-CC-PVTZ AUX)
    Blend: AUG-CC-PVTZ-RI
    Molecular point group: c1

    Geometry (in Angstrom), charge = 0, multiplicity = 1:

       Center              X                  Y                   Z               Mass
    ------------   -----------------  -----------------  -----------------  -----------------
         S           -1.428039947878    -1.060515618115     0.156145514203    31.972071174400
         O            1.526128052122    -1.413422618115    -0.342373485797    15.994914619570
         N            2.088819052122     0.759611381885     0.106410514203    14.003074004430
         C           -0.233517947878     0.162394381885    -0.046748485797    12.000000000000
         C            1.188020052122    -0.248763618115    -0.103372485797    12.000000000000
         C           -0.809226947878     1.415866381885    -0.176838485797    12.000000000000
         C           -2.175106247878     1.357881381885    -0.088793885797    12.000000000000
         C           -2.694197947878     0.093420381885     0.097726514203    12.000000000000
         C            3.507759052122     0.450911381885     0.169569514203    12.000000000000
         H           -0.237706947878     2.319497381885    -0.367633485797     1.007825032230
         H            1.758179052122     1.587229381885     0.584776514203     1.007825032230
         H           -2.864553947878     2.244667381885    -0.168638485797     1.007825032230
         H           -3.724235947878    -0.225245618115     0.200744514203     1.007825032230
         H            3.753381052122    -0.215978618115    -0.656209485797     1.007825032230
         H            3.781769052122    -0.046255618115     1.106452514203     1.007825032230
         H            4.074441052122     1.378019381885     0.069840514203     1.007825032230

  Basis Set: AUG-CC-PVTZ
    Blend: AUG-CC-PVTZ
  Basis Set: (AUG-CC-PVTZ AUX)
    Blend: AUG-CC-PVTZ-JKFIT
	 Reference Energy          =    -758.2644311817286962 [Eh]
	 Singles Energy            =      -0.0000000000000000 [Eh]
	 Same-Spin Energy          =      -0.4444121560863936 [Eh]
	 Opposite-Spin Energy      =      -1.3484958548670507 [Eh]
	 Correlation Energy        =      -1.7929080109534443 [Eh]
	 Total Energy              =    -760.0573391926820932 [Eh]

	 ================> DF-SCS-MP2 Energies <==================
	-----------------------------------------------------------
	 SCS Same-Spin Scale       =       0.3333333333333333 [-]
	 SCS Opposite-Spin Scale   =       1.2000000000000000 [-]
	 SCS Same-Spin Energy      =      -0.1481373853621312 [Eh]
	 SCS Opposite-Spin Energy  =      -1.6181950258404607 [Eh]
	 SCS Correlation Energy    =      -1.7663324112025920 [Eh]
	 SCS Total Energy          =    -760.0307635929312937 [Eh]
	-----------------------------------------------------------

  Dipole Moment: [D]
     X:    -0.3472      Y:     3.5982      Z:     1.0863     Total:     3.7746

*** Psi4 exiting successfully. Buy a developer a beer!
