                               Psi4 1.3.2 release

  ==> Input File <==

--------------------------------------------------------------------------
#psi4
#
memory 32 gb

molecule  {
0 1
  S       -1.4679970    -1.1088850     0.1509200
  O        1.4861710    -1.4617920    -0.3475990
  N        2.0488620     0.7112420     0.1011850
  C       -0.2734750     0.1140250    -0.0519740
  C        1.1480630    -0.2971330    -0.1085980
  C       -0.8491840     1.3674970    -0.1820640
  C       -2.4594114     1.3213773    -0.0808266
  C       -2.7341550     0.0450510     0.0925010
  C        3.4678020     0.4025420     0.1643440
  H       -0.2776640     2.2711280    -0.3728590
  H        1.7182220     1.5388600     0.5795510
  H       -2.9045110     2.1962980    -0.1738640
  H       -3.7641930    -0.2736150     0.1955190
  H        3.7134240    -0.2643480    -0.6614350
  H        3.7418120    -0.0946250     1.1012270
  H        4.0344840     1.3296500     0.0646150
units angstrom
no_reorient  #important for SAPT in psi4, default
symmetry c1  #important for SAPT in psi4, default
}

set PROPERTIES_ORIGIN ["COM"]
properties('MP2/aug-cc-pvtz', properties = ['dipole'])
--------------------------------------------------------------------------

    Molecular point group: c1
  Charge       = 0
  Multiplicity = 1
  Basis Set: AUG-CC-PVTZ
    Blend: AUG-CC-PVTZ
  Basis Set: (AUG-CC-PVTZ AUX)
    Blend: AUG-CC-PVTZ-JKFIT

    Orbital Energies [Eh]
    ---------------------

    Doubly Occupied:

       1A    -91.989882     2A    -20.526639     3A    -15.591884
       4A    -11.365165     5A    -11.279898     6A    -11.275760
       7A    -11.274062     8A    -11.262441     9A    -11.253939
      10A     -8.990326    11A     -6.671348    12A     -6.670560
      13A     -6.669721    14A     -1.380588    15A     -1.234405
      16A     -1.172518    17A     -1.033405    18A     -0.983555
      19A     -0.948478    20A     -0.836733    21A     -0.785248
      22A     -0.768622    23A     -0.721091    24A     -0.650962
      25A     -0.646557    26A     -0.627419    27A     -0.599521
      28A     -0.560427    29A     -0.554436    30A     -0.547425
      31A     -0.514025    32A     -0.507424    33A     -0.484490
      34A     -0.437299    35A     -0.401167    36A     -0.358300
      37A     -0.341126

  @DF-RHF Final Energy:  -758.23584486431957

   => Energetics <=

    Nuclear Repulsion Energy =            497.3700140853891867
    One-Electron Energy =               -2027.3780248844643666
    Two-Electron Energy =                 771.7721659347556624
    Total Energy =                       -758.2358448643195743
  Basis Set: (AUG-CC-PVTZ AUX)
    Blend: AUG-CC-PVTZ-RI
    Molecular point group: c1

    Geometry (in Angstrom), charge = 0, multiplicity = 1:

       Center              X                  Y                   Z               Mass
    ------------   -----------------  -----------------  -----------------  -----------------
         S           -1.407248027083    -1.061525253049     0.155022920442    31.972071174400
         O            1.546919972917    -1.414432253049    -0.343496079558    15.994914619570
         N            2.109610972917     0.758601746951     0.105287920442    14.003074004430
         C           -0.212726027083     0.161384746951    -0.047871079558    12.000000000000
         C            1.208811972917    -0.249773253049    -0.104495079558    12.000000000000
         C           -0.788435027083     1.414856746951    -0.177961079558    12.000000000000
         C           -2.398662427083     1.368737046951    -0.076723679558    12.000000000000
         C           -2.673406027083     0.092410746951     0.096603920442    12.000000000000
         C            3.528550972917     0.449901746951     0.168446920442    12.000000000000
         H           -0.216915027083     2.318487746951    -0.368756079558     1.007825032230
         H            1.778970972917     1.586219746951     0.583653920442     1.007825032230
         H           -2.843762027083     2.243657746951    -0.169761079558     1.007825032230
         H           -3.703444027083    -0.226255253049     0.199621920442     1.007825032230
         H            3.774172972917    -0.216988253049    -0.657332079558     1.007825032230
         H            3.802560972917    -0.047265253049     1.105329920442     1.007825032230
         H            4.095232972917     1.377009746951     0.068717920442     1.007825032230

  Basis Set: AUG-CC-PVTZ
    Blend: AUG-CC-PVTZ
  Basis Set: (AUG-CC-PVTZ AUX)
    Blend: AUG-CC-PVTZ-JKFIT
	 Reference Energy          =    -758.2358448643195743 [Eh]
	 Singles Energy            =      -0.0000000000000000 [Eh]
	 Same-Spin Energy          =      -0.4399797296575750 [Eh]
	 Opposite-Spin Energy      =      -1.3465481553304879 [Eh]
	 Correlation Energy        =      -1.7865278849880628 [Eh]
	 Total Energy              =    -760.0223727493076922 [Eh]

	 ================> DF-SCS-MP2 Energies <==================
	-----------------------------------------------------------
	 SCS Same-Spin Scale       =       0.3333333333333333 [-]
	 SCS Opposite-Spin Scale   =       1.2000000000000000 [-]
	 SCS Same-Spin Energy      =      -0.1466599098858583 [Eh]
	 SCS Opposite-Spin Energy  =      -1.6158577863965855 [Eh]
	 SCS Correlation Energy    =      -1.7625176962824438 [Eh]
	 SCS Total Energy          =    -759.9983625606020041 [Eh]
	-----------------------------------------------------------

  Dipole Moment: [D]
     X:    -0.1874      Y:     3.7247      Z:     1.0582     Total:     3.8766

*** Psi4 exiting successfully. Buy a developer a beer!
