                               Psi4 1.3.2 release

  ==> Input File <==

--------------------------------------------------------------------------
#psi4
#
memory 32 gb

molecule  {
0 1
  S       -1.4679970    -1.1088850     0.1509200
  O        1.4861710    -1.4617920    -0.3475990
  N        2.0666962     0.6955978     0.0984445
  C       -0.2734750     0.1140250    -0.0519740
  C        1.1480630    -0.2971330    -0.1085980
  C       -0.8491840     1.3674970    -0.1820640
  C       -2.2598870     1.3270920    -0.0933710
  C       -2.7341550     0.0450510     0.0925010
  C        3.4678020     0.4025420     0.1643440
  H       -0.2776640     2.2711280    -0.3728590
  H        1.7182220     1.5388600     0.5795510
  H       -2.9045110     2.1962980    -0.1738640
  H       -3.7641930    -0.2736150     0.1955190
  H        3.7134240    -0.2643480    -0.6614350
  H        3.7418120    -0.0946250     1.1012270
  H        4.0344840     1.3296500     0.0646150
units angstrom
no_reorient  #important for SAPT in psi4, default
symmetry c1  #important for SAPT in psi4, default
}

set PROPERTIES_ORIGIN ["COM"]
properties('MP2/aug-cc-pvtz', properties = ['dipole'])
--------------------------------------------------------------------------

    Molecular point group: c1
  Charge       = 0
  Multiplicity = 1
  Basis Set: AUG-CC-PVTZ
    Blend: AUG-CC-PVTZ
  Basis Set: (AUG-CC-PVTZ AUX)
    Blend: AUG-CC-PVTZ-JKFIT

    Orbital Energies [Eh]
    ---------------------

    Doubly Occupied:

       1A    -91.996865     2A    -20.522342     3A    -15.591478
       4A    -11.362361     5A    -11.279766     6A    -11.277809
       7A    -11.263395     8A    -11.259825     9A    -11.251328
      10A     -8.996571    11A     -6.677402    12A     -6.676854
      13A     -6.676176    14A     -1.378276    15A     -1.233940
      16A     -1.184987    17A     -1.021737    18A     -1.001470
      19A     -0.947271    20A     -0.830804    21A     -0.771601
      22A     -0.766021    23A     -0.722559    24A     -0.649914
      25A     -0.641317    26A     -0.627993    27A     -0.581014
      28A     -0.573709    29A     -0.557803    30A     -0.549616
      31A     -0.534292    32A     -0.511252    33A     -0.486743
      34A     -0.436408    35A     -0.398002    36A     -0.357474
      37A     -0.336464

  @DF-RHF Final Energy:  -758.26752015122418

   => Energetics <=

    Nuclear Repulsion Energy =            500.0080704579769417
    One-Electron Energy =               -2032.6855051662532787
    Two-Electron Energy =                 774.4099145570522751
    Total Energy =                       -758.2675201512241756
  Basis Set: (AUG-CC-PVTZ AUX)
    Blend: AUG-CC-PVTZ-RI
    Molecular point group: c1

    Geometry (in Angstrom), charge = 0, multiplicity = 1:

       Center              X                  Y                   Z               Mass
    ------------   -----------------  -----------------  -----------------  -----------------
         S           -1.425996685232    -1.060458132564     0.156362459143    31.972071174400
         O            1.528171314768    -1.413365132564    -0.342156540857    15.994914619570
         N            2.108696514768     0.744024667436     0.103886959143    14.003074004430
         C           -0.231474685232     0.162451867436    -0.046531540857    12.000000000000
         C            1.190063314768    -0.248706132564    -0.103155540857    12.000000000000
         C           -0.807183685232     1.415923867436    -0.176621540857    12.000000000000
         C           -2.217886685232     1.375518867436    -0.087928540857    12.000000000000
         C           -2.692154685232     0.093477867436     0.097943459143    12.000000000000
         C            3.509802314768     0.450968867436     0.169786459143    12.000000000000
         H           -0.235663685232     2.319554867436    -0.367416540857     1.007825032230
         H            1.760222314768     1.587286867436     0.584993459143     1.007825032230
         H           -2.862510685232     2.244724867436    -0.168421540857     1.007825032230
         H           -3.722192685232    -0.225188132564     0.200961459143     1.007825032230
         H            3.755424314768    -0.215921132564    -0.655992540857     1.007825032230
         H            3.783812314768    -0.046198132564     1.106669459143     1.007825032230
         H            4.076484314768     1.378076867436     0.070057459143     1.007825032230

  Basis Set: AUG-CC-PVTZ
    Blend: AUG-CC-PVTZ
  Basis Set: (AUG-CC-PVTZ AUX)
    Blend: AUG-CC-PVTZ-JKFIT
	 Reference Energy          =    -758.2675201512241756 [Eh]
	 Singles Energy            =      -0.0000000000000000 [Eh]
	 Same-Spin Energy          =      -0.4436620637209399 [Eh]
	 Opposite-Spin Energy      =      -1.3479208518685895 [Eh]
	 Correlation Energy        =      -1.7915829155895293 [Eh]
	 Total Energy              =    -760.0591030668136909 [Eh]

	 ================> DF-SCS-MP2 Energies <==================
	-----------------------------------------------------------
	 SCS Same-Spin Scale       =       0.3333333333333333 [-]
	 SCS Opposite-Spin Scale   =       1.2000000000000000 [-]
	 SCS Same-Spin Energy      =      -0.1478873545736466 [Eh]
	 SCS Opposite-Spin Energy  =      -1.6175050222423073 [Eh]
	 SCS Correlation Energy    =      -1.7653923768159538 [Eh]
	 SCS Total Energy          =    -760.0329125280401286 [Eh]
	-----------------------------------------------------------

  Dipole Moment: [D]
     X:    -0.3909      Y:     3.6428      Z:     1.0767     Total:     3.8186

*** Psi4 exiting successfully. Buy a developer a beer!
