                               Psi4 1.3.2 release

  ==> Input File <==

--------------------------------------------------------------------------
#psi4
#
memory 32 gb

molecule  {
0 1
  S       -1.4679970    -1.1088850     0.1509200
  O        1.4861710    -1.4617920    -0.3475990
  N        2.0488620     0.7112420     0.1011850
  C       -0.1451745     0.1796623    -0.0681537
  C        1.1480630    -0.2971330    -0.1085980
  C       -0.8491840     1.3674970    -0.1820640
  C       -2.2598870     1.3270920    -0.0933710
  C       -2.7341550     0.0450510     0.0925010
  C        3.4678020     0.4025420     0.1643440
  H       -0.2776640     2.2711280    -0.3728590
  H        1.7182220     1.5388600     0.5795510
  H       -2.9045110     2.1962980    -0.1738640
  H       -3.7641930    -0.2736150     0.1955190
  H        3.7134240    -0.2643480    -0.6614350
  H        3.7418120    -0.0946250     1.1012270
  H        4.0344840     1.3296500     0.0646150
units angstrom
no_reorient  #important for SAPT in psi4, default
symmetry c1  #important for SAPT in psi4, default
}

set PROPERTIES_ORIGIN ["COM"]
properties('MP2/aug-cc-pvtz', properties = ['dipole'])
--------------------------------------------------------------------------

    Molecular point group: c1
  Charge       = 0
  Multiplicity = 1
  Basis Set: AUG-CC-PVTZ
    Blend: AUG-CC-PVTZ
  Basis Set: (AUG-CC-PVTZ AUX)
    Blend: AUG-CC-PVTZ-JKFIT

    Orbital Energies [Eh]
    ---------------------

    Doubly Occupied:

       1A    -91.992500     2A    -20.521585     3A    -15.587116
       4A    -11.355189     5A    -11.290706     6A    -11.280048
       7A    -11.276537     8A    -11.259284     9A    -11.254316
      10A     -8.990630    11A     -6.671430    12A     -6.670641
      13A     -6.670197    14A     -1.378906    15A     -1.235009
      16A     -1.174288    17A     -1.039710    18A     -0.993734
      19A     -0.944782    20A     -0.853680    21A     -0.773986
      22A     -0.769801    23A     -0.720059    24A     -0.647823
      25A     -0.644379    26A     -0.628623    27A     -0.590571
      28A     -0.579444    29A     -0.557722    30A     -0.551270
      31A     -0.521375    32A     -0.506626    33A     -0.463480
      34A     -0.437926    35A     -0.399976    36A     -0.360263
      37A     -0.335838

  @DF-RHF Final Energy:  -758.24633205393513

   => Energetics <=

    Nuclear Repulsion Energy =            499.1501566727754380
    One-Electron Energy =               -2030.9340738570808753
    Two-Electron Energy =                 773.5375851303703030
    Total Energy =                       -758.2463320539351344
  Basis Set: (AUG-CC-PVTZ AUX)
    Blend: AUG-CC-PVTZ-RI
    Molecular point group: c1

    Geometry (in Angstrom), charge = 0, multiplicity = 1:

       Center              X                  Y                   Z               Mass
    ------------   -----------------  -----------------  -----------------  -----------------
         S           -1.435143105275    -1.067596694294     0.157467094193    31.972071174400
         O            1.519024894725    -1.420503694294    -0.341051905807    15.994914619570
         N            2.081715894725     0.752530305706     0.107732094193    14.003074004430
         C           -0.112320605275     0.220950605706    -0.061606605807    12.000000000000
         C            1.180916894725    -0.255844694294    -0.102050905807    12.000000000000
         C           -0.816330105275     1.408785305706    -0.175516905807    12.000000000000
         C           -2.227033105275     1.368380305706    -0.086823905807    12.000000000000
         C           -2.701301105275     0.086339305706     0.099048094193    12.000000000000
         C            3.500655894725     0.443830305706     0.170891094193    12.000000000000
         H           -0.244810105275     2.312416305706    -0.366311905807     1.007825032230
         H            1.751075894725     1.580148305706     0.586098094193     1.007825032230
         H           -2.871657105275     2.237586305706    -0.167316905807     1.007825032230
         H           -3.731339105275    -0.232326694294     0.202066094193     1.007825032230
         H            3.746277894725    -0.223059694294    -0.654887905807     1.007825032230
         H            3.774665894725    -0.053336694294     1.107774094193     1.007825032230
         H            4.067337894725     1.370938305706     0.071162094193     1.007825032230

  Basis Set: AUG-CC-PVTZ
    Blend: AUG-CC-PVTZ
  Basis Set: (AUG-CC-PVTZ AUX)
    Blend: AUG-CC-PVTZ-JKFIT
	 Reference Energy          =    -758.2463320539351344 [Eh]
	 Singles Energy            =      -0.0000000000000000 [Eh]
	 Same-Spin Energy          =      -0.4445823800963418 [Eh]
	 Opposite-Spin Energy      =      -1.3505133934775411 [Eh]
	 Correlation Energy        =      -1.7950957735738828 [Eh]
	 Total Energy              =    -760.0414278275089828 [Eh]

	 ================> DF-SCS-MP2 Energies <==================
	-----------------------------------------------------------
	 SCS Same-Spin Scale       =       0.3333333333333333 [-]
	 SCS Opposite-Spin Scale   =       1.2000000000000000 [-]
	 SCS Same-Spin Energy      =      -0.1481941266987806 [Eh]
	 SCS Opposite-Spin Energy  =      -1.6206160721730491 [Eh]
	 SCS Correlation Energy    =      -1.7688101988718297 [Eh]
	 SCS Total Energy          =    -760.0151422528069816 [Eh]
	-----------------------------------------------------------

  Dipole Moment: [D]
     X:    -0.4899      Y:     3.8155      Z:     1.0539     Total:     3.9885

*** Psi4 exiting successfully. Buy a developer a beer!
