                               Psi4 1.4a3.dev225

  ==> Input File <==

--------------------------------------------------------------------------
#psi4
#
memory 32 gb

molecule  {
0 1
  S       -1.4679970    -1.1088850     0.1509200
  O        1.4861710    -1.4617920    -0.3475990
  N        2.0488620     0.7112420     0.1011850
  C       -0.2734750     0.1140250    -0.0519740
  C        1.1480630    -0.2971330    -0.1085980
  C       -0.8491840     1.3674970    -0.1820640
  C       -2.2598870     1.3270920    -0.0933710
  C       -2.7341550     0.0450510     0.0925010
  C        3.4678020     0.4025420     0.1643440
  H       -0.2881884     2.2544879    -0.3693456
  H        1.7182220     1.5388600     0.5795510
  H       -2.9045110     2.1962980    -0.1738640
  H       -3.7641930    -0.2736150     0.1955190
  H        3.7134240    -0.2643480    -0.6614350
  H        3.7418120    -0.0946250     1.1012270
  H        4.0344840     1.3296500     0.0646150
units angstrom
no_reorient  #important for SAPT in psi4, default
symmetry c1  #important for SAPT in psi4, default
}

set PROPERTIES_ORIGIN ["COM"]
properties('MP2/aug-cc-pvtz', properties = ['dipole'])
--------------------------------------------------------------------------

    Molecular point group: c1
  Charge       = 0
  Multiplicity = 1
  Basis Set: AUG-CC-PVTZ
    Blend: AUG-CC-PVTZ
  Basis Set: (AUG-CC-PVTZ AUX)
    Blend: AUG-CC-PVTZ-JKFIT

    Orbital Energies [Eh]
    ---------------------

    Doubly Occupied:

       1A    -91.996072     2A    -20.523425     3A    -15.590904
       4A    -11.362680     5A    -11.279068     6A    -11.276684
       7A    -11.261747     8A    -11.260473     9A    -11.250672
      10A     -8.995807    11A     -6.676642    12A     -6.676090
      13A     -6.675417    14A     -1.378132    15A     -1.233369
      16A     -1.184209    17A     -1.020574    18A     -1.001606
      19A     -0.946385    20A     -0.833436    21A     -0.771798
      22A     -0.769402    23A     -0.724499    24A     -0.646350
      25A     -0.641661    26A     -0.625930    27A     -0.580295
      28A     -0.574333    29A     -0.557820    30A     -0.552924
      31A     -0.533321    32A     -0.511479    33A     -0.486340
      34A     -0.436748    35A     -0.400389    36A     -0.356916
      37A     -0.335830

  @DF-RHF Final Energy:  -758.26871187988024

   => Energetics <=

    Nuclear Repulsion Energy =            500.0418383360540133
    One-Electron Energy =               -2032.7622420664829406
    Two-Electron Energy =                 774.4516918505486274
    Total Energy =                       -758.2687118798802430
  Basis Set: (AUG-CC-PVTZ AUX)
    Blend: AUG-CC-PVTZ-RI
    Molecular point group: c1

    Geometry (in Angstrom), charge = 0, multiplicity = 1:

       Center              X                  Y                   Z               Mass
    ------------   -----------------  -----------------  -----------------  -----------------
         S           -1.424150624741    -1.061892607428     0.156065232652    31.972071174400
         O            1.530017375259    -1.414799607428    -0.342453767348    15.994914619570
         N            2.092708375259     0.758234392572     0.106330232652    14.003074004430
         C           -0.229628624741     0.161017392572    -0.046828767348    12.000000000000
         C            1.191909375259    -0.250140607428    -0.103452767348    12.000000000000
         C           -0.805337624741     1.414489392572    -0.176918767348    12.000000000000
         C           -2.216040624741     1.374084392572    -0.088225767348    12.000000000000
         C           -2.690308624741     0.092043392572     0.097646232652    12.000000000000
         C            3.511648375259     0.449534392572     0.169489232652    12.000000000000
         H           -0.244342024741     2.301480292572    -0.364200367348     1.007825032230
         H            1.762068375259     1.585852392572     0.584696232652     1.007825032230
         H           -2.860664624741     2.243290392572    -0.168718767348     1.007825032230
         H           -3.720346624741    -0.226622607428     0.200664232652     1.007825032230
         H            3.757270375259    -0.217355607428    -0.656289767348     1.007825032230
         H            3.785658375259    -0.047632607428     1.106372232652     1.007825032230
         H            4.078330375259     1.376642392572     0.069760232652     1.007825032230

  Basis Set: AUG-CC-PVTZ
    Blend: AUG-CC-PVTZ
  Basis Set: (AUG-CC-PVTZ AUX)
    Blend: AUG-CC-PVTZ-JKFIT
	 Reference Energy          =    -758.2687118798802430 [Eh]
	 Singles Energy            =      -0.0000000000000000 [Eh]
	 Same-Spin Energy          =      -0.4434402590414482 [Eh]
	 Opposite-Spin Energy      =      -1.3476404592349078 [Eh]
	 Correlation Energy        =      -1.7910807182763560 [Eh]
	 Total Energy              =    -760.0597925981566050 [Eh]

	 ================> DF-SCS-MP2 Energies <==================
	-----------------------------------------------------------
	 SCS Same-Spin Scale       =       0.3333333333333333 [-]
	 SCS Opposite-Spin Scale   =       1.2000000000000000 [-]
	 SCS Same-Spin Energy      =      -0.1478134196804827 [Eh]
	 SCS Opposite-Spin Energy  =      -1.6171685510818894 [Eh]
	 SCS Correlation Energy    =      -1.7649819707623722 [Eh]
	 SCS Total Energy          =    -760.0336938506426350 [Eh]
	-----------------------------------------------------------

  Dipole Moment: [D]
     X:    -0.3241      Y:     3.6182      Z:     1.0822     Total:     3.7904

*** Psi4 exiting successfully. Buy a developer a beer!
