                               Psi4 1.3.2 release

  ==> Input File <==

--------------------------------------------------------------------------
#psi4
#
memory 32 gb

molecule  {
0 1
  S       -1.4679970    -1.1088850     0.1509200
  O        1.4861710    -1.4617920    -0.3475990
  N        2.0488620     0.7112420     0.1011850
  C       -0.2734750     0.1140250    -0.0519740
  C        1.1480630    -0.2971330    -0.1085980
  C       -0.8491840     1.3674970    -0.1820640
  C       -2.2373995     1.3184959    -0.0937235
  C       -2.7341550     0.0450510     0.0925010
  C        3.4678020     0.4025420     0.1643440
  H       -0.2776640     2.2711280    -0.3728590
  H        1.7182220     1.5388600     0.5795510
  H       -2.9045110     2.1962980    -0.1738640
  H       -3.7641930    -0.2736150     0.1955190
  H        3.7134240    -0.2643480    -0.6614350
  H        3.7418120    -0.0946250     1.1012270
  H        4.0344840     1.3296500     0.0646150
units angstrom
no_reorient  #important for SAPT in psi4, default
symmetry c1  #important for SAPT in psi4, default
}

set PROPERTIES_ORIGIN ["COM"]
properties('MP2/aug-cc-pvtz', properties = ['dipole'])
--------------------------------------------------------------------------

    Molecular point group: c1
  Charge       = 0
  Multiplicity = 1
  Basis Set: AUG-CC-PVTZ
    Blend: AUG-CC-PVTZ
  Basis Set: (AUG-CC-PVTZ AUX)
    Blend: AUG-CC-PVTZ-JKFIT

    Orbital Energies [Eh]
    ---------------------

    Doubly Occupied:

       1A    -91.996668     2A    -20.523055     3A    -15.590755
       4A    -11.362360     5A    -11.278911     6A    -11.276546
       7A    -11.261651     8A    -11.260443     9A    -11.250339
      10A     -8.996347    11A     -6.677156    12A     -6.676635
      13A     -6.675974    14A     -1.377843    15A     -1.233237
      16A     -1.187005    17A     -1.019903    18A     -1.003502
      19A     -0.945990    20A     -0.832947    21A     -0.770301
      22A     -0.768646    23A     -0.722489    24A     -0.646161
      25A     -0.640117    26A     -0.625732    27A     -0.579405
      28A     -0.576638    29A     -0.558040    30A     -0.552945
      31A     -0.531335    32A     -0.512216    33A     -0.485428
      34A     -0.436309    35A     -0.400250    36A     -0.359006
      37A     -0.334509

  @DF-RHF Final Energy:  -758.26729526904319

   => Energetics <=

    Nuclear Repulsion Energy =            500.4144000891798214
    One-Electron Energy =               -2033.5098042000715850
    Two-Electron Energy =                 774.8281088418484615
    Total Energy =                       -758.2672952690431885
  Basis Set: (AUG-CC-PVTZ AUX)
    Blend: AUG-CC-PVTZ-RI
    Molecular point group: c1

    Geometry (in Angstrom), charge = 0, multiplicity = 1:

       Center              X                  Y                   Z               Mass
    ------------   -----------------  -----------------  -----------------  -----------------
         S           -1.426139329452    -1.061280070702     0.156120335659    31.972071174400
         O            1.528028670548    -1.414187070702    -0.342398664341    15.994914619570
         N            2.090719670548     0.758846929298     0.106385335659    14.003074004430
         C           -0.231617329452     0.161629929298    -0.046773664341    12.000000000000
         C            1.189920670548    -0.249528070702    -0.103397664341    12.000000000000
         C           -0.807326329452     1.415101929298    -0.176863664341    12.000000000000
         C           -2.195541829452     1.366100829298    -0.088523164341    12.000000000000
         C           -2.692297329452     0.092655929298     0.097701335659    12.000000000000
         C            3.509659670548     0.450146929298     0.169544335659    12.000000000000
         H           -0.235806329452     2.318732929298    -0.367658664341     1.007825032230
         H            1.760079670548     1.586464929298     0.584751335659     1.007825032230
         H           -2.862653329452     2.243902929298    -0.168663664341     1.007825032230
         H           -3.722335329452    -0.226010070702     0.200719335659     1.007825032230
         H            3.755281670548    -0.216743070702    -0.656234664341     1.007825032230
         H            3.783669670548    -0.047020070702     1.106427335659     1.007825032230
         H            4.076341670548     1.377254929298     0.069815335659     1.007825032230

  Basis Set: AUG-CC-PVTZ
    Blend: AUG-CC-PVTZ
  Basis Set: (AUG-CC-PVTZ AUX)
    Blend: AUG-CC-PVTZ-JKFIT
	 Reference Energy          =    -758.2672952690431885 [Eh]
	 Singles Energy            =      -0.0000000000000000 [Eh]
	 Same-Spin Energy          =      -0.4439360814385557 [Eh]
	 Opposite-Spin Energy      =      -1.3480869137558473 [Eh]
	 Correlation Energy        =      -1.7920229951944031 [Eh]
	 Total Energy              =    -760.0593182642376178 [Eh]

	 ================> DF-SCS-MP2 Energies <==================
	-----------------------------------------------------------
	 SCS Same-Spin Scale       =       0.3333333333333333 [-]
	 SCS Opposite-Spin Scale   =       1.2000000000000000 [-]
	 SCS Same-Spin Energy      =      -0.1479786938128519 [Eh]
	 SCS Opposite-Spin Energy  =      -1.6177042965070167 [Eh]
	 SCS Correlation Energy    =      -1.7656829903198688 [Eh]
	 SCS Total Energy          =    -760.0329782593630625 [Eh]
	-----------------------------------------------------------

  Dipole Moment: [D]
     X:    -0.3393      Y:     3.6076      Z:     1.0841     Total:     3.7822

*** Psi4 exiting successfully. Buy a developer a beer!
