                               Psi4 1.4a3.dev225

  ==> Input File <==

--------------------------------------------------------------------------
#psi4
#
memory 32 gb

molecule  {
0 1
  S       -1.4679970    -1.1088850     0.1509200
  O        1.4861710    -1.4617920    -0.3475990
  N        2.0488620     0.7112420     0.1011850
  C       -0.3081692     0.0785062    -0.0460811
  C        1.1480630    -0.2971330    -0.1085980
  C       -0.8491840     1.3674970    -0.1820640
  C       -2.2598870     1.3270920    -0.0933710
  C       -2.7341550     0.0450510     0.0925010
  C        3.4678020     0.4025420     0.1643440
  H       -0.2776640     2.2711280    -0.3728590
  H        1.7182220     1.5388600     0.5795510
  H       -2.9045110     2.1962980    -0.1738640
  H       -3.7641930    -0.2736150     0.1955190
  H        3.7134240    -0.2643480    -0.6614350
  H        3.7418120    -0.0946250     1.1012270
  H        4.0344840     1.3296500     0.0646150
units angstrom
no_reorient  #important for SAPT in psi4, default
symmetry c1  #important for SAPT in psi4, default
}

set PROPERTIES_ORIGIN ["COM"]
properties('MP2/aug-cc-pvtz', properties = ['dipole'])
--------------------------------------------------------------------------

    Molecular point group: c1
  Charge       = 0
  Multiplicity = 1
  Basis Set: AUG-CC-PVTZ
    Blend: AUG-CC-PVTZ
  Basis Set: (AUG-CC-PVTZ AUX)
    Blend: AUG-CC-PVTZ-JKFIT

    Orbital Energies [Eh]
    ---------------------

    Doubly Occupied:

       1A    -91.997865     2A    -20.522785     3A    -15.591770
       4A    -11.363736     5A    -11.276806     6A    -11.275884
       7A    -11.262345     8A    -11.261125     9A    -11.250443
      10A     -8.998485    11A     -6.679378    12A     -6.678809
      13A     -6.678084    14A     -1.377581    15A     -1.232834
      16A     -1.187929    17A     -1.016985    18A     -1.003212
      19A     -0.945868    20A     -0.828386    21A     -0.770388
      22A     -0.768587    23A     -0.721565    24A     -0.646194
      25A     -0.640888    26A     -0.625453    27A     -0.576531
      28A     -0.570016    29A     -0.558780    30A     -0.553376
      31A     -0.538973    32A     -0.512980    33A     -0.490210
      34A     -0.434928    35A     -0.400219    36A     -0.357506
      37A     -0.333023

  @DF-RHF Final Energy:  -758.26574958942433

   => Energetics <=

    Nuclear Repulsion Energy =            500.3008650996875986
    One-Electron Energy =               -2033.2733774215219000
    Two-Electron Energy =                 774.7067627324099703
    Total Energy =                       -758.2657495894243311
  Basis Set: (AUG-CC-PVTZ AUX)
    Blend: AUG-CC-PVTZ-RI
    Molecular point group: c1

    Geometry (in Angstrom), charge = 0, multiplicity = 1:

       Center              X                  Y                   Z               Mass
    ------------   -----------------  -----------------  -----------------  -----------------
         S           -1.421273658807    -1.058989180591     0.155588905858    31.972071174400
         O            1.532894341193    -1.411896180591    -0.342930094142    15.994914619570
         N            2.095585341193     0.761137819409     0.105853905858    14.003074004430
         C           -0.261445858807     0.128402019409    -0.041412194142    12.000000000000
         C            1.194786341193    -0.247237180591    -0.103929094142    12.000000000000
         C           -0.802460658807     1.417392819409    -0.177395094142    12.000000000000
         C           -2.213163658807     1.376987819409    -0.088702094142    12.000000000000
         C           -2.687431658807     0.094946819409     0.097169905858    12.000000000000
         C            3.514525341193     0.452437819409     0.169012905858    12.000000000000
         H           -0.230940658807     2.321023819409    -0.368190094142     1.007825032230
         H            1.764945341193     1.588755819409     0.584219905858     1.007825032230
         H           -2.857787658807     2.246193819409    -0.169195094142     1.007825032230
         H           -3.717469658807    -0.223719180591     0.200187905858     1.007825032230
         H            3.760147341193    -0.214452180591    -0.656766094142     1.007825032230
         H            3.788535341193    -0.044729180591     1.105895905858     1.007825032230
         H            4.081207341193     1.379545819409     0.069283905858     1.007825032230

  Basis Set: AUG-CC-PVTZ
    Blend: AUG-CC-PVTZ
  Basis Set: (AUG-CC-PVTZ AUX)
    Blend: AUG-CC-PVTZ-JKFIT
	 Reference Energy          =    -758.2657495894243311 [Eh]
	 Singles Energy            =      -0.0000000000000000 [Eh]
	 Same-Spin Energy          =      -0.4439022741196968 [Eh]
	 Opposite-Spin Energy      =      -1.3478342665754883 [Eh]
	 Correlation Energy        =      -1.7917365406951853 [Eh]
	 Total Energy              =    -760.0574861301195142 [Eh]

	 ================> DF-SCS-MP2 Energies <==================
	-----------------------------------------------------------
	 SCS Same-Spin Scale       =       0.3333333333333333 [-]
	 SCS Opposite-Spin Scale   =       1.2000000000000000 [-]
	 SCS Same-Spin Energy      =      -0.1479674247065656 [Eh]
	 SCS Opposite-Spin Energy  =      -1.6174011198905860 [Eh]
	 SCS Correlation Energy    =      -1.7653685445971516 [Eh]
	 SCS Total Energy          =    -760.0311181340214262 [Eh]
	-----------------------------------------------------------

  Dipole Moment: [D]
     X:    -0.3032      Y:     3.5458      Z:     1.0958     Total:     3.7236

*** Psi4 exiting successfully. Buy a developer a beer!
