                               Psi4 1.3.2 release

  ==> Input File <==

--------------------------------------------------------------------------
#psi4
#
memory 32 gb

molecule  {
0 1
  S       -1.5511730    -1.0222156     0.1480329
  O        1.4861710    -1.4617920    -0.3475990
  N        2.0488620     0.7112420     0.1011850
  C       -0.2734750     0.1140250    -0.0519740
  C        1.1480630    -0.2971330    -0.1085980
  C       -0.8491840     1.3674970    -0.1820640
  C       -2.2598870     1.3270920    -0.0933710
  C       -2.7341550     0.0450510     0.0925010
  C        3.4678020     0.4025420     0.1643440
  H       -0.2776640     2.2711280    -0.3728590
  H        1.7182220     1.5388600     0.5795510
  H       -2.9045110     2.1962980    -0.1738640
  H       -3.7641930    -0.2736150     0.1955190
  H        3.7134240    -0.2643480    -0.6614350
  H        3.7418120    -0.0946250     1.1012270
  H        4.0344840     1.3296500     0.0646150
units angstrom
no_reorient  #important for SAPT in psi4, default
symmetry c1  #important for SAPT in psi4, default
}

set PROPERTIES_ORIGIN ["COM"]
properties('MP2/aug-cc-pvtz', properties = ['dipole'])
--------------------------------------------------------------------------

    Molecular point group: c1
  Charge       = 0
  Multiplicity = 1
  Basis Set: AUG-CC-PVTZ
    Blend: AUG-CC-PVTZ
  Basis Set: (AUG-CC-PVTZ AUX)
    Blend: AUG-CC-PVTZ-JKFIT

    Orbital Energies [Eh]
    ---------------------

    Doubly Occupied:

       1A    -91.993269     2A    -20.521961     3A    -15.590692
       4A    -11.363331     5A    -11.273273     6A    -11.269983
       7A    -11.261622     8A    -11.261511     9A    -11.246071
      10A     -8.996406    11A     -6.677593    12A     -6.676651
      13A     -6.675981    14A     -1.376727    15A     -1.233196
      16A     -1.203033    17A     -1.030329    18A     -1.003546
      19A     -0.946771    20A     -0.832862    21A     -0.773806
      22A     -0.768413    23A     -0.723272    24A     -0.649942
      25A     -0.642090    26A     -0.627144    27A     -0.580060
      28A     -0.573811    29A     -0.562495    30A     -0.554478
      31A     -0.543807    32A     -0.519091    33A     -0.479154
      34A     -0.435889    35A     -0.399792    36A     -0.360539
      37A     -0.334252

  @DF-RHF Final Energy:  -758.26023348161164

   => Energetics <=

    Nuclear Repulsion Energy =            502.4588364728663805
    One-Electron Energy =               -2037.5124494169306217
    Two-Electron Energy =                 776.7933794624526627
    Total Energy =                       -758.2602334816116354
  Basis Set: (AUG-CC-PVTZ AUX)
    Blend: AUG-CC-PVTZ-RI
    Molecular point group: c1

    Geometry (in Angstrom), charge = 0, multiplicity = 1:

       Center              X                  Y                   Z               Mass
    ------------   -----------------  -----------------  -----------------  -----------------
         S           -1.488544810618    -0.994991147835     0.153857782156    31.972071174400
         O            1.548799189382    -1.434567547835    -0.341774117844    15.994914619570
         N            2.111490189382     0.738466452165     0.107009882156    14.003074004430
         C           -0.210846810618     0.141249452165    -0.046149117844    12.000000000000
         C            1.210691189382    -0.269908547835    -0.102773117844    12.000000000000
         C           -0.786555810618     1.394721452165    -0.176239117844    12.000000000000
         C           -2.197258810618     1.354316452165    -0.087546117844    12.000000000000
         C           -2.671526810618     0.072275452165     0.098325882156    12.000000000000
         C            3.530430189382     0.429766452165     0.170168882156    12.000000000000
         H           -0.215035810618     2.298352452165    -0.367034117844     1.007825032230
         H            1.780850189382     1.566084452165     0.585375882156     1.007825032230
         H           -2.841882810618     2.223522452165    -0.168039117844     1.007825032230
         H           -3.701564810618    -0.246390547835     0.201343882156     1.007825032230
         H            3.776052189382    -0.237123547835    -0.655610117844     1.007825032230
         H            3.804440189382    -0.067400547835     1.107051882156     1.007825032230
         H            4.097112189382     1.356874452165     0.070439882156     1.007825032230

  Basis Set: AUG-CC-PVTZ
    Blend: AUG-CC-PVTZ
  Basis Set: (AUG-CC-PVTZ AUX)
    Blend: AUG-CC-PVTZ-JKFIT
	 Reference Energy          =    -758.2602334816116354 [Eh]
	 Singles Energy            =      -0.0000000000000000 [Eh]
	 Same-Spin Energy          =      -0.4444463606708791 [Eh]
	 Opposite-Spin Energy      =      -1.3465185958584680 [Eh]
	 Correlation Energy        =      -1.7909649565293471 [Eh]
	 Total Energy              =    -760.0511984381410002 [Eh]

	 ================> DF-SCS-MP2 Energies <==================
	-----------------------------------------------------------
	 SCS Same-Spin Scale       =       0.3333333333333333 [-]
	 SCS Opposite-Spin Scale   =       1.2000000000000000 [-]
	 SCS Same-Spin Energy      =      -0.1481487868902930 [Eh]
	 SCS Opposite-Spin Energy  =      -1.6158223150301616 [Eh]
	 SCS Correlation Energy    =      -1.7639711019204547 [Eh]
	 SCS Total Energy          =    -760.0242045835320823 [Eh]
	-----------------------------------------------------------

  Dipole Moment: [D]
     X:    -0.4295      Y:     3.5738      Z:     1.1005     Total:     3.7640

*** Psi4 exiting successfully. Buy a developer a beer!
