                               Psi4 1.3.2 release

  ==> Input File <==

--------------------------------------------------------------------------
#psi4
#
memory 32 gb

molecule  {
0 1
  S       -1.4679970    -1.1088850     0.1509200
  O        1.4861710    -1.4617920    -0.3475990
  N        2.0488620     0.7112420     0.1011850
  C       -0.2734750     0.1140250    -0.0519740
  C        1.1480630    -0.2971330    -0.1085980
  C       -0.8491840     1.3674970    -0.1820640
  C       -2.2598870     1.3270920    -0.0933710
  C       -2.7790205     0.0625356     0.0923849
  C        3.4678020     0.4025420     0.1643440
  H       -0.2776640     2.2711280    -0.3728590
  H        1.7182220     1.5388600     0.5795510
  H       -2.9045110     2.1962980    -0.1738640
  H       -3.7641930    -0.2736150     0.1955190
  H        3.7134240    -0.2643480    -0.6614350
  H        3.7418120    -0.0946250     1.1012270
  H        4.0344840     1.3296500     0.0646150
units angstrom
no_reorient  #important for SAPT in psi4, default
symmetry c1  #important for SAPT in psi4, default
}

set PROPERTIES_ORIGIN ["COM"]
properties('MP2/aug-cc-pvtz', properties = ['dipole'])
--------------------------------------------------------------------------

    Molecular point group: c1
  Charge       = 0
  Multiplicity = 1
  Basis Set: AUG-CC-PVTZ
    Blend: AUG-CC-PVTZ
  Basis Set: (AUG-CC-PVTZ AUX)
    Blend: AUG-CC-PVTZ-JKFIT

    Orbital Energies [Eh]
    ---------------------

    Doubly Occupied:

       1A    -91.994659     2A    -20.524565     3A    -15.591802
       4A    -11.363827     5A    -11.279757     6A    -11.279483
       7A    -11.263168     8A    -11.262308     9A    -11.253198
      10A     -8.993654    11A     -6.674443    12A     -6.673924
      13A     -6.673280    14A     -1.379075    15A     -1.234172
      16A     -1.179337    17A     -1.022217    18A     -0.995591
      19A     -0.948136    20A     -0.834792    21A     -0.777731
      22A     -0.769538    23A     -0.720936    24A     -0.647870
      25A     -0.642003    26A     -0.627388    27A     -0.584473
      28A     -0.578655    29A     -0.556685    30A     -0.553644
      31A     -0.529623    32A     -0.509483    33A     -0.478946
      34A     -0.437395    35A     -0.400932    36A     -0.355763
      37A     -0.336836

  @DF-RHF Final Energy:  -758.26619790417499

   => Energetics <=

    Nuclear Repulsion Energy =            498.8698062232799089
    One-Electron Energy =               -2030.4134294495634094
    Two-Electron Energy =                 773.2774253221084564
    Total Energy =                       -758.2661979041749873
  Basis Set: (AUG-CC-PVTZ AUX)
    Blend: AUG-CC-PVTZ-RI
    Molecular point group: c1

    Geometry (in Angstrom), charge = 0, multiplicity = 1:

       Center              X                  Y                   Z               Mass
    ------------   -----------------  -----------------  -----------------  -----------------
         S           -1.420408168697    -1.063499313858     0.156100220053    31.972071174400
         O            1.533759831303    -1.416406313858    -0.342418779947    15.994914619570
         N            2.096450831303     0.756627686142     0.106365220053    14.003074004430
         C           -0.225886168697     0.159410686142    -0.046793779947    12.000000000000
         C            1.195651831303    -0.251747313858    -0.103417779947    12.000000000000
         C           -0.801595168697     1.412882686142    -0.176883779947    12.000000000000
         C           -2.212298168697     1.372477686142    -0.088190779947    12.000000000000
         C           -2.731431668697     0.107921286142     0.097565120053    12.000000000000
         C            3.515390831303     0.447927686142     0.169524220053    12.000000000000
         H           -0.230075168697     2.316513686142    -0.367678779947     1.007825032230
         H            1.765810831303     1.584245686142     0.584731220053     1.007825032230
         H           -2.856922168697     2.241683686142    -0.168683779947     1.007825032230
         H           -3.716604168697    -0.228229313858     0.200699220053     1.007825032230
         H            3.761012831303    -0.218962313858    -0.656254779947     1.007825032230
         H            3.789400831303    -0.049239313858     1.106407220053     1.007825032230
         H            4.082072831303     1.375035686142     0.069795220053     1.007825032230

  Basis Set: AUG-CC-PVTZ
    Blend: AUG-CC-PVTZ
  Basis Set: (AUG-CC-PVTZ AUX)
    Blend: AUG-CC-PVTZ-JKFIT
	 Reference Energy          =    -758.2661979041749873 [Eh]
	 Singles Energy            =      -0.0000000000000000 [Eh]
	 Same-Spin Energy          =      -0.4431857137000272 [Eh]
	 Opposite-Spin Energy      =      -1.3481367435998566 [Eh]
	 Correlation Energy        =      -1.7913224572998838 [Eh]
	 Total Energy              =    -760.0575203614748716 [Eh]

	 ================> DF-SCS-MP2 Energies <==================
	-----------------------------------------------------------
	 SCS Same-Spin Scale       =       0.3333333333333333 [-]
	 SCS Opposite-Spin Scale   =       1.2000000000000000 [-]
	 SCS Same-Spin Energy      =      -0.1477285712333424 [Eh]
	 SCS Opposite-Spin Energy  =      -1.6177640923198278 [Eh]
	 SCS Correlation Energy    =      -1.7654926635531702 [Eh]
	 SCS Total Energy          =    -760.0316905677281056 [Eh]
	-----------------------------------------------------------

  Dipole Moment: [D]
     X:    -0.2989      Y:     3.6646      Z:     1.0757     Total:     3.8309

*** Psi4 exiting successfully. Buy a developer a beer!
