                               Psi4 1.3.2 release

  ==> Input File <==

--------------------------------------------------------------------------
#psi4
#
memory 32 gb

molecule  {
0 1
  S       -1.4679970    -1.1088850     0.1509200
  O        1.4861710    -1.4617920    -0.3475990
  N        2.0488620     0.7112420     0.1011850
  C       -0.2734750     0.1140250    -0.0519740
  C        1.1480630    -0.2971330    -0.1085980
  C       -0.8491840     1.3674970    -0.1820640
  C       -2.2825190     1.3352975    -0.0929618
  C       -2.7341550     0.0450510     0.0925010
  C        3.4678020     0.4025420     0.1643440
  H       -0.2776640     2.2711280    -0.3728590
  H        1.7182220     1.5388600     0.5795510
  H       -2.9045110     2.1962980    -0.1738640
  H       -3.7641930    -0.2736150     0.1955190
  H        3.7134240    -0.2643480    -0.6614350
  H        3.7418120    -0.0946250     1.1012270
  H        4.0344840     1.3296500     0.0646150
units angstrom
no_reorient  #important for SAPT in psi4, default
symmetry c1  #important for SAPT in psi4, default
}

set PROPERTIES_ORIGIN ["COM"]
properties('MP2/aug-cc-pvtz', properties = ['dipole'])
--------------------------------------------------------------------------

    Molecular point group: c1
  Charge       = 0
  Multiplicity = 1
  Basis Set: AUG-CC-PVTZ
    Blend: AUG-CC-PVTZ
  Basis Set: (AUG-CC-PVTZ AUX)
    Blend: AUG-CC-PVTZ-JKFIT

    Orbital Energies [Eh]
    ---------------------

    Doubly Occupied:

       1A    -91.995777     2A    -20.523785     3A    -15.590916
       4A    -11.363001     5A    -11.279552     6A    -11.277097
       7A    -11.264962     8A    -11.261772     9A    -11.251415
      10A     -8.995557    11A     -6.676414    12A     -6.675832
      13A     -6.675145    14A     -1.378405    15A     -1.233398
      16A     -1.181612    17A     -1.021171    18A     -0.998503
      19A     -0.946489    20A     -0.833279    21A     -0.773151
      22A     -0.768972    23A     -0.721492    24A     -0.646530
      25A     -0.643236    26A     -0.626090    27A     -0.582120
      28A     -0.567721    29A     -0.557611    30A     -0.552664
      31A     -0.534598    32A     -0.510810    33A     -0.486965
      34A     -0.437137    35A     -0.400425    36A     -0.355092
      37A     -0.337357

  @DF-RHF Final Energy:  -758.26830264416981

   => Energetics <=

    Nuclear Repulsion Energy =            499.4751825858671168
    One-Electron Energy =               -2031.6348631711873622
    Two-Electron Energy =                 773.8913779411504947
    Total Energy =                       -758.2683026441698075
  Basis Set: (AUG-CC-PVTZ AUX)
    Blend: AUG-CC-PVTZ-RI
    Molecular point group: c1

    Geometry (in Angstrom), charge = 0, multiplicity = 1:

       Center              X                  Y                   Z               Mass
    ------------   -----------------  -----------------  -----------------  -----------------
         S           -1.422300048237    -1.062709742291     0.156055521543    31.972071174400
         O            1.531867951763    -1.415616742291    -0.342463478457    15.994914619570
         N            2.094558951763     0.757417257709     0.106320521543    14.003074004430
         C           -0.227778048237     0.160200257709    -0.046838478457    12.000000000000
         C            1.193759951763    -0.250957742291    -0.103462478457    12.000000000000
         C           -0.803487048237     1.413672257709    -0.176928478457    12.000000000000
         C           -2.236822048237     1.381472757709    -0.087826278457    12.000000000000
         C           -2.688458048237     0.091226257709     0.097636521543    12.000000000000
         C            3.513498951763     0.448717257709     0.169479521543    12.000000000000
         H           -0.231967048237     2.317303257709    -0.367723478457     1.007825032230
         H            1.763918951763     1.585035257709     0.584686521543     1.007825032230
         H           -2.858814048237     2.242473257709    -0.168728478457     1.007825032230
         H           -3.718496048237    -0.227439742291     0.200654521543     1.007825032230
         H            3.759120951763    -0.218172742291    -0.656299478457     1.007825032230
         H            3.787508951763    -0.048449742291     1.106362521543     1.007825032230
         H            4.080180951763     1.375825257709     0.069750521543     1.007825032230

  Basis Set: AUG-CC-PVTZ
    Blend: AUG-CC-PVTZ
  Basis Set: (AUG-CC-PVTZ AUX)
    Blend: AUG-CC-PVTZ-JKFIT
	 Reference Energy          =    -758.2683026441698075 [Eh]
	 Singles Energy            =      -0.0000000000000000 [Eh]
	 Same-Spin Energy          =      -0.4430671961900056 [Eh]
	 Opposite-Spin Energy      =      -1.3475311684852156 [Eh]
	 Correlation Energy        =      -1.7905983646752213 [Eh]
	 Total Energy              =    -760.0589010088450550 [Eh]

	 ================> DF-SCS-MP2 Energies <==================
	-----------------------------------------------------------
	 SCS Same-Spin Scale       =       0.3333333333333333 [-]
	 SCS Opposite-Spin Scale   =       1.2000000000000000 [-]
	 SCS Same-Spin Energy      =      -0.1476890653966685 [Eh]
	 SCS Opposite-Spin Energy  =      -1.6170374021822587 [Eh]
	 SCS Correlation Energy    =      -1.7647264675789271 [Eh]
	 SCS Total Energy          =    -760.0330291117487604 [Eh]
	-----------------------------------------------------------

  Dipole Moment: [D]
     X:    -0.3153      Y:     3.6219      Z:     1.0800     Total:     3.7927

*** Psi4 exiting successfully. Buy a developer a beer!
