                               Psi4 1.3.2 release

  ==> Input File <==

--------------------------------------------------------------------------
#psi4
#
memory 32 gb

molecule  {
0 1
  S       -1.5513327    -1.1933453     0.1662800
  O        1.4861710    -1.4617920    -0.3475990
  N        2.0488620     0.7112420     0.1011850
  C       -0.2734750     0.1140250    -0.0519740
  C        1.1480630    -0.2971330    -0.1085980
  C       -0.8491840     1.3674970    -0.1820640
  C       -2.2598870     1.3270920    -0.0933710
  C       -2.7341550     0.0450510     0.0925010
  C        3.4678020     0.4025420     0.1643440
  H       -0.2776640     2.2711280    -0.3728590
  H        1.7182220     1.5388600     0.5795510
  H       -2.9045110     2.1962980    -0.1738640
  H       -3.7641930    -0.2736150     0.1955190
  H        3.7134240    -0.2643480    -0.6614350
  H        3.7418120    -0.0946250     1.1012270
  H        4.0344840     1.3296500     0.0646150
units angstrom
no_reorient  #important for SAPT in psi4, default
symmetry c1  #important for SAPT in psi4, default
}

set PROPERTIES_ORIGIN ["COM"]
properties('MP2/aug-cc-pvtz', properties = ['dipole'])
--------------------------------------------------------------------------

    Molecular point group: c1
  Charge       = 0
  Multiplicity = 1
  Basis Set: AUG-CC-PVTZ
    Blend: AUG-CC-PVTZ
  Basis Set: (AUG-CC-PVTZ AUX)
    Blend: AUG-CC-PVTZ-JKFIT

    Orbital Energies [Eh]
    ---------------------

    Doubly Occupied:

       1A    -91.999528     2A    -20.521542     3A    -15.590043
       4A    -11.361220     5A    -11.285284     6A    -11.282867
       7A    -11.269029     8A    -11.261210     9A    -11.251256
      10A     -8.997206    11A     -6.678033    12A     -6.677182
      13A     -6.676712    14A     -1.375907    15A     -1.232291
      16A     -1.171707    17A     -1.019412    18A     -0.996882
      19A     -0.942707    20A     -0.833709    21A     -0.770293
      22A     -0.765528    23A     -0.724129    24A     -0.643984
      25A     -0.639468    26A     -0.623341    27A     -0.579568
      28A     -0.575616    29A     -0.551960    30A     -0.551219
      31A     -0.520391    32A     -0.507855    33A     -0.486806
      34A     -0.434994    35A     -0.399452    36A     -0.363729
      37A     -0.330378

  @DF-RHF Final Energy:  -758.26016743952493

   => Energetics <=

    Nuclear Repulsion Energy =            494.8078070499391288
    One-Electron Energy =               -2022.3510748079497716
    Two-Electron Energy =                 769.2831003184857082
    Total Energy =                       -758.2601674395249347
  Basis Set: (AUG-CC-PVTZ AUX)
    Blend: AUG-CC-PVTZ-RI
    Molecular point group: c1

    Geometry (in Angstrom), charge = 0, multiplicity = 1:

       Center              X                  Y                   Z               Mass
    ------------   -----------------  -----------------  -----------------  -----------------
         S           -1.488668304656    -1.127323632100     0.167968039310    31.972071174400
         O            1.548835395344    -1.395770332100    -0.345910960690    15.994914619570
         N            2.111526395344     0.777263667900     0.102873039310    14.003074004430
         C           -0.210810604656     0.180046667900    -0.050285960690    12.000000000000
         C            1.210727395344    -0.231111332100    -0.106909960690    12.000000000000
         C           -0.786519604656     1.433518667900    -0.180375960690    12.000000000000
         C           -2.197222604656     1.393113667900    -0.091682960690    12.000000000000
         C           -2.671490604656     0.111072667900     0.094189039310    12.000000000000
         C            3.530466395344     0.468563667900     0.166032039310    12.000000000000
         H           -0.214999604656     2.337149667900    -0.371170960690     1.007825032230
         H            1.780886395344     1.604881667900     0.581239039310     1.007825032230
         H           -2.841846604656     2.262319667900    -0.172175960690     1.007825032230
         H           -3.701528604656    -0.207593332100     0.197207039310     1.007825032230
         H            3.776088395344    -0.198326332100    -0.659746960690     1.007825032230
         H            3.804476395344    -0.028603332100     1.102915039310     1.007825032230
         H            4.097148395344     1.395671667900     0.066303039310     1.007825032230

  Basis Set: AUG-CC-PVTZ
    Blend: AUG-CC-PVTZ
  Basis Set: (AUG-CC-PVTZ AUX)
    Blend: AUG-CC-PVTZ-JKFIT
	 Reference Energy          =    -758.2601674395249347 [Eh]
	 Singles Energy            =      -0.0000000000000000 [Eh]
	 Same-Spin Energy          =      -0.4424576029479553 [Eh]
	 Opposite-Spin Energy      =      -1.3487748511861630 [Eh]
	 Correlation Energy        =      -1.7912324541341182 [Eh]
	 Total Energy              =    -760.0513998936590951 [Eh]

	 ================> DF-SCS-MP2 Energies <==================
	-----------------------------------------------------------
	 SCS Same-Spin Scale       =       0.3333333333333333 [-]
	 SCS Opposite-Spin Scale   =       1.2000000000000000 [-]
	 SCS Same-Spin Energy      =      -0.1474858676493184 [Eh]
	 SCS Opposite-Spin Energy  =      -1.6185298214233956 [Eh]
	 SCS Correlation Energy    =      -1.7660156890727141 [Eh]
	 SCS Total Energy          =    -760.0261831285976086 [Eh]
	-----------------------------------------------------------

  Dipole Moment: [D]
     X:    -0.3416      Y:     3.6759      Z:     1.0740     Total:     3.8448

*** Psi4 exiting successfully. Buy a developer a beer!
