                               Psi4 1.3.2 release

  ==> Input File <==

--------------------------------------------------------------------------
#psi4
#
memory 32 gb

molecule  {
0 1
  S       -1.4679970    -1.1088850     0.1509200
  O        1.4861710    -1.4617920    -0.3475990
  N        2.0488620     0.7112420     0.1011850
  C       -0.2734750     0.1140250    -0.0519740
  C        0.9560784    -0.2416044    -0.1009507
  C       -0.8491840     1.3674970    -0.1820640
  C       -2.2598870     1.3270920    -0.0933710
  C       -2.7341550     0.0450510     0.0925010
  C        3.4678020     0.4025420     0.1643440
  H       -0.2776640     2.2711280    -0.3728590
  H        1.7182220     1.5388600     0.5795510
  H       -2.9045110     2.1962980    -0.1738640
  H       -3.7641930    -0.2736150     0.1955190
  H        3.7134240    -0.2643480    -0.6614350
  H        3.7418120    -0.0946250     1.1012270
  H        4.0344840     1.3296500     0.0646150
units angstrom
no_reorient  #important for SAPT in psi4, default
symmetry c1  #important for SAPT in psi4, default
}

set PROPERTIES_ORIGIN ["COM"]
properties('MP2/aug-cc-pvtz', properties = ['dipole'])
--------------------------------------------------------------------------

    Molecular point group: c1
  Charge       = 0
  Multiplicity = 1
  Basis Set: AUG-CC-PVTZ
    Blend: AUG-CC-PVTZ
  Basis Set: (AUG-CC-PVTZ AUX)
    Blend: AUG-CC-PVTZ-JKFIT

    Orbital Energies [Eh]
    ---------------------

    Doubly Occupied:

       1A    -92.012430     2A    -20.502712     3A    -15.576790
       4A    -11.356949     5A    -11.303412     6A    -11.289068
       7A    -11.270339     8A    -11.266010     9A    -11.250875
      10A     -9.011962    11A     -6.692697    12A     -6.692072
      13A     -6.691401    14A     -1.308819    15A     -1.206615
      16A     -1.182638    17A     -1.066560    18A     -1.018919
      19A     -0.934189    20A     -0.873146    21A     -0.790873
      22A     -0.741118    23A     -0.725464    24A     -0.643234
      25A     -0.626432    26A     -0.608502    27A     -0.591175
      28A     -0.572609    29A     -0.567961    30A     -0.552992
      31A     -0.516257    32A     -0.497126    33A     -0.484812
      34A     -0.414108    35A     -0.376157    36A     -0.367076
      37A     -0.348092

  @DF-RHF Final Energy:  -758.19538082541396

   => Energetics <=

    Nuclear Repulsion Energy =            500.7823067937403607
    One-Electron Energy =               -2034.0921938649685217
    Two-Electron Energy =                 775.1145062458141410
    Total Energy =                       -758.1953808254139631
  Basis Set: (AUG-CC-PVTZ AUX)
    Blend: AUG-CC-PVTZ-RI
    Molecular point group: c1

    Geometry (in Angstrom), charge = 0, multiplicity = 1:

       Center              X                  Y                   Z               Mass
    ------------   -----------------  -----------------  -----------------  -----------------
         S           -1.407889599186    -1.066736530905     0.155439621514    31.972071174400
         O            1.546278400814    -1.419643530905    -0.343079378486    15.994914619570
         N            2.108969400814     0.753390469095     0.105704621514    14.003074004430
         C           -0.213367599186     0.156173469095    -0.047454378486    12.000000000000
         C            1.016185800814    -0.199455930905    -0.096431078486    12.000000000000
         C           -0.789076599186     1.409645469095    -0.177544378486    12.000000000000
         C           -2.199779599186     1.369240469095    -0.088851378486    12.000000000000
         C           -2.674047599186     0.087199469095     0.097020621514    12.000000000000
         C            3.527909400814     0.444690469095     0.168863621514    12.000000000000
         H           -0.217556599186     2.313276469095    -0.368339378486     1.007825032230
         H            1.778329400814     1.581008469095     0.584070621514     1.007825032230
         H           -2.844403599186     2.238446469095    -0.169344378486     1.007825032230
         H           -3.704085599186    -0.231466530905     0.200038621514     1.007825032230
         H            3.773531400814    -0.222199530905    -0.656915378486     1.007825032230
         H            3.801919400814    -0.052476530905     1.105746621514     1.007825032230
         H            4.094591400814     1.371798469095     0.069134621514     1.007825032230

  Basis Set: AUG-CC-PVTZ
    Blend: AUG-CC-PVTZ
  Basis Set: (AUG-CC-PVTZ AUX)
    Blend: AUG-CC-PVTZ-JKFIT
	 Reference Energy          =    -758.1953808254139631 [Eh]
	 Singles Energy            =      -0.0000000000000000 [Eh]
	 Same-Spin Energy          =      -0.4494403434040953 [Eh]
	 Opposite-Spin Energy      =      -1.3585218448248293 [Eh]
	 Correlation Energy        =      -1.8079621882289247 [Eh]
	 Total Energy              =    -760.0033430136428478 [Eh]

	 ================> DF-SCS-MP2 Energies <==================
	-----------------------------------------------------------
	 SCS Same-Spin Scale       =       0.3333333333333333 [-]
	 SCS Opposite-Spin Scale   =       1.2000000000000000 [-]
	 SCS Same-Spin Energy      =      -0.1498134478013651 [Eh]
	 SCS Opposite-Spin Energy  =      -1.6302262137897952 [Eh]
	 SCS Correlation Energy    =      -1.7800396615911602 [Eh]
	 SCS Total Energy          =    -759.9754204870050671 [Eh]
	-----------------------------------------------------------

  Dipole Moment: [D]
     X:    -1.9216      Y:     3.7902      Z:     1.0988     Total:     4.3892

*** Psi4 exiting successfully. Buy a developer a beer!
