                               Psi4 1.3.2 release

  ==> Input File <==

--------------------------------------------------------------------------
#psi4
#
memory 32 gb

molecule  {
0 1
  S       -1.4679970    -1.1088850     0.1509200
  O        1.4861710    -1.4617920    -0.3475990
  N        2.0488620     0.7112420     0.1011850
  C       -0.2734750     0.1140250    -0.0519740
  C        1.1480630    -0.2971330    -0.1085980
  C       -0.8491840     1.3674970    -0.1820640
  C       -2.3052885     1.3431100    -0.0924962
  C       -2.7341550     0.0450510     0.0925010
  C        3.4678020     0.4025420     0.1643440
  H       -0.2776640     2.2711280    -0.3728590
  H        1.7182220     1.5388600     0.5795510
  H       -2.9045110     2.1962980    -0.1738640
  H       -3.7641930    -0.2736150     0.1955190
  H        3.7134240    -0.2643480    -0.6614350
  H        3.7418120    -0.0946250     1.1012270
  H        4.0344840     1.3296500     0.0646150
units angstrom
no_reorient  #important for SAPT in psi4, default
symmetry c1  #important for SAPT in psi4, default
}

set PROPERTIES_ORIGIN ["COM"]
properties('MP2/aug-cc-pvtz', properties = ['dipole'])
--------------------------------------------------------------------------

    Molecular point group: c1
  Charge       = 0
  Multiplicity = 1
  Basis Set: AUG-CC-PVTZ
    Blend: AUG-CC-PVTZ
  Basis Set: (AUG-CC-PVTZ AUX)
    Blend: AUG-CC-PVTZ-JKFIT

    Orbital Energies [Eh]
    ---------------------

    Doubly Occupied:

       1A    -91.995414     2A    -20.524157     3A    -15.591011
       4A    -11.363329     5A    -11.279980     6A    -11.277410
       7A    -11.267083     8A    -11.261842     9A    -11.252005
      10A     -8.995242    11A     -6.676121    12A     -6.675509
      13A     -6.674809    14A     -1.378696    15A     -1.233499
      16A     -1.179190    17A     -1.021840    18A     -0.996322
      19A     -0.946697    20A     -0.833517    21A     -0.775565
      22A     -0.768603    23A     -0.721112    24A     -0.646993
      25A     -0.644573    26A     -0.626256    27A     -0.584782
      28A     -0.562444    29A     -0.557525    30A     -0.552097
      31A     -0.535636    32A     -0.510081    33A     -0.487547
      34A     -0.437484    35A     -0.400526    36A     -0.353282
      37A     -0.338812

  @DF-RHF Final Energy:  -758.26652806918401

   => Energetics <=

    Nuclear Repulsion Energy =            499.0226168329093070
    One-Electron Energy =               -2030.7243091360558083
    Two-Electron Energy =                 773.4351642339624959
    Total Energy =                       -758.2665280691840053
  Basis Set: (AUG-CC-PVTZ AUX)
    Blend: AUG-CC-PVTZ-RI
    Molecular point group: c1

    Geometry (in Angstrom), charge = 0, multiplicity = 1:

       Center              X                  Y                   Z               Mass
    ------------   -----------------  -----------------  -----------------  -----------------
         S           -1.420362559709    -1.063374518818     0.156015902990    31.972071174400
         O            1.533805440291    -1.416281518818    -0.342503097010    15.994914619570
         N            2.096496440291     0.756752481182     0.106280902990    14.003074004430
         C           -0.225840559709     0.159535481182    -0.046878097010    12.000000000000
         C            1.195697440291    -0.251622518818    -0.103502097010    12.000000000000
         C           -0.801549559709     1.413007481182    -0.176968097010    12.000000000000
         C           -2.257654059709     1.388620481182    -0.087400297010    12.000000000000
         C           -2.686520559709     0.090561481182     0.097596902990    12.000000000000
         C            3.515436440291     0.448052481182     0.169439902990    12.000000000000
         H           -0.230029559709     2.316638481182    -0.367763097010     1.007825032230
         H            1.765856440291     1.584370481182     0.584646902990     1.007825032230
         H           -2.856876559709     2.241808481182    -0.168768097010     1.007825032230
         H           -3.716558559709    -0.228104518818     0.200614902990     1.007825032230
         H            3.761058440291    -0.218837518818    -0.656339097010     1.007825032230
         H            3.789446440291    -0.049114518818     1.106322902990     1.007825032230
         H            4.082118440291     1.375160481182     0.069710902990     1.007825032230

  Basis Set: AUG-CC-PVTZ
    Blend: AUG-CC-PVTZ
  Basis Set: (AUG-CC-PVTZ AUX)
    Blend: AUG-CC-PVTZ-JKFIT
	 Reference Energy          =    -758.2665280691840053 [Eh]
	 Singles Energy            =      -0.0000000000000000 [Eh]
	 Same-Spin Energy          =      -0.4426776319037611 [Eh]
	 Opposite-Spin Energy      =      -1.3473881366089928 [Eh]
	 Correlation Energy        =      -1.7900657685127539 [Eh]
	 Total Energy              =    -760.0565938376967097 [Eh]

	 ================> DF-SCS-MP2 Energies <==================
	-----------------------------------------------------------
	 SCS Same-Spin Scale       =       0.3333333333333333 [-]
	 SCS Opposite-Spin Scale   =       1.2000000000000000 [-]
	 SCS Same-Spin Energy      =      -0.1475592106345870 [Eh]
	 SCS Opposite-Spin Energy  =      -1.6168657639307913 [Eh]
	 SCS Correlation Energy    =      -1.7644249745653784 [Eh]
	 SCS Total Energy          =    -760.0309530437493777 [Eh]
	-----------------------------------------------------------

  Dipole Moment: [D]
     X:    -0.3001      Y:     3.6271      Z:     1.0781     Total:     3.7958

*** Psi4 exiting successfully. Buy a developer a beer!
