                               Psi4 1.3.2 release

  ==> Input File <==

--------------------------------------------------------------------------
#psi4
#
memory 32 gb

molecule  {
0 1
  S       -1.4679970    -1.1088850     0.1509200
  O        1.4861710    -1.4617920    -0.3475990
  N        2.0488620     0.7112420     0.1011850
  C       -0.1901668     0.0275801    -0.0469560
  C        1.1480630    -0.2971330    -0.1085980
  C       -0.8491840     1.3674970    -0.1820640
  C       -2.2598870     1.3270920    -0.0933710
  C       -2.7341550     0.0450510     0.0925010
  C        3.4678020     0.4025420     0.1643440
  H       -0.2776640     2.2711280    -0.3728590
  H        1.7182220     1.5388600     0.5795510
  H       -2.9045110     2.1962980    -0.1738640
  H       -3.7641930    -0.2736150     0.1955190
  H        3.7134240    -0.2643480    -0.6614350
  H        3.7418120    -0.0946250     1.1012270
  H        4.0344840     1.3296500     0.0646150
units angstrom
no_reorient  #important for SAPT in psi4, default
symmetry c1  #important for SAPT in psi4, default
}

set PROPERTIES_ORIGIN ["COM"]
properties('MP2/aug-cc-pvtz', properties = ['dipole'])
--------------------------------------------------------------------------

    Molecular point group: c1
  Charge       = 0
  Multiplicity = 1
  Basis Set: AUG-CC-PVTZ
    Blend: AUG-CC-PVTZ
  Basis Set: (AUG-CC-PVTZ AUX)
    Blend: AUG-CC-PVTZ-JKFIT

    Orbital Energies [Eh]
    ---------------------

    Doubly Occupied:

       1A    -92.004201     2A    -20.514295     3A    -15.586658
       4A    -11.349793     5A    -11.287192     6A    -11.279736
       7A    -11.278799     8A    -11.259284     9A    -11.256419
      10A     -9.003089    11A     -6.683846    12A     -6.683464
      13A     -6.682849    14A     -1.376352    15A     -1.229865
      16A     -1.176850    17A     -1.033114    18A     -0.998669
      19A     -0.941165    20A     -0.851925    21A     -0.771340
      22A     -0.766072    23A     -0.715541    24A     -0.647555
      25A     -0.641836    26A     -0.626115    27A     -0.581835
      28A     -0.576480    29A     -0.558653    30A     -0.551478
      31A     -0.534835    32A     -0.507654    33A     -0.476255
      34A     -0.434846    35A     -0.396811    36A     -0.359116
      37A     -0.327268

  @DF-RHF Final Energy:  -758.24543048353098

   => Energetics <=

    Nuclear Repulsion Energy =            500.0407576133576413
    One-Electron Energy =               -2032.6698627543846669
    Two-Electron Energy =                 774.3836746574961580
    Total Energy =                       -758.2454304835309813
  Basis Set: (AUG-CC-PVTZ AUX)
    Blend: AUG-CC-PVTZ-RI
    Molecular point group: c1

    Geometry (in Angstrom), charge = 0, multiplicity = 1:

       Center              X                  Y                   Z               Mass
    ------------   -----------------  -----------------  -----------------  -----------------
         S           -1.431314647685    -1.054655807679     0.155663352320    31.972071174400
         O            1.522853352315    -1.407562807679    -0.342855647680    15.994914619570
         N            2.085544352315     0.765471192321     0.105928352320    14.003074004430
         C           -0.153484447685     0.081809292321    -0.042212647680    12.000000000000
         C            1.184745352315    -0.242903807679    -0.103854647680    12.000000000000
         C           -0.812501647685     1.421726192321    -0.177320647680    12.000000000000
         C           -2.223204647685     1.381321192321    -0.088627647680    12.000000000000
         C           -2.697472647685     0.099280192321     0.097244352320    12.000000000000
         C            3.504484352315     0.456771192321     0.169087352320    12.000000000000
         H           -0.240981647685     2.325357192321    -0.368115647680     1.007825032230
         H            1.754904352315     1.593089192321     0.584294352320     1.007825032230
         H           -2.867828647685     2.250527192321    -0.169120647680     1.007825032230
         H           -3.727510647685    -0.219385807679     0.200262352320     1.007825032230
         H            3.750106352315    -0.210118807679    -0.656691647680     1.007825032230
         H            3.778494352315    -0.040395807679     1.105970352320     1.007825032230
         H            4.071166352315     1.383879192321     0.069358352320     1.007825032230

  Basis Set: AUG-CC-PVTZ
    Blend: AUG-CC-PVTZ
  Basis Set: (AUG-CC-PVTZ AUX)
    Blend: AUG-CC-PVTZ-JKFIT
	 Reference Energy          =    -758.2454304835309813 [Eh]
	 Singles Energy            =      -0.0000000000000000 [Eh]
	 Same-Spin Energy          =      -0.4462460083555178 [Eh]
	 Opposite-Spin Energy      =      -1.3515136084051735 [Eh]
	 Correlation Energy        =      -1.7977596167606913 [Eh]
	 Total Energy              =    -760.0431901002916675 [Eh]

	 ================> DF-SCS-MP2 Energies <==================
	-----------------------------------------------------------
	 SCS Same-Spin Scale       =       0.3333333333333333 [-]
	 SCS Opposite-Spin Scale   =       1.2000000000000000 [-]
	 SCS Same-Spin Energy      =      -0.1487486694518392 [Eh]
	 SCS Opposite-Spin Energy  =      -1.6218163300862083 [Eh]
	 SCS Correlation Energy    =      -1.7705649995380475 [Eh]
	 SCS Total Energy          =    -760.0159954830689912 [Eh]
	-----------------------------------------------------------

  Dipole Moment: [D]
     X:    -0.6815      Y:     3.6426      Z:     1.1025     Total:     3.8663

*** Psi4 exiting successfully. Buy a developer a beer!
