                               Psi4 1.3.2 release

  ==> Input File <==

--------------------------------------------------------------------------
#psi4
#
memory 32 gb

molecule  {
0 1
  S       -1.4679970    -1.1088850     0.1509200
  O        1.4861710    -1.4617920    -0.3475990
  N        2.0488620     0.7112420     0.1011850
  C       -0.2734750     0.1140250    -0.0519740
  C        1.1480630    -0.2971330    -0.1085980
  C       -0.8623399     1.5136746    -0.2012176
  C       -2.2598870     1.3270920    -0.0933710
  C       -2.7341550     0.0450510     0.0925010
  C        3.4678020     0.4025420     0.1643440
  H       -0.2776640     2.2711280    -0.3728590
  H        1.7182220     1.5388600     0.5795510
  H       -2.9045110     2.1962980    -0.1738640
  H       -3.7641930    -0.2736150     0.1955190
  H        3.7134240    -0.2643480    -0.6614350
  H        3.7418120    -0.0946250     1.1012270
  H        4.0344840     1.3296500     0.0646150
units angstrom
no_reorient  #important for SAPT in psi4, default
symmetry c1  #important for SAPT in psi4, default
}

set PROPERTIES_ORIGIN ["COM"]
properties('MP2/aug-cc-pvtz', properties = ['dipole'])
--------------------------------------------------------------------------

    Molecular point group: c1
  Charge       = 0
  Multiplicity = 1
  Basis Set: AUG-CC-PVTZ
    Blend: AUG-CC-PVTZ
  Basis Set: (AUG-CC-PVTZ AUX)
    Blend: AUG-CC-PVTZ-JKFIT

    Orbital Energies [Eh]
    ---------------------

    Doubly Occupied:

       1A    -92.006183     2A    -20.521309     3A    -15.589687
       4A    -11.360440     5A    -11.290547     6A    -11.278961
       7A    -11.268873     8A    -11.260945     9A    -11.255680
      10A     -9.004957    11A     -6.685736    12A     -6.685150
      13A     -6.684667    14A     -1.376313    15A     -1.231634
      16A     -1.171272    17A     -1.013977    18A     -1.006665
      19A     -0.942134    20A     -0.837766    21A     -0.780672
      22A     -0.767513    23A     -0.720482    24A     -0.645219
      25A     -0.635291    26A     -0.623315    27A     -0.607778
      28A     -0.564639    29A     -0.551752    30A     -0.551324
      31A     -0.524559    32A     -0.508184    33A     -0.490608
      34A     -0.433068    35A     -0.399332    36A     -0.360245
      37A     -0.321295

  @DF-RHF Final Energy:  -758.23403209755725

   => Energetics <=

    Nuclear Repulsion Energy =            497.0514104037632137
    One-Electron Energy =               -2026.6545390516052976
    Two-Electron Energy =                 771.3690965502848940
    Total Energy =                       -758.2340320975572467
  Basis Set: (AUG-CC-PVTZ AUX)
    Blend: AUG-CC-PVTZ-RI
    Molecular point group: c1

    Geometry (in Angstrom), charge = 0, multiplicity = 1:

       Center              X                  Y                   Z               Mass
    ------------   -----------------  -----------------  -----------------  -----------------
         S           -1.423106382809    -1.074449980808     0.157720147493    31.972071174400
         O            1.531061617191    -1.427356980808    -0.340798852507    15.994914619570
         N            2.093752617191     0.745677019192     0.107985147493    14.003074004430
         C           -0.228584382809     0.148460019192    -0.045173852507    12.000000000000
         C            1.192953617191    -0.262697980808    -0.101797852507    12.000000000000
         C           -0.817449282809     1.548109619192    -0.194417452507    12.000000000000
         C           -2.214996382809     1.361527019192    -0.086570852507    12.000000000000
         C           -2.689264382809     0.079486019192     0.099301147493    12.000000000000
         C            3.512692617191     0.436977019192     0.171144147493    12.000000000000
         H           -0.232773382809     2.305563019192    -0.366058852507     1.007825032230
         H            1.763112617191     1.573295019192     0.586351147493     1.007825032230
         H           -2.859620382809     2.230733019192    -0.167063852507     1.007825032230
         H           -3.719302382809    -0.239179980808     0.202319147493     1.007825032230
         H            3.758314617191    -0.229912980808    -0.654634852507     1.007825032230
         H            3.786702617191    -0.060189980808     1.108027147493     1.007825032230
         H            4.079374617191     1.364085019192     0.071415147493     1.007825032230

  Basis Set: AUG-CC-PVTZ
    Blend: AUG-CC-PVTZ
  Basis Set: (AUG-CC-PVTZ AUX)
    Blend: AUG-CC-PVTZ-JKFIT
	 Reference Energy          =    -758.2340320975572467 [Eh]
	 Singles Energy            =      -0.0000000000000000 [Eh]
	 Same-Spin Energy          =      -0.4463064113207839 [Eh]
	 Opposite-Spin Energy      =      -1.3525561142701301 [Eh]
	 Correlation Energy        =      -1.7988625255909141 [Eh]
	 Total Energy              =    -760.0328946231481950 [Eh]

	 ================> DF-SCS-MP2 Energies <==================
	-----------------------------------------------------------
	 SCS Same-Spin Scale       =       0.3333333333333333 [-]
	 SCS Opposite-Spin Scale   =       1.2000000000000000 [-]
	 SCS Same-Spin Energy      =      -0.1487688037735946 [Eh]
	 SCS Opposite-Spin Energy  =      -1.6230673371241562 [Eh]
	 SCS Correlation Energy    =      -1.7718361408977508 [Eh]
	 SCS Total Energy          =    -760.0058682384550366 [Eh]
	-----------------------------------------------------------

  Dipole Moment: [D]
     X:    -0.4225      Y:     3.4621      Z:     1.0977     Total:     3.6564

*** Psi4 exiting successfully. Buy a developer a beer!
