                               Psi4 1.3.2 release

  ==> Input File <==

--------------------------------------------------------------------------
#psi4
#
memory 32 gb

molecule  {
0 1
  S       -1.4679970    -1.1088850     0.1509200
  O        1.4861710    -1.4617920    -0.3475990
  N        2.0488620     0.7112420     0.1011850
  C       -0.2734750     0.1140250    -0.0519740
  C        1.1480630    -0.2971330    -0.1085980
  C       -0.8491840     1.3674970    -0.1820640
  C       -2.2598870     1.3270920    -0.0933710
  C       -2.5864205    -0.0895895     0.0993173
  C        3.4678020     0.4025420     0.1643440
  H       -0.2776640     2.2711280    -0.3728590
  H        1.7182220     1.5388600     0.5795510
  H       -2.9045110     2.1962980    -0.1738640
  H       -3.7641930    -0.2736150     0.1955190
  H        3.7134240    -0.2643480    -0.6614350
  H        3.7418120    -0.0946250     1.1012270
  H        4.0344840     1.3296500     0.0646150
units angstrom
no_reorient  #important for SAPT in psi4, default
symmetry c1  #important for SAPT in psi4, default
}

set PROPERTIES_ORIGIN ["COM"]
properties('MP2/aug-cc-pvtz', properties = ['dipole'])
--------------------------------------------------------------------------

    Molecular point group: c1
  Charge       = 0
  Multiplicity = 1
  Basis Set: AUG-CC-PVTZ
    Blend: AUG-CC-PVTZ
  Basis Set: (AUG-CC-PVTZ AUX)
    Blend: AUG-CC-PVTZ-JKFIT

    Orbital Energies [Eh]
    ---------------------

    Doubly Occupied:

       1A    -92.004093     2A    -20.517030     3A    -15.586288
       4A    -11.357252     5A    -11.283409     6A    -11.264021
       7A    -11.261346     8A    -11.258865     9A    -11.251923
      10A     -9.009314    11A     -6.690933    12A     -6.688987
      13A     -6.688564    14A     -1.373043    15A     -1.229418
      16A     -1.209057    17A     -1.037158    18A     -1.001179
      19A     -0.936424    20A     -0.822246    21A     -0.770937
      22A     -0.755209    23A     -0.725489    24A     -0.640599
      25A     -0.637395    26A     -0.620920    27A     -0.575897
      28A     -0.566788    29A     -0.561544    30A     -0.548379
      31A     -0.538438    32A     -0.519146    33A     -0.488667
      34A     -0.431404    35A     -0.397627    36A     -0.372095
      37A     -0.317846

  @DF-RHF Final Energy:  -758.22015623969128

   => Energetics <=

    Nuclear Repulsion Energy =            503.9302659326632465
    One-Electron Energy =               -2040.4229911978904966
    Two-Electron Energy =                 778.2725690255360860
    Total Energy =                       -758.2201562396912777
  Basis Set: (AUG-CC-PVTZ AUX)
    Blend: AUG-CC-PVTZ-RI
    Molecular point group: c1

    Geometry (in Angstrom), charge = 0, multiplicity = 1:

       Center              X                  Y                   Z               Mass
    ------------   -----------------  -----------------  -----------------  -----------------
         S           -1.436796771453    -1.050554776822     0.155510332464    31.972071174400
         O            1.517371228547    -1.403461776822    -0.343008667536    15.994914619570
         N            2.080062228547     0.769572223178     0.105775332464    14.003074004430
         C           -0.242274771453     0.172355223178    -0.047383667536    12.000000000000
         C            1.179263228547    -0.238802776822    -0.104007667536    12.000000000000
         C           -0.817983771453     1.425827223178    -0.177473667536    12.000000000000
         C           -2.228686771453     1.385422223178    -0.088780667536    12.000000000000
         C           -2.555220271453    -0.031259276822     0.103907632464    12.000000000000
         C            3.499002228547     0.460872223178     0.168934332464    12.000000000000
         H           -0.246463771453     2.329458223178    -0.368268667536     1.007825032230
         H            1.749422228547     1.597190223178     0.584141332464     1.007825032230
         H           -2.873310771453     2.254628223178    -0.169273667536     1.007825032230
         H           -3.732992771453    -0.215284776822     0.200109332464     1.007825032230
         H            3.744624228547    -0.206017776822    -0.656844667536     1.007825032230
         H            3.773012228547    -0.036294776822     1.105817332464     1.007825032230
         H            4.065684228547     1.387980223178     0.069205332464     1.007825032230

  Basis Set: AUG-CC-PVTZ
    Blend: AUG-CC-PVTZ
  Basis Set: (AUG-CC-PVTZ AUX)
    Blend: AUG-CC-PVTZ-JKFIT
	 Reference Energy          =    -758.2201562396912777 [Eh]
	 Singles Energy            =      -0.0000000000000000 [Eh]
	 Same-Spin Energy          =      -0.4469118095349814 [Eh]
	 Opposite-Spin Energy      =      -1.3498738063849496 [Eh]
	 Correlation Energy        =      -1.7967856159199309 [Eh]
	 Total Energy              =    -760.0169418556112078 [Eh]

	 ================> DF-SCS-MP2 Energies <==================
	-----------------------------------------------------------
	 SCS Same-Spin Scale       =       0.3333333333333333 [-]
	 SCS Opposite-Spin Scale   =       1.2000000000000000 [-]
	 SCS Same-Spin Energy      =      -0.1489706031783271 [Eh]
	 SCS Opposite-Spin Energy  =      -1.6198485676619394 [Eh]
	 SCS Correlation Energy    =      -1.7688191708402665 [Eh]
	 SCS Total Energy          =    -759.9889754105315660 [Eh]
	-----------------------------------------------------------

  Dipole Moment: [D]
     X:    -0.5046      Y:     3.4170      Z:     1.1124     Total:     3.6288

*** Psi4 exiting successfully. Buy a developer a beer!
