                               Psi4 1.4a3.dev225

  ==> Input File <==

--------------------------------------------------------------------------
#psi4
#
memory 32 gb

molecule  {
0 1
  S       -1.4679970    -1.1088850     0.1509200
  O        1.4861710    -1.4617920    -0.3475990
  N        2.0488620     0.7112420     0.1011850
  C       -0.2734750     0.1140250    -0.0519740
  C        1.1480630    -0.2971330    -0.1085980
  C       -0.8491840     1.3674970    -0.1820640
  C       -2.2399346     1.3276635    -0.0946254
  C       -2.7341550     0.0450510     0.0925010
  C        3.4678020     0.4025420     0.1643440
  H       -0.2776640     2.2711280    -0.3728590
  H        1.7182220     1.5388600     0.5795510
  H       -2.9045110     2.1962980    -0.1738640
  H       -3.7641930    -0.2736150     0.1955190
  H        3.7134240    -0.2643480    -0.6614350
  H        3.7418120    -0.0946250     1.1012270
  H        4.0344840     1.3296500     0.0646150
units angstrom
no_reorient  #important for SAPT in psi4, default
symmetry c1  #important for SAPT in psi4, default
}

set PROPERTIES_ORIGIN ["COM"]
properties('MP2/aug-cc-pvtz', properties = ['dipole'])
--------------------------------------------------------------------------

    Molecular point group: c1
  Charge       = 0
  Multiplicity = 1
  Basis Set: AUG-CC-PVTZ
    Blend: AUG-CC-PVTZ
  Basis Set: (AUG-CC-PVTZ AUX)
    Blend: AUG-CC-PVTZ-JKFIT

    Orbital Energies [Eh]
    ---------------------

    Doubly Occupied:

       1A    -91.997187     2A    -20.522969     3A    -15.590646
       4A    -11.362333     5A    -11.280060     6A    -11.276363
       7A    -11.261584     8A    -11.260788     9A    -11.250721
      10A     -8.996812    11A     -6.677621    12A     -6.677095
      13A     -6.676443    14A     -1.377775    15A     -1.233134
      16A     -1.185840    17A     -1.019227    18A     -1.003677
      19A     -0.945649    20A     -0.832601    21A     -0.770756
      22A     -0.768966    23A     -0.722339    24A     -0.646097
      25A     -0.640900    26A     -0.625674    27A     -0.577895
      28A     -0.576854    29A     -0.557819    30A     -0.552904
      31A     -0.532053    32A     -0.511816    33A     -0.485984
      34A     -0.436381    35A     -0.400190    36A     -0.359029
      37A     -0.333718

  @DF-RHF Final Energy:  -758.26735772027837

   => Energetics <=

    Nuclear Repulsion Energy =            500.2135801558510479
    One-Electron Energy =               -2033.1060791589975452
    Two-Electron Energy =                 774.6251412828680714
    Total Energy =                       -758.2673577202783690
  Basis Set: (AUG-CC-PVTZ AUX)
    Blend: AUG-CC-PVTZ-RI
    Molecular point group: c1

    Geometry (in Angstrom), charge = 0, multiplicity = 1:

       Center              X                  Y                   Z               Mass
    ------------   -----------------  -----------------  -----------------  -----------------
         S           -1.425923614256    -1.062060154579     0.156197079589    31.972071174400
         O            1.528244385744    -1.414967154579    -0.342321920411    15.994914619570
         N            2.090935385744     0.758066845421     0.106462079589    14.003074004430
         C           -0.231401614256     0.160849845421    -0.046696920411    12.000000000000
         C            1.190136385744    -0.250308154579    -0.103320920411    12.000000000000
         C           -0.807110614256     1.414321845421    -0.176786920411    12.000000000000
         C           -2.197861214256     1.374488345421    -0.089348320411    12.000000000000
         C           -2.692081614256     0.091875845421     0.097778079589    12.000000000000
         C            3.509875385744     0.449366845421     0.169621079589    12.000000000000
         H           -0.235590614256     2.317952845421    -0.367581920411     1.007825032230
         H            1.760295385744     1.585684845421     0.584828079589     1.007825032230
         H           -2.862437614256     2.243122845421    -0.168586920411     1.007825032230
         H           -3.722119614256    -0.226790154579     0.200796079589     1.007825032230
         H            3.755497385744    -0.217523154579    -0.656157920411     1.007825032230
         H            3.783885385744    -0.047800154579     1.106504079589     1.007825032230
         H            4.076557385744     1.376474845421     0.069892079589     1.007825032230

  Basis Set: AUG-CC-PVTZ
    Blend: AUG-CC-PVTZ
  Basis Set: (AUG-CC-PVTZ AUX)
    Blend: AUG-CC-PVTZ-JKFIT
	 Reference Energy          =    -758.2673577202783690 [Eh]
	 Singles Energy            =      -0.0000000000000000 [Eh]
	 Same-Spin Energy          =      -0.4439876601389562 [Eh]
	 Opposite-Spin Energy      =      -1.3482061851531588 [Eh]
	 Correlation Energy        =      -1.7921938452921151 [Eh]
	 Total Energy              =    -760.0595515655704730 [Eh]

	 ================> DF-SCS-MP2 Energies <==================
	-----------------------------------------------------------
	 SCS Same-Spin Scale       =       0.3333333333333333 [-]
	 SCS Opposite-Spin Scale   =       1.2000000000000000 [-]
	 SCS Same-Spin Energy      =      -0.1479958867129854 [Eh]
	 SCS Opposite-Spin Energy  =      -1.6178474221837906 [Eh]
	 SCS Correlation Energy    =      -1.7658433088967760 [Eh]
	 SCS Total Energy          =    -760.0332010291751885 [Eh]
	-----------------------------------------------------------

  Dipole Moment: [D]
     X:    -0.3407      Y:     3.6053      Z:     1.0843     Total:     3.7802

*** Psi4 exiting successfully. Buy a developer a beer!
