                               Psi4 1.3.2 release

  ==> Input File <==

--------------------------------------------------------------------------
#psi4
#
memory 32 gb

molecule  {
0 1
  S       -1.4679970    -1.1088850     0.1509200
  O        1.4861710    -1.4617920    -0.3475990
  N        2.0488620     0.7112420     0.1011850
  C       -0.2299363     0.1344107    -0.0572173
  C        1.1480630    -0.2971330    -0.1085980
  C       -0.8491840     1.3674970    -0.1820640
  C       -2.2598870     1.3270920    -0.0933710
  C       -2.7341550     0.0450510     0.0925010
  C        3.4678020     0.4025420     0.1643440
  H       -0.2776640     2.2711280    -0.3728590
  H        1.7182220     1.5388600     0.5795510
  H       -2.9045110     2.1962980    -0.1738640
  H       -3.7641930    -0.2736150     0.1955190
  H        3.7134240    -0.2643480    -0.6614350
  H        3.7418120    -0.0946250     1.1012270
  H        4.0344840     1.3296500     0.0646150
units angstrom
no_reorient  #important for SAPT in psi4, default
symmetry c1  #important for SAPT in psi4, default
}

set PROPERTIES_ORIGIN ["COM"]
properties('MP2/aug-cc-pvtz', properties = ['dipole'])
--------------------------------------------------------------------------

    Molecular point group: c1
  Charge       = 0
  Multiplicity = 1
  Basis Set: AUG-CC-PVTZ
    Blend: AUG-CC-PVTZ
  Basis Set: (AUG-CC-PVTZ AUX)
    Blend: AUG-CC-PVTZ-JKFIT

    Orbital Energies [Eh]
    ---------------------

    Doubly Occupied:

       1A    -91.995412     2A    -20.522850     3A    -15.589549
       4A    -11.360223     5A    -11.283099     6A    -11.277612
       7A    -11.267035     8A    -11.260882     9A    -11.251987
      10A     -8.994431    11A     -6.675245    12A     -6.674638
      13A     -6.674045    14A     -1.378405    15A     -1.233594
      16A     -1.180213    17A     -1.026628    18A     -0.997776
      19A     -0.945850    20A     -0.840139    21A     -0.771665
      22A     -0.769805    23A     -0.721284    24A     -0.646621
      25A     -0.642536    26A     -0.626626    27A     -0.582929
      28A     -0.576207    29A     -0.557381    30A     -0.552343
      31A     -0.528596    32A     -0.509688    33A     -0.479932
      34A     -0.437998    35A     -0.400106    36A     -0.357510
      37A     -0.336468

  @DF-RHF Final Energy:  -758.26567113382850

   => Energetics <=

    Nuclear Repulsion Energy =            499.6430266355923777
    One-Electron Energy =               -2031.9627763015732853
    Two-Electron Energy =                 774.0540785321524027
    Total Energy =                       -758.2656711338285049
  Basis Set: (AUG-CC-PVTZ AUX)
    Blend: AUG-CC-PVTZ-RI
    Molecular point group: c1

    Geometry (in Angstrom), charge = 0, multiplicity = 1:

       Center              X                  Y                   Z               Mass
    ------------   -----------------  -----------------  -----------------  -----------------
         S           -1.427930605435    -1.063746172506     0.156536500656    31.972071174400
         O            1.526237394565    -1.416653172506    -0.341982499344    15.994914619570
         N            2.088928394565     0.756380827494     0.106801500656    14.003074004430
         C           -0.189869905435     0.179549527494    -0.051600799344    12.000000000000
         C            1.188129394565    -0.251994172506    -0.102981499344    12.000000000000
         C           -0.809117605435     1.412635827494    -0.176447499344    12.000000000000
         C           -2.219820605435     1.372230827494    -0.087754499344    12.000000000000
         C           -2.694088605435     0.090189827494     0.098117500656    12.000000000000
         C            3.507868394565     0.447680827494     0.169960500656    12.000000000000
         H           -0.237597605435     2.316266827494    -0.367242499344     1.007825032230
         H            1.758288394565     1.583998827494     0.585167500656     1.007825032230
         H           -2.864444605435     2.241436827494    -0.168247499344     1.007825032230
         H           -3.724126605435    -0.228476172506     0.201135500656     1.007825032230
         H            3.753490394565    -0.219209172506    -0.655818499344     1.007825032230
         H            3.781878394565    -0.049486172506     1.106843500656     1.007825032230
         H            4.074550394565     1.374788827494     0.070231500656     1.007825032230

  Basis Set: AUG-CC-PVTZ
    Blend: AUG-CC-PVTZ
  Basis Set: (AUG-CC-PVTZ AUX)
    Blend: AUG-CC-PVTZ-JKFIT
	 Reference Energy          =    -758.2656711338285049 [Eh]
	 Singles Energy            =      -0.0000000000000000 [Eh]
	 Same-Spin Energy          =      -0.4436513285900925 [Eh]
	 Opposite-Spin Energy      =      -1.3483958778486920 [Eh]
	 Correlation Energy        =      -1.7920472064387845 [Eh]
	 Total Energy              =    -760.0577183402673427 [Eh]

	 ================> DF-SCS-MP2 Energies <==================
	-----------------------------------------------------------
	 SCS Same-Spin Scale       =       0.3333333333333333 [-]
	 SCS Opposite-Spin Scale   =       1.2000000000000000 [-]
	 SCS Same-Spin Energy      =      -0.1478837761966975 [Eh]
	 SCS Opposite-Spin Energy  =      -1.6180750534184303 [Eh]
	 SCS Correlation Energy    =      -1.7659588296151278 [Eh]
	 SCS Total Energy          =    -760.0316299634436064 [Eh]
	-----------------------------------------------------------

  Dipole Moment: [D]
     X:    -0.3951      Y:     3.6835      Z:     1.0729     Total:     3.8568

*** Psi4 exiting successfully. Buy a developer a beer!
