                               Psi4 1.3.2 release

  ==> Input File <==

--------------------------------------------------------------------------
#psi4
#
memory 32 gb

molecule  {
0 1
  S       -1.4679970    -1.1088850     0.1509200
  O        1.4861710    -1.4617920    -0.3475990
  N        2.0488620     0.7112420     0.1011850
  C       -0.2300950     0.1341285    -0.0592342
  C        1.1480630    -0.2971330    -0.1085980
  C       -0.8491840     1.3674970    -0.1820640
  C       -2.2598870     1.3270920    -0.0933710
  C       -2.7341550     0.0450510     0.0925010
  C        3.4678020     0.4025420     0.1643440
  H       -0.2776640     2.2711280    -0.3728590
  H        1.7182220     1.5388600     0.5795510
  H       -2.9045110     2.1962980    -0.1738640
  H       -3.7641930    -0.2736150     0.1955190
  H        3.7134240    -0.2643480    -0.6614350
  H        3.7418120    -0.0946250     1.1012270
  H        4.0344840     1.3296500     0.0646150
units angstrom
no_reorient  #important for SAPT in psi4, default
symmetry c1  #important for SAPT in psi4, default
}

set PROPERTIES_ORIGIN ["COM"]
properties('MP2/aug-cc-pvtz', properties = ['dipole'])
--------------------------------------------------------------------------

    Molecular point group: c1
  Charge       = 0
  Multiplicity = 1
  Basis Set: AUG-CC-PVTZ
    Blend: AUG-CC-PVTZ
  Basis Set: (AUG-CC-PVTZ AUX)
    Blend: AUG-CC-PVTZ-JKFIT

    Orbital Energies [Eh]
    ---------------------

    Doubly Occupied:

       1A    -91.995417     2A    -20.522840     3A    -15.589569
       4A    -11.360217     5A    -11.283086     6A    -11.277608
       7A    -11.267008     8A    -11.260891     9A    -11.251983
      10A     -8.994437    11A     -6.675251    12A     -6.674644
      13A     -6.674051    14A     -1.378408    15A     -1.233593
      16A     -1.180215    17A     -1.026615    18A     -0.997776
      19A     -0.945853    20A     -0.840145    21A     -0.771660
      22A     -0.769814    23A     -0.721278    24A     -0.646634
      25A     -0.642534    26A     -0.626632    27A     -0.582909
      28A     -0.576193    29A     -0.557385    30A     -0.552354
      31A     -0.528621    32A     -0.509676    33A     -0.479931
      34A     -0.437991    35A     -0.400113    36A     -0.357514
      37A     -0.336460

  @DF-RHF Final Energy:  -758.26568758495102

   => Energetics <=

    Nuclear Repulsion Energy =            499.6435321042951045
    One-Electron Energy =               -2031.9638269892918743
    Two-Electron Energy =                 774.0546073000456317
    Total Energy =                       -758.2656875849510243
  Basis Set: (AUG-CC-PVTZ AUX)
    Blend: AUG-CC-PVTZ-RI
    Molecular point group: c1

    Geometry (in Angstrom), charge = 0, multiplicity = 1:

       Center              X                  Y                   Z               Mass
    ------------   -----------------  -----------------  -----------------  -----------------
         S           -1.427917101431    -1.063722159714     0.156708121491    31.972071174400
         O            1.526250898569    -1.416629159714    -0.341810878509    15.994914619570
         N            2.088941898569     0.756404840286     0.106973121491    14.003074004430
         C           -0.190015101431     0.179291340286    -0.053446078509    12.000000000000
         C            1.188142898569    -0.251970159714    -0.102809878509    12.000000000000
         C           -0.809104101431     1.412659840286    -0.176275878509    12.000000000000
         C           -2.219807101431     1.372254840286    -0.087582878509    12.000000000000
         C           -2.694075101431     0.090213840286     0.098289121491    12.000000000000
         C            3.507881898569     0.447704840286     0.170132121491    12.000000000000
         H           -0.237584101431     2.316290840286    -0.367070878509     1.007825032230
         H            1.758301898569     1.584022840286     0.585339121491     1.007825032230
         H           -2.864431101431     2.241460840286    -0.168075878509     1.007825032230
         H           -3.724113101431    -0.228452159714     0.201307121491     1.007825032230
         H            3.753503898569    -0.219185159714    -0.655646878509     1.007825032230
         H            3.781891898569    -0.049462159714     1.107015121491     1.007825032230
         H            4.074563898569     1.374812840286     0.070403121491     1.007825032230

  Basis Set: AUG-CC-PVTZ
    Blend: AUG-CC-PVTZ
  Basis Set: (AUG-CC-PVTZ AUX)
    Blend: AUG-CC-PVTZ-JKFIT
	 Reference Energy          =    -758.2656875849510243 [Eh]
	 Singles Energy            =      -0.0000000000000000 [Eh]
	 Same-Spin Energy          =      -0.4436497611315427 [Eh]
	 Opposite-Spin Energy      =      -1.3483932781165815 [Eh]
	 Correlation Energy        =      -1.7920430392481241 [Eh]
	 Total Energy              =    -760.0577306241991664 [Eh]

	 ================> DF-SCS-MP2 Energies <==================
	-----------------------------------------------------------
	 SCS Same-Spin Scale       =       0.3333333333333333 [-]
	 SCS Opposite-Spin Scale   =       1.2000000000000000 [-]
	 SCS Same-Spin Energy      =      -0.1478832537105142 [Eh]
	 SCS Opposite-Spin Energy  =      -1.6180719337398977 [Eh]
	 SCS Correlation Energy    =      -1.7659551874504118 [Eh]
	 SCS Total Energy          =    -760.0316427724014829 [Eh]
	-----------------------------------------------------------

  Dipole Moment: [D]
     X:    -0.3948      Y:     3.6836      Z:     1.0742     Total:     3.8573

*** Psi4 exiting successfully. Buy a developer a beer!
