                               Psi4 1.3.2 release

  ==> Input File <==

--------------------------------------------------------------------------
#psi4
#
memory 32 gb

molecule  {
0 1
  S       -1.4679970    -1.1088850     0.1509200
  O        1.4861710    -1.4617920    -0.3475990
  N        2.0488620     0.7112420     0.1011850
  C       -0.2734750     0.1140250    -0.0519740
  C        1.1480630    -0.2971330    -0.1085980
  C       -0.8491840     1.3674970    -0.1820640
  C       -2.2598870     1.3270920    -0.0933710
  C       -2.8668003     0.1021038     0.0914741
  C        3.4678020     0.4025420     0.1643440
  H       -0.2776640     2.2711280    -0.3728590
  H        1.7182220     1.5388600     0.5795510
  H       -2.9045110     2.1962980    -0.1738640
  H       -3.7641930    -0.2736150     0.1955190
  H        3.7134240    -0.2643480    -0.6614350
  H        3.7418120    -0.0946250     1.1012270
  H        4.0344840     1.3296500     0.0646150
units angstrom
no_reorient  #important for SAPT in psi4, default
symmetry c1  #important for SAPT in psi4, default
}

set PROPERTIES_ORIGIN ["COM"]
properties('MP2/aug-cc-pvtz', properties = ['dipole'])
--------------------------------------------------------------------------

    Molecular point group: c1
  Charge       = 0
  Multiplicity = 1
  Basis Set: AUG-CC-PVTZ
    Blend: AUG-CC-PVTZ
  Basis Set: (AUG-CC-PVTZ AUX)
    Blend: AUG-CC-PVTZ-JKFIT

    Orbital Energies [Eh]
    ---------------------

    Doubly Occupied:

       1A    -91.990549     2A    -20.526719     3A    -15.593645
       4A    -11.365937     5A    -11.284723     6A    -11.282052
       7A    -11.264073     8A    -11.263433     9A    -11.259052
      10A     -8.988566    11A     -6.669332    12A     -6.668724
      13A     -6.668169    14A     -1.380844    15A     -1.235824
      16A     -1.171749    17A     -1.026139    18A     -0.986596
      19A     -0.951961    20A     -0.838503    21A     -0.793307
      22A     -0.770028    23A     -0.719676    24A     -0.650751
      25A     -0.642238    26A     -0.630365    27A     -0.601463
      28A     -0.580342    29A     -0.555393    30A     -0.554603
      31A     -0.522507    32A     -0.505947    33A     -0.461869
      34A     -0.437577    35A     -0.402046    36A     -0.355853
      37A     -0.336724

  @DF-RHF Final Energy:  -758.24751261435154

   => Energetics <=

    Nuclear Repulsion Energy =            496.8657553474706674
    One-Electron Energy =               -2026.3519806280999092
    Two-Electron Energy =                 771.2387126662777064
    Total Energy =                       -758.2475126143515354
  Basis Set: (AUG-CC-PVTZ AUX)
    Blend: AUG-CC-PVTZ-RI
    Molecular point group: c1

    Geometry (in Angstrom), charge = 0, multiplicity = 1:

       Center              X                  Y                   Z               Mass
    ------------   -----------------  -----------------  -----------------  -----------------
         S           -1.412938863026    -1.066866227210     0.156177721296    31.972071174400
         O            1.541229136974    -1.419773227210    -0.342341278704    15.994914619570
         N            2.103920136974     0.753260772790     0.106442721296    14.003074004430
         C           -0.218416863026     0.156043772790    -0.046716278704    12.000000000000
         C            1.203121136974    -0.255114227210    -0.103340278704    12.000000000000
         C           -0.794125863026     1.409515772790    -0.176806278704    12.000000000000
         C           -2.204828863026     1.369110772790    -0.088113278704    12.000000000000
         C           -2.811742163026     0.144122572790     0.096731821296    12.000000000000
         C            3.522860136974     0.444560772790     0.169601721296    12.000000000000
         H           -0.222605863026     2.313146772790    -0.367601278704     1.007825032230
         H            1.773280136974     1.580878772790     0.584808721296     1.007825032230
         H           -2.849452863026     2.238316772790    -0.168606278704     1.007825032230
         H           -3.709134863026    -0.231596227210     0.200776721296     1.007825032230
         H            3.768482136974    -0.222329227210    -0.656177278704     1.007825032230
         H            3.796870136974    -0.052606227210     1.106484721296     1.007825032230
         H            4.089542136974     1.371668772790     0.069872721296     1.007825032230

  Basis Set: AUG-CC-PVTZ
    Blend: AUG-CC-PVTZ
  Basis Set: (AUG-CC-PVTZ AUX)
    Blend: AUG-CC-PVTZ-JKFIT
	 Reference Energy          =    -758.2475126143515354 [Eh]
	 Singles Energy            =      -0.0000000000000000 [Eh]
	 Same-Spin Energy          =      -0.4429532693505135 [Eh]
	 Opposite-Spin Energy      =      -1.3496259092267593 [Eh]
	 Correlation Energy        =      -1.7925791785772729 [Eh]
	 Total Energy              =    -760.0400917929288198 [Eh]

	 ================> DF-SCS-MP2 Energies <==================
	-----------------------------------------------------------
	 SCS Same-Spin Scale       =       0.3333333333333333 [-]
	 SCS Opposite-Spin Scale   =       1.2000000000000000 [-]
	 SCS Same-Spin Energy      =      -0.1476510897835045 [Eh]
	 SCS Opposite-Spin Energy  =      -1.6195510910721111 [Eh]
	 SCS Correlation Energy    =      -1.7672021808556155 [Eh]
	 SCS Total Energy          =    -760.0147147952071691 [Eh]
	-----------------------------------------------------------

  Dipole Moment: [D]
     X:    -0.2510      Y:     3.7716      Z:     1.0622     Total:     3.9264

*** Psi4 exiting successfully. Buy a developer a beer!
