                               Psi4 1.3.2 release

  ==> Input File <==

--------------------------------------------------------------------------
#psi4
#
memory 32 gb

molecule  {
0 1
  S       -1.3324558    -1.2275939     0.1533941
  O        1.4861710    -1.4617920    -0.3475990
  N        2.0488620     0.7112420     0.1011850
  C       -0.2734750     0.1140250    -0.0519740
  C        1.1480630    -0.2971330    -0.1085980
  C       -0.8491840     1.3674970    -0.1820640
  C       -2.2598870     1.3270920    -0.0933710
  C       -2.7341550     0.0450510     0.0925010
  C        3.4678020     0.4025420     0.1643440
  H       -0.2776640     2.2711280    -0.3728590
  H        1.7182220     1.5388600     0.5795510
  H       -2.9045110     2.1962980    -0.1738640
  H       -3.7641930    -0.2736150     0.1955190
  H        3.7134240    -0.2643480    -0.6614350
  H        3.7418120    -0.0946250     1.1012270
  H        4.0344840     1.3296500     0.0646150
units angstrom
no_reorient  #important for SAPT in psi4, default
symmetry c1  #important for SAPT in psi4, default
}

set PROPERTIES_ORIGIN ["COM"]
properties('MP2/aug-cc-pvtz', properties = ['dipole'])
--------------------------------------------------------------------------

    Molecular point group: c1
  Charge       = 0
  Multiplicity = 1
  Basis Set: AUG-CC-PVTZ
    Blend: AUG-CC-PVTZ
  Basis Set: (AUG-CC-PVTZ AUX)
    Blend: AUG-CC-PVTZ-JKFIT

    Orbital Energies [Eh]
    ---------------------

    Doubly Occupied:

       1A    -91.998279     2A    -20.525370     3A    -15.590893
       4A    -11.361617     5A    -11.290601     6A    -11.280907
       7A    -11.264225     8A    -11.261699     9A    -11.257391
      10A     -8.995088    11A     -6.675805    12A     -6.674925
      13A     -6.674410    14A     -1.380327    15A     -1.233592
      16A     -1.166748    17A     -1.023124    18A     -0.984605
      19A     -0.944625    20A     -0.832557    21A     -0.774247
      22A     -0.766833    23A     -0.717865    24A     -0.645970
      25A     -0.640225    26A     -0.624140    27A     -0.581038
      28A     -0.574159    29A     -0.554556    30A     -0.552704
      31A     -0.517368    32A     -0.502015    33A     -0.480144
      34A     -0.437134    35A     -0.401206    36A     -0.363002
      37A     -0.328389

  @DF-RHF Final Energy:  -758.24997485781375

   => Energetics <=

    Nuclear Repulsion Energy =            497.2397551946643830
    One-Electron Energy =               -2027.2238892803798080
    Two-Electron Energy =                 771.7341592279016140
    Total Energy =                       -758.2499748578137542
  Basis Set: (AUG-CC-PVTZ AUX)
    Blend: AUG-CC-PVTZ-RI
    Molecular point group: c1

    Geometry (in Angstrom), charge = 0, multiplicity = 1:

       Center              X                  Y                   Z               Mass
    ------------   -----------------  -----------------  -----------------  -----------------
         S           -1.319413500112    -1.153807651651     0.158003531927    31.972071174400
         O            1.499213299888    -1.388005751651    -0.342989568073    15.994914619570
         N            2.061904299888     0.785028248349     0.105794431927    14.003074004430
         C           -0.260432700112     0.187811248349    -0.047364568073    12.000000000000
         C            1.161105299888    -0.223346751651    -0.103988568073    12.000000000000
         C           -0.836141700112     1.441283248349    -0.177454568073    12.000000000000
         C           -2.246844700112     1.400878248349    -0.088761568073    12.000000000000
         C           -2.721112700112     0.118837248349     0.097110431927    12.000000000000
         C            3.480844299888     0.476328248349     0.168953431927    12.000000000000
         H           -0.264621700112     2.344914248349    -0.368249568073     1.007825032230
         H            1.731264299888     1.612646248349     0.584160431927     1.007825032230
         H           -2.891468700112     2.270084248349    -0.169254568073     1.007825032230
         H           -3.751150700112    -0.199828751651     0.200128431927     1.007825032230
         H            3.726466299888    -0.190561751651    -0.656825568073     1.007825032230
         H            3.754854299888    -0.020838751651     1.105836431927     1.007825032230
         H            4.047526299888     1.403436248349     0.069224431927     1.007825032230

  Basis Set: AUG-CC-PVTZ
    Blend: AUG-CC-PVTZ
  Basis Set: (AUG-CC-PVTZ AUX)
    Blend: AUG-CC-PVTZ-JKFIT
	 Reference Energy          =    -758.2499748578137542 [Eh]
	 Singles Energy            =      -0.0000000000000000 [Eh]
	 Same-Spin Energy          =      -0.4429621414882670 [Eh]
	 Opposite-Spin Energy      =      -1.3511183666563047 [Eh]
	 Correlation Energy        =      -1.7940805081445717 [Eh]
	 Total Energy              =    -760.0440553659583429 [Eh]

	 ================> DF-SCS-MP2 Energies <==================
	-----------------------------------------------------------
	 SCS Same-Spin Scale       =       0.3333333333333333 [-]
	 SCS Opposite-Spin Scale   =       1.2000000000000000 [-]
	 SCS Same-Spin Energy      =      -0.1476540471627557 [Eh]
	 SCS Opposite-Spin Energy  =      -1.6213420399875655 [Eh]
	 SCS Correlation Energy    =      -1.7689960871503212 [Eh]
	 SCS Total Energy          =    -760.0189709449640532 [Eh]
	-----------------------------------------------------------

  Dipole Moment: [D]
     X:    -0.2217      Y:     3.7068      Z:     1.0494     Total:     3.8589

*** Psi4 exiting successfully. Buy a developer a beer!
