                               Psi4 1.4a3.dev225

  ==> Input File <==

--------------------------------------------------------------------------
#psi4
#
memory 32 gb

molecule  {
0 1
  S       -1.4679970    -1.1088850     0.1509200
  O        1.4861710    -1.4617920    -0.3475990
  N        2.0488620     0.7112420     0.1011850
  C       -0.2734750     0.1140250    -0.0519740
  C        1.1480630    -0.2971330    -0.1085980
  C       -0.8491840     1.3674970    -0.1820640
  C       -2.2598870     1.3270920    -0.0933710
  C       -2.7341550     0.0450510     0.0925010
  C        3.4678020     0.4025420     0.1643440
  H       -0.3039749     2.2295277    -0.3640754
  H        1.7182220     1.5388600     0.5795510
  H       -2.9045110     2.1962980    -0.1738640
  H       -3.7641930    -0.2736150     0.1955190
  H        3.7134240    -0.2643480    -0.6614350
  H        3.7418120    -0.0946250     1.1012270
  H        4.0344840     1.3296500     0.0646150
units angstrom
no_reorient  #important for SAPT in psi4, default
symmetry c1  #important for SAPT in psi4, default
}

set PROPERTIES_ORIGIN ["COM"]
properties('MP2/aug-cc-pvtz', properties = ['dipole'])
--------------------------------------------------------------------------

    Molecular point group: c1
  Charge       = 0
  Multiplicity = 1
  Basis Set: AUG-CC-PVTZ
    Blend: AUG-CC-PVTZ
  Basis Set: (AUG-CC-PVTZ AUX)
    Blend: AUG-CC-PVTZ-JKFIT

    Orbital Energies [Eh]
    ---------------------

    Doubly Occupied:

       1A    -91.995903     2A    -20.523442     3A    -15.591014
       4A    -11.362691     5A    -11.278884     6A    -11.276524
       7A    -11.261804     8A    -11.257022     9A    -11.250400
      10A     -8.995645    11A     -6.676480    12A     -6.675928
      13A     -6.675258    14A     -1.378155    15A     -1.233459
      16A     -1.184236    17A     -1.020698    18A     -1.002777
      19A     -0.946603    20A     -0.834045    21A     -0.773206
      22A     -0.769475    23A     -0.728285    24A     -0.646431
      25A     -0.641629    26A     -0.625951    27A     -0.582026
      28A     -0.575178    29A     -0.557879    30A     -0.552978
      31A     -0.533563    32A     -0.511408    33A     -0.486433
      34A     -0.436755    35A     -0.400474    36A     -0.356805
      37A     -0.335705

  @DF-RHF Final Energy:  -758.26780418779867

   => Energetics <=

    Nuclear Repulsion Energy =            500.2006411184476633
    One-Electron Energy =               -2033.0665893733901157
    Two-Electron Energy =                 774.5981440671437213
    Total Energy =                       -758.2678041877986743
  Basis Set: (AUG-CC-PVTZ AUX)
    Blend: AUG-CC-PVTZ-RI
    Molecular point group: c1

    Geometry (in Angstrom), charge = 0, multiplicity = 1:

       Center              X                  Y                   Z               Mass
    ------------   -----------------  -----------------  -----------------  -----------------
         S           -1.424037807521    -1.061714230943     0.156027569502    31.972071174400
         O            1.530130192479    -1.414621230943    -0.342491430498    15.994914619570
         N            2.092821192479     0.758412769057     0.106292569502    14.003074004430
         C           -0.229515807521     0.161195769057    -0.046866430498    12.000000000000
         C            1.192022192479    -0.249962230943    -0.103490430498    12.000000000000
         C           -0.805224807521     1.414667769057    -0.176956430498    12.000000000000
         C           -2.215927807521     1.374262769057    -0.088263430498    12.000000000000
         C           -2.690195807521     0.092221769057     0.097608569502    12.000000000000
         C            3.511761192479     0.449712769057     0.169451569502    12.000000000000
         H           -0.260015707521     2.276698469057    -0.358967830498     1.007825032230
         H            1.762181192479     1.586030769057     0.584658569502     1.007825032230
         H           -2.860551807521     2.243468769057    -0.168756430498     1.007825032230
         H           -3.720233807521    -0.226444230943     0.200626569502     1.007825032230
         H            3.757383192479    -0.217177230943    -0.656327430498     1.007825032230
         H            3.785771192479    -0.047454230943     1.106334569502     1.007825032230
         H            4.078443192479     1.376820769057     0.069722569502     1.007825032230

  Basis Set: AUG-CC-PVTZ
    Blend: AUG-CC-PVTZ
  Basis Set: (AUG-CC-PVTZ AUX)
    Blend: AUG-CC-PVTZ-JKFIT
	 Reference Energy          =    -758.2678041877986743 [Eh]
	 Singles Energy            =      -0.0000000000000000 [Eh]
	 Same-Spin Energy          =      -0.4433767763371469 [Eh]
	 Opposite-Spin Energy      =      -1.3474900183204532 [Eh]
	 Correlation Energy        =      -1.7908667946576002 [Eh]
	 Total Energy              =    -760.0586709824563059 [Eh]

	 ================> DF-SCS-MP2 Energies <==================
	-----------------------------------------------------------
	 SCS Same-Spin Scale       =       0.3333333333333333 [-]
	 SCS Opposite-Spin Scale   =       1.2000000000000000 [-]
	 SCS Same-Spin Energy      =      -0.1477922587790490 [Eh]
	 SCS Opposite-Spin Energy  =      -1.6169880219845438 [Eh]
	 SCS Correlation Energy    =      -1.7647802807635928 [Eh]
	 SCS Total Energy          =    -760.0325844685622769 [Eh]
	-----------------------------------------------------------

  Dipole Moment: [D]
     X:    -0.3180      Y:     3.6214      Z:     1.0825     Total:     3.7931

*** Psi4 exiting successfully. Buy a developer a beer!
