                               Psi4 1.3.2 release

  ==> Input File <==

--------------------------------------------------------------------------
#psi4
#
memory 32 gb

molecule  {
0 1
  S       -1.4240838    -1.1497788     0.1540769
  O        1.4861710    -1.4617920    -0.3475990
  N        2.0488620     0.7112420     0.1011850
  C       -0.2734750     0.1140250    -0.0519740
  C        1.1480630    -0.2971330    -0.1085980
  C       -0.8491840     1.3674970    -0.1820640
  C       -2.2598870     1.3270920    -0.0933710
  C       -2.7341550     0.0450510     0.0925010
  C        3.4678020     0.4025420     0.1643440
  H       -0.2776640     2.2711280    -0.3728590
  H        1.7182220     1.5388600     0.5795510
  H       -2.9045110     2.1962980    -0.1738640
  H       -3.7641930    -0.2736150     0.1955190
  H        3.7134240    -0.2643480    -0.6614350
  H        3.7418120    -0.0946250     1.1012270
  H        4.0344840     1.3296500     0.0646150
units angstrom
no_reorient  #important for SAPT in psi4, default
symmetry c1  #important for SAPT in psi4, default
}

set PROPERTIES_ORIGIN ["COM"]
properties('MP2/aug-cc-pvtz', properties = ['dipole'])
--------------------------------------------------------------------------

    Molecular point group: c1
  Charge       = 0
  Multiplicity = 1
  Basis Set: AUG-CC-PVTZ
    Blend: AUG-CC-PVTZ
  Basis Set: (AUG-CC-PVTZ AUX)
    Blend: AUG-CC-PVTZ-JKFIT

    Orbital Energies [Eh]
    ---------------------

    Doubly Occupied:

       1A    -91.997154     2A    -20.524082     3A    -15.590857
       4A    -11.362312     5A    -11.283329     6A    -11.278318
       7A    -11.263282     8A    -11.261713     9A    -11.253158
      10A     -8.995673    11A     -6.676460    12A     -6.675820
      13A     -6.675216    14A     -1.378815    15A     -1.233392
      16A     -1.177204    17A     -1.020169    18A     -0.995889
      19A     -0.945808    20A     -0.833017    21A     -0.771658
      22A     -0.768653    23A     -0.720702    24A     -0.645808
      25A     -0.641147    26A     -0.625267    27A     -0.579801
      28A     -0.573482    29A     -0.556293    30A     -0.552700
      31A     -0.526749    32A     -0.507902    33A     -0.487139
      34A     -0.437013    35A     -0.400596    36A     -0.358170
      37A     -0.334112

  @DF-RHF Final Energy:  -758.26549935859089

   => Energetics <=

    Nuclear Repulsion Energy =            498.9003067084715894
    One-Electron Energy =               -2030.5138947290245142
    Two-Electron Energy =                 773.3480886619620378
    Total Energy =                       -758.2654993585908869
  Basis Set: (AUG-CC-PVTZ AUX)
    Blend: AUG-CC-PVTZ-RI
    Molecular point group: c1

    Geometry (in Angstrom), charge = 0, multiplicity = 1:

       Center              X                  Y                   Z               Mass
    ------------   -----------------  -----------------  -----------------  -----------------
         S           -1.390268301285    -1.093634195516     0.158531532738    31.972071174400
         O            1.519986498715    -1.405647395516    -0.343144367262    15.994914619570
         N            2.082677498715     0.767386604484     0.105639632738    14.003074004430
         C           -0.239659501285     0.170169604484    -0.047519367262    12.000000000000
         C            1.181878498715    -0.240988395516    -0.104143367262    12.000000000000
         C           -0.815368501285     1.423641604484    -0.177609367262    12.000000000000
         C           -2.226071501285     1.383236604484    -0.088916367262    12.000000000000
         C           -2.700339501285     0.101195604484     0.096955632738    12.000000000000
         C            3.501617498715     0.458686604484     0.168798632738    12.000000000000
         H           -0.243848501285     2.327272604484    -0.368404367262     1.007825032230
         H            1.752037498715     1.595004604484     0.584005632738     1.007825032230
         H           -2.870695501285     2.252442604484    -0.169409367262     1.007825032230
         H           -3.730377501285    -0.217470395516     0.199973632738     1.007825032230
         H            3.747239498715    -0.208203395516    -0.656980367262     1.007825032230
         H            3.775627498715    -0.038480395516     1.105681632738     1.007825032230
         H            4.068299498715     1.385794604484     0.069069632738     1.007825032230

  Basis Set: AUG-CC-PVTZ
    Blend: AUG-CC-PVTZ
  Basis Set: (AUG-CC-PVTZ AUX)
    Blend: AUG-CC-PVTZ-JKFIT
	 Reference Energy          =    -758.2654993585908869 [Eh]
	 Singles Energy            =      -0.0000000000000000 [Eh]
	 Same-Spin Energy          =      -0.4431816726230228 [Eh]
	 Opposite-Spin Energy      =      -1.3486914710294142 [Eh]
	 Correlation Energy        =      -1.7918731436524369 [Eh]
	 Total Energy              =    -760.0573725022433109 [Eh]

	 ================> DF-SCS-MP2 Energies <==================
	-----------------------------------------------------------
	 SCS Same-Spin Scale       =       0.3333333333333333 [-]
	 SCS Opposite-Spin Scale   =       1.2000000000000000 [-]
	 SCS Same-Spin Energy      =      -0.1477272242076743 [Eh]
	 SCS Opposite-Spin Energy  =      -1.6184297652352970 [Eh]
	 SCS Correlation Energy    =      -1.7661569894429712 [Eh]
	 SCS Total Energy          =    -760.0316563480338345 [Eh]
	-----------------------------------------------------------

  Dipole Moment: [D]
     X:    -0.2895      Y:     3.6432      Z:     1.0733     Total:     3.8091

*** Psi4 exiting successfully. Buy a developer a beer!
