                               Psi4 1.3.2 release

  ==> Input File <==

--------------------------------------------------------------------------
#psi4
#
memory 32 gb

molecule  {
0 1
  S       -1.4679970    -1.1088850     0.1509200
  O        1.4861710    -1.4617920    -0.3475990
  N        2.0488620     0.7112420     0.1011850
  C       -0.2734750     0.1140250    -0.0519740
  C        1.1480630    -0.2971330    -0.1085980
  C       -0.8491840     1.3674970    -0.1820640
  C       -2.2598870     1.3270920    -0.0933710
  C       -2.8080222     0.1123712     0.0890929
  C        3.4678020     0.4025420     0.1643440
  H       -0.2776640     2.2711280    -0.3728590
  H        1.7182220     1.5388600     0.5795510
  H       -2.9045110     2.1962980    -0.1738640
  H       -3.7641930    -0.2736150     0.1955190
  H        3.7134240    -0.2643480    -0.6614350
  H        3.7418120    -0.0946250     1.1012270
  H        4.0344840     1.3296500     0.0646150
units angstrom
no_reorient  #important for SAPT in psi4, default
symmetry c1  #important for SAPT in psi4, default
}

set PROPERTIES_ORIGIN ["COM"]
properties('MP2/aug-cc-pvtz', properties = ['dipole'])
--------------------------------------------------------------------------

    Molecular point group: c1
  Charge       = 0
  Multiplicity = 1
  Basis Set: AUG-CC-PVTZ
    Blend: AUG-CC-PVTZ
  Basis Set: (AUG-CC-PVTZ AUX)
    Blend: AUG-CC-PVTZ-JKFIT

    Orbital Energies [Eh]
    ---------------------

    Doubly Occupied:

       1A    -91.990398     2A    -20.525772     3A    -15.592564
       4A    -11.364677     5A    -11.282091     6A    -11.278766
       7A    -11.263264     8A    -11.262758     9A    -11.251708
      10A     -8.988974    11A     -6.669764    12A     -6.669156
      13A     -6.668546    14A     -1.379954    15A     -1.234882
      16A     -1.177970    17A     -1.027680    18A     -0.988607
      19A     -0.950499    20A     -0.837038    21A     -0.779486
      22A     -0.770119    23A     -0.721733    24A     -0.648450
      25A     -0.642739    26A     -0.628158    27A     -0.593980
      28A     -0.580035    29A     -0.556062    30A     -0.553896
      31A     -0.523063    32A     -0.508641    33A     -0.469842
      34A     -0.437868    35A     -0.401348    36A     -0.357759
      37A     -0.338364

  @DF-RHF Final Energy:  -758.26152169685577

   => Energetics <=

    Nuclear Repulsion Energy =            498.2073096598235793
    One-Electron Energy =               -2029.1044432375279030
    Two-Electron Energy =                 772.6356118808486144
    Total Energy =                       -758.2615216968557661
  Basis Set: (AUG-CC-PVTZ AUX)
    Blend: AUG-CC-PVTZ-RI
    Molecular point group: c1

    Geometry (in Angstrom), charge = 0, multiplicity = 1:

       Center              X                  Y                   Z               Mass
    ------------   -----------------  -----------------  -----------------  -----------------
         S           -1.417940373575    -1.067739894603     0.156380340927    31.972071174400
         O            1.536227626425    -1.420646894603    -0.342138659073    15.994914619570
         N            2.098918626425     0.752387105397     0.106645340927    14.003074004430
         C           -0.223418373575     0.155170105397    -0.046513659073    12.000000000000
         C            1.198119626425    -0.255987894603    -0.103137659073    12.000000000000
         C           -0.799127373575     1.408642105397    -0.176603659073    12.000000000000
         C           -2.209830373575     1.368237105397    -0.087910659073    12.000000000000
         C           -2.757965573575     0.153516305397     0.094553240927    12.000000000000
         C            3.517858626425     0.443687105397     0.169804340927    12.000000000000
         H           -0.227607373575     2.312273105397    -0.367398659073     1.007825032230
         H            1.768278626425     1.580005105397     0.585011340927     1.007825032230
         H           -2.854454373575     2.237443105397    -0.168403659073     1.007825032230
         H           -3.714136373575    -0.232469894603     0.200979340927     1.007825032230
         H            3.763480626425    -0.223202894603    -0.655974659073     1.007825032230
         H            3.791868626425    -0.053479894603     1.106687340927     1.007825032230
         H            4.084540626425     1.370795105397     0.070075340927     1.007825032230

  Basis Set: AUG-CC-PVTZ
    Blend: AUG-CC-PVTZ
  Basis Set: (AUG-CC-PVTZ AUX)
    Blend: AUG-CC-PVTZ-JKFIT
	 Reference Energy          =    -758.2615216968557661 [Eh]
	 Singles Energy            =      -0.0000000000000000 [Eh]
	 Same-Spin Energy          =      -0.4424633120237972 [Eh]
	 Opposite-Spin Energy      =      -1.3480018036029442 [Eh]
	 Correlation Energy        =      -1.7904651156267415 [Eh]
	 Total Energy              =    -760.0519868124824825 [Eh]

	 ================> DF-SCS-MP2 Energies <==================
	-----------------------------------------------------------
	 SCS Same-Spin Scale       =       0.3333333333333333 [-]
	 SCS Opposite-Spin Scale   =       1.2000000000000000 [-]
	 SCS Same-Spin Energy      =      -0.1474877706745991 [Eh]
	 SCS Opposite-Spin Energy  =      -1.6176021643235330 [Eh]
	 SCS Correlation Energy    =      -1.7650899349981319 [Eh]
	 SCS Total Energy          =    -760.0266116318539389 [Eh]
	-----------------------------------------------------------

  Dipole Moment: [D]
     X:    -0.3031      Y:     3.7391      Z:     1.0657     Total:     3.8998

*** Psi4 exiting successfully. Buy a developer a beer!
