                               Psi4 1.3.2 release

  ==> Input File <==

--------------------------------------------------------------------------
#psi4
#
memory 32 gb

molecule  {
0 1
  S       -1.4679970    -1.1088850     0.1509200
  O        1.4861710    -1.4617920    -0.3475990
  N        2.0488620     0.7112420     0.1011850
  C       -0.2734750     0.1140250    -0.0519740
  C        1.0520707    -0.2693687    -0.1047743
  C       -0.8491840     1.3674970    -0.1820640
  C       -2.2598870     1.3270920    -0.0933710
  C       -2.7341550     0.0450510     0.0925010
  C        3.4678020     0.4025420     0.1643440
  H       -0.2776640     2.2711280    -0.3728590
  H        1.7182220     1.5388600     0.5795510
  H       -2.9045110     2.1962980    -0.1738640
  H       -3.7641930    -0.2736150     0.1955190
  H        3.7134240    -0.2643480    -0.6614350
  H        3.7418120    -0.0946250     1.1012270
  H        4.0344840     1.3296500     0.0646150
units angstrom
no_reorient  #important for SAPT in psi4, default
symmetry c1  #important for SAPT in psi4, default
}

set PROPERTIES_ORIGIN ["COM"]
properties('MP2/aug-cc-pvtz', properties = ['dipole'])
--------------------------------------------------------------------------

    Molecular point group: c1
  Charge       = 0
  Multiplicity = 1
  Basis Set: AUG-CC-PVTZ
    Blend: AUG-CC-PVTZ
  Basis Set: (AUG-CC-PVTZ AUX)
    Blend: AUG-CC-PVTZ-JKFIT

    Orbital Energies [Eh]
    ---------------------

    Doubly Occupied:

       1A    -92.003841     2A    -20.514396     3A    -15.584596
       4A    -11.361597     5A    -11.290036     6A    -11.275938
       7A    -11.274476     8A    -11.257798     9A    -11.256812
      10A     -9.003470    11A     -6.684261    12A     -6.683680
      13A     -6.683005    14A     -1.342498    15A     -1.210729
      16A     -1.192830    17A     -1.041244    18A     -1.009318
      19A     -0.940433    20A     -0.853366    21A     -0.780262
      22A     -0.750709    23A     -0.729483    24A     -0.643603
      25A     -0.630854    26A     -0.615845    27A     -0.583423
      28A     -0.575512    29A     -0.561551    30A     -0.550239
      31A     -0.530928    32A     -0.500097    33A     -0.491371
      34A     -0.429456    35A     -0.386909    36A     -0.363279
      37A     -0.342816

  @DF-RHF Final Energy:  -758.24780445201009

   => Energetics <=

    Nuclear Repulsion Energy =            500.2614263251520015
    One-Electron Energy =               -2033.1571428295189889
    Two-Electron Energy =                 774.6479120523570145
    Total Energy =                       -758.2478044520100866
  Basis Set: (AUG-CC-PVTZ AUX)
    Blend: AUG-CC-PVTZ-RI
    Molecular point group: c1

    Geometry (in Angstrom), charge = 0, multiplicity = 1:

       Center              X                  Y                   Z               Mass
    ------------   -----------------  -----------------  -----------------  -----------------
         S           -1.416057717942    -1.064374027876     0.155764976974    31.972071174400
         O            1.538110282058    -1.417281027876    -0.342754023026    15.994914619570
         N            2.100801282058     0.755752972124     0.106029976974    14.003074004430
         C           -0.221535717942     0.158535972124    -0.047129023026    12.000000000000
         C            1.104009982058    -0.224857727876    -0.099929323026    12.000000000000
         C           -0.797244717942     1.412007972124    -0.177219023026    12.000000000000
         C           -2.207947717942     1.371602972124    -0.088526023026    12.000000000000
         C           -2.682215717942     0.089561972124     0.097345976974    12.000000000000
         C            3.519741282058     0.447052972124     0.169188976974    12.000000000000
         H           -0.225724717942     2.315638972124    -0.368014023026     1.007825032230
         H            1.770161282058     1.583370972124     0.584395976974     1.007825032230
         H           -2.852571717942     2.240808972124    -0.169019023026     1.007825032230
         H           -3.712253717942    -0.229104027876     0.200363976974     1.007825032230
         H            3.765363282058    -0.219837027876    -0.656590023026     1.007825032230
         H            3.793751282058    -0.050114027876     1.106071976974     1.007825032230
         H            4.086423282058     1.374160972124     0.069459976974     1.007825032230

  Basis Set: AUG-CC-PVTZ
    Blend: AUG-CC-PVTZ
  Basis Set: (AUG-CC-PVTZ AUX)
    Blend: AUG-CC-PVTZ-JKFIT
	 Reference Energy          =    -758.2478044520100866 [Eh]
	 Singles Energy            =      -0.0000000000000000 [Eh]
	 Same-Spin Energy          =      -0.4460614242719936 [Eh]
	 Opposite-Spin Energy      =      -1.3524426559314646 [Eh]
	 Correlation Energy        =      -1.7985040802034582 [Eh]
	 Total Energy              =    -760.0463085322135157 [Eh]

	 ================> DF-SCS-MP2 Energies <==================
	-----------------------------------------------------------
	 SCS Same-Spin Scale       =       0.3333333333333333 [-]
	 SCS Opposite-Spin Scale   =       1.2000000000000000 [-]
	 SCS Same-Spin Energy      =      -0.1486871414239979 [Eh]
	 SCS Opposite-Spin Energy  =      -1.6229311871177574 [Eh]
	 SCS Correlation Energy    =      -1.7716183285417553 [Eh]
	 SCS Total Energy          =    -760.0194227805518494 [Eh]
	-----------------------------------------------------------

  Dipole Moment: [D]
     X:    -1.1242      Y:     3.7217      Z:     1.0920     Total:     4.0382

*** Psi4 exiting successfully. Buy a developer a beer!
