                               Psi4 1.4a3.dev225

  ==> Input File <==

--------------------------------------------------------------------------
#psi4
#
memory 32 gb

molecule  {
0 1
  S       -1.4679970    -1.1088850     0.1509200
  O        1.4861710    -1.4617920    -0.3475990
  N        2.0488620     0.7112420     0.1011850
  C       -0.2734750     0.1140250    -0.0519740
  C        1.1480630    -0.2971330    -0.1085980
  C       -0.8491840     1.3674970    -0.1820640
  C       -2.2598870     1.3270920    -0.0933710
  C       -2.6972214     0.0113909     0.0942051
  C        3.4678020     0.4025420     0.1643440
  H       -0.2776640     2.2711280    -0.3728590
  H        1.7182220     1.5388600     0.5795510
  H       -2.9045110     2.1962980    -0.1738640
  H       -3.7641930    -0.2736150     0.1955190
  H        3.7134240    -0.2643480    -0.6614350
  H        3.7418120    -0.0946250     1.1012270
  H        4.0344840     1.3296500     0.0646150
units angstrom
no_reorient  #important for SAPT in psi4, default
symmetry c1  #important for SAPT in psi4, default
}

set PROPERTIES_ORIGIN ["COM"]
properties('MP2/aug-cc-pvtz', properties = ['dipole'])
--------------------------------------------------------------------------

    Molecular point group: c1
  Charge       = 0
  Multiplicity = 1
  Basis Set: AUG-CC-PVTZ
    Blend: AUG-CC-PVTZ
  Basis Set: (AUG-CC-PVTZ AUX)
    Blend: AUG-CC-PVTZ-JKFIT

    Orbital Energies [Eh]
    ---------------------

    Doubly Occupied:

       1A    -91.998642     2A    -20.522025     3A    -15.589831
       4A    -11.361498     5A    -11.280075     6A    -11.273892
       7A    -11.262430     8A    -11.261089     9A    -11.250912
      10A     -8.999281    11A     -6.680208    12A     -6.679532
      13A     -6.678871    14A     -1.377021    15A     -1.232402
      16A     -1.188569    17A     -1.018712    18A     -1.006346
      19A     -0.943954    20A     -0.830736    21A     -0.769974
      22A     -0.766566    23A     -0.722429    24A     -0.645025
      25A     -0.640903    26A     -0.624758    27A     -0.578002
      28A     -0.564593    29A     -0.559169    30A     -0.551812
      31A     -0.538770    32A     -0.513310    33A     -0.491368
      34A     -0.435733    35A     -0.399722    36A     -0.359473
      37A     -0.332205

  @DF-RHF Final Energy:  -758.26534936872144

   => Energetics <=

    Nuclear Repulsion Energy =            500.8603837844875102
    One-Electron Energy =               -2034.3917920770579713
    Two-Electron Energy =                 775.2660589238489592
    Total Energy =                       -758.2653493687214450
  Basis Set: (AUG-CC-PVTZ AUX)
    Blend: AUG-CC-PVTZ-RI
    Molecular point group: c1

    Geometry (in Angstrom), charge = 0, multiplicity = 1:

       Center              X                  Y                   Z               Mass
    ------------   -----------------  -----------------  -----------------  -----------------
         S           -1.427368568259    -1.059147339967     0.155945336695    31.972071174400
         O            1.526799431741    -1.412054339967    -0.342573663305    15.994914619570
         N            2.089490431741     0.760979660033     0.106210336695    14.003074004430
         C           -0.232846568259     0.163762660033    -0.046948663305    12.000000000000
         C            1.188691431741    -0.247395339967    -0.103572663305    12.000000000000
         C           -0.808555568259     1.417234660033    -0.177038663305    12.000000000000
         C           -2.219258568259     1.376829660033    -0.088345663305    12.000000000000
         C           -2.656592968259     0.061128560033     0.099230436695    12.000000000000
         C            3.508430431741     0.452279660033     0.169369336695    12.000000000000
         H           -0.237035568259     2.320865660033    -0.367833663305     1.007825032230
         H            1.758850431741     1.588597660033     0.584576336695     1.007825032230
         H           -2.863882568259     2.246035660033    -0.168838663305     1.007825032230
         H           -3.723564568259    -0.223877339967     0.200544336695     1.007825032230
         H            3.754052431741    -0.214610339967    -0.656409663305     1.007825032230
         H            3.782440431741    -0.044887339967     1.106252336695     1.007825032230
         H            4.075112431741     1.379387660033     0.069640336695     1.007825032230

  Basis Set: AUG-CC-PVTZ
    Blend: AUG-CC-PVTZ
  Basis Set: (AUG-CC-PVTZ AUX)
    Blend: AUG-CC-PVTZ-JKFIT
	 Reference Energy          =    -758.2653493687214450 [Eh]
	 Singles Energy            =      -0.0000000000000000 [Eh]
	 Same-Spin Energy          =      -0.4442123900591272 [Eh]
	 Opposite-Spin Energy      =      -1.3479787353248320 [Eh]
	 Correlation Energy        =      -1.7921911253839591 [Eh]
	 Total Energy              =    -760.0575404941054103 [Eh]

	 ================> DF-SCS-MP2 Energies <==================
	-----------------------------------------------------------
	 SCS Same-Spin Scale       =       0.3333333333333333 [-]
	 SCS Opposite-Spin Scale   =       1.2000000000000000 [-]
	 SCS Same-Spin Energy      =      -0.1480707966863757 [Eh]
	 SCS Opposite-Spin Energy  =      -1.6175744823897984 [Eh]
	 SCS Correlation Energy    =      -1.7656452790761741 [Eh]
	 SCS Total Energy          =    -760.0309946477975700 [Eh]
	-----------------------------------------------------------

  Dipole Moment: [D]
     X:    -0.3563      Y:     3.5601      Z:     1.0898     Total:     3.7401

*** Psi4 exiting successfully. Buy a developer a beer!
