                               Psi4 1.3.2 release

  ==> Input File <==

--------------------------------------------------------------------------
#psi4
#
memory 32 gb

molecule  {
0 1
  S       -1.4679970    -1.1088850     0.1509200
  O        1.4861710    -1.4617920    -0.3475990
  N        2.0488620     0.7112420     0.1011850
  C       -0.2734750     0.1140250    -0.0519740
  C        1.1480630    -0.2971330    -0.1085980
  C       -0.8518178     1.4164343    -0.1879283
  C       -2.2598870     1.3270920    -0.0933710
  C       -2.7341550     0.0450510     0.0925010
  C        3.4678020     0.4025420     0.1643440
  H       -0.2776640     2.2711280    -0.3728590
  H        1.7182220     1.5388600     0.5795510
  H       -2.9045110     2.1962980    -0.1738640
  H       -3.7641930    -0.2736150     0.1955190
  H        3.7134240    -0.2643480    -0.6614350
  H        3.7418120    -0.0946250     1.1012270
  H        4.0344840     1.3296500     0.0646150
units angstrom
no_reorient  #important for SAPT in psi4, default
symmetry c1  #important for SAPT in psi4, default
}

set PROPERTIES_ORIGIN ["COM"]
properties('MP2/aug-cc-pvtz', properties = ['dipole'])
--------------------------------------------------------------------------

    Molecular point group: c1
  Charge       = 0
  Multiplicity = 1
  Basis Set: AUG-CC-PVTZ
    Blend: AUG-CC-PVTZ
  Basis Set: (AUG-CC-PVTZ AUX)
    Blend: AUG-CC-PVTZ-JKFIT

    Orbital Energies [Eh]
    ---------------------

    Doubly Occupied:

       1A    -91.999426     2A    -20.522595     3A    -15.590394
       4A    -11.361802     5A    -11.281726     6A    -11.279104
       7A    -11.264777     8A    -11.261424     9A    -11.252121
      10A     -8.998835    11A     -6.679656    12A     -6.679087
      13A     -6.678479    14A     -1.377415    15A     -1.232674
      16A     -1.179190    17A     -1.017223    18A     -1.003356
      19A     -0.944553    20A     -0.834040    21A     -0.772056
      22A     -0.768612    23A     -0.723641    24A     -0.645664
      25A     -0.639104    26A     -0.624895    27A     -0.586318
      28A     -0.572749    29A     -0.555914    30A     -0.552359
      31A     -0.531637    32A     -0.510269    33A     -0.488331
      34A     -0.435664    35A     -0.399979    36A     -0.357598
      37A     -0.331055

  @DF-RHF Final Energy:  -758.26321859266932

   => Energetics <=

    Nuclear Repulsion Energy =            498.9442150601345816
    One-Electron Energy =               -2030.5474181351696643
    Two-Electron Energy =                 773.3399844823657077
    Total Energy =                       -758.2632185926693182
  Basis Set: (AUG-CC-PVTZ AUX)
    Blend: AUG-CC-PVTZ-RI
    Molecular point group: c1

    Geometry (in Angstrom), charge = 0, multiplicity = 1:

       Center              X                  Y                   Z               Mass
    ------------   -----------------  -----------------  -----------------  -----------------
         S           -1.424001722981    -1.066175667991     0.156589342412    31.972071174400
         O            1.530166277019    -1.419082667991    -0.341929657588    15.994914619570
         N            2.092857277019     0.753951332009     0.106854342412    14.003074004430
         C           -0.229479722981     0.156734332009    -0.046304657588    12.000000000000
         C            1.192058277019    -0.254423667991    -0.102928657588    12.000000000000
         C           -0.807822522981     1.459143632009    -0.182258957588    12.000000000000
         C           -2.215891722981     1.369801332009    -0.087701657588    12.000000000000
         C           -2.690159722981     0.087760332009     0.098170342412    12.000000000000
         C            3.511797277019     0.445251332009     0.170013342412    12.000000000000
         H           -0.233668722981     2.313837332009    -0.367189657588     1.007825032230
         H            1.762217277019     1.581569332009     0.585220342412     1.007825032230
         H           -2.860515722981     2.239007332009    -0.168194657588     1.007825032230
         H           -3.720197722981    -0.230905667991     0.201188342412     1.007825032230
         H            3.757419277019    -0.221638667991    -0.655765657588     1.007825032230
         H            3.785807277019    -0.051915667991     1.106896342412     1.007825032230
         H            4.078479277019     1.372359332009     0.070284342412     1.007825032230

  Basis Set: AUG-CC-PVTZ
    Blend: AUG-CC-PVTZ
  Basis Set: (AUG-CC-PVTZ AUX)
    Blend: AUG-CC-PVTZ-JKFIT
	 Reference Energy          =    -758.2632185926693182 [Eh]
	 Singles Energy            =      -0.0000000000000000 [Eh]
	 Same-Spin Energy          =      -0.4442798953474881 [Eh]
	 Opposite-Spin Energy      =      -1.3490119815304980 [Eh]
	 Correlation Energy        =      -1.7932918768779862 [Eh]
	 Total Energy              =    -760.0565104695473337 [Eh]

	 ================> DF-SCS-MP2 Energies <==================
	-----------------------------------------------------------
	 SCS Same-Spin Scale       =       0.3333333333333333 [-]
	 SCS Opposite-Spin Scale   =       1.2000000000000000 [-]
	 SCS Same-Spin Energy      =      -0.1480932984491627 [Eh]
	 SCS Opposite-Spin Energy  =      -1.6188143778365975 [Eh]
	 SCS Correlation Energy    =      -1.7669076762857603 [Eh]
	 SCS Total Energy          =    -760.0301262689550867 [Eh]
	-----------------------------------------------------------

  Dipole Moment: [D]
     X:    -0.3575      Y:     3.5653      Z:     1.0863     Total:     3.7442

*** Psi4 exiting successfully. Buy a developer a beer!
