                               Psi4 1.3.2 release

  ==> Input File <==

--------------------------------------------------------------------------
#psi4
#
memory 32 gb

molecule  {
0 1
  S       -1.4679970    -1.1088850     0.1509200
  O        1.4861710    -1.4617920    -0.3475990
  N        2.0488620     0.7112420     0.1011850
  C       -0.3626027     0.1945120    -0.0560035
  C        1.1480630    -0.2971330    -0.1085980
  C       -0.8491840     1.3674970    -0.1820640
  C       -2.2598870     1.3270920    -0.0933710
  C       -2.7341550     0.0450510     0.0925010
  C        3.4678020     0.4025420     0.1643440
  H       -0.2776640     2.2711280    -0.3728590
  H        1.7182220     1.5388600     0.5795510
  H       -2.9045110     2.1962980    -0.1738640
  H       -3.7641930    -0.2736150     0.1955190
  H        3.7134240    -0.2643480    -0.6614350
  H        3.7418120    -0.0946250     1.1012270
  H        4.0344840     1.3296500     0.0646150
units angstrom
no_reorient  #important for SAPT in psi4, default
symmetry c1  #important for SAPT in psi4, default
}

set PROPERTIES_ORIGIN ["COM"]
properties('MP2/aug-cc-pvtz', properties = ['dipole'])
--------------------------------------------------------------------------

    Molecular point group: c1
  Charge       = 0
  Multiplicity = 1
  Basis Set: AUG-CC-PVTZ
    Blend: AUG-CC-PVTZ
  Basis Set: (AUG-CC-PVTZ AUX)
    Blend: AUG-CC-PVTZ-JKFIT

    Orbital Energies [Eh]
    ---------------------

    Doubly Occupied:

       1A    -91.989756     2A    -20.529999     3A    -15.593495
       4A    -11.370695     5A    -11.272976     6A    -11.271481
       7A    -11.263137     8A    -11.246957     9A    -11.244242
      10A     -8.990174    11A     -6.671068    12A     -6.670360
      13A     -6.669618    14A     -1.379233    15A     -1.235099
      16A     -1.196931    17A     -1.020017    18A     -0.998570
      19A     -0.949453    20A     -0.816434    21A     -0.776572
      22A     -0.762873    23A     -0.728305    24A     -0.645799
      25A     -0.641535    26A     -0.625130    27A     -0.581844
      28A     -0.568795    29A     -0.558759    30A     -0.553713
      31A     -0.527393    32A     -0.516050    33A     -0.493626
      34A     -0.430408    35A     -0.402620    36A     -0.364286
      37A     -0.337586

  @DF-RHF Final Energy:  -758.25316677040200

   => Energetics <=

    Nuclear Repulsion Energy =            500.1283357644604166
    One-Electron Energy =               -2032.9730295736828793
    Two-Electron Energy =                 774.5915270388204590
    Total Energy =                       -758.2531667704020037
  Basis Set: (AUG-CC-PVTZ AUX)
    Blend: AUG-CC-PVTZ-RI
    Molecular point group: c1

    Geometry (in Angstrom), charge = 0, multiplicity = 1:

       Center              X                  Y                   Z               Mass
    ------------   -----------------  -----------------  -----------------  -----------------
         S           -1.416641836335    -1.068860275989     0.156433216720    31.972071174400
         O            1.537526163665    -1.421767275989    -0.342085783280    15.994914619570
         N            2.100217163665     0.751266724011     0.106698216720    14.003074004430
         C           -0.311247536335     0.234536724011    -0.050490283280    12.000000000000
         C            1.199418163665    -0.257108275989    -0.103084783280    12.000000000000
         C           -0.797828836335     1.407521724011    -0.176550783280    12.000000000000
         C           -2.208531836335     1.367116724011    -0.087857783280    12.000000000000
         C           -2.682799836335     0.085075724011     0.098014216720    12.000000000000
         C            3.519157163665     0.442566724011     0.169857216720    12.000000000000
         H           -0.226308836335     2.311152724011    -0.367345783280     1.007825032230
         H            1.769577163665     1.578884724011     0.585064216720     1.007825032230
         H           -2.853155836335     2.236322724011    -0.168350783280     1.007825032230
         H           -3.712837836335    -0.233590275989     0.201032216720     1.007825032230
         H            3.764779163665    -0.224323275989    -0.655921783280     1.007825032230
         H            3.793167163665    -0.054600275989     1.106740216720     1.007825032230
         H            4.085839163665     1.369674724011     0.070128216720     1.007825032230

  Basis Set: AUG-CC-PVTZ
    Blend: AUG-CC-PVTZ
  Basis Set: (AUG-CC-PVTZ AUX)
    Blend: AUG-CC-PVTZ-JKFIT
	 Reference Energy          =    -758.2531667704020037 [Eh]
	 Singles Energy            =      -0.0000000000000000 [Eh]
	 Same-Spin Energy          =      -0.4417952155365337 [Eh]
	 Opposite-Spin Energy      =      -1.3462732060237399 [Eh]
	 Correlation Energy        =      -1.7880684215602736 [Eh]
	 Total Energy              =    -760.0412351919623006 [Eh]

	 ================> DF-SCS-MP2 Energies <==================
	-----------------------------------------------------------
	 SCS Same-Spin Scale       =       0.3333333333333333 [-]
	 SCS Opposite-Spin Scale   =       1.2000000000000000 [-]
	 SCS Same-Spin Energy      =      -0.1472650718455112 [Eh]
	 SCS Opposite-Spin Energy  =      -1.6155278472284877 [Eh]
	 SCS Correlation Energy    =      -1.7627929190739990 [Eh]
	 SCS Total Energy          =    -760.0159596894759488 [Eh]
	-----------------------------------------------------------

  Dipole Moment: [D]
     X:     0.0324      Y:     3.5883      Z:     1.0577     Total:     3.7411

*** Psi4 exiting successfully. Buy a developer a beer!
