                               Psi4 1.3.2 release

  ==> Input File <==

--------------------------------------------------------------------------
#psi4
#
memory 32 gb

molecule  {
0 1
  S       -1.4679970    -1.1088850     0.1509200
  O        1.4861710    -1.4617920    -0.3475990
  N        2.0488620     0.7112420     0.1011850
  C       -0.1456497     0.1788171    -0.0741944
  C        1.1480630    -0.2971330    -0.1085980
  C       -0.8491840     1.3674970    -0.1820640
  C       -2.2598870     1.3270920    -0.0933710
  C       -2.7341550     0.0450510     0.0925010
  C        3.4678020     0.4025420     0.1643440
  H       -0.2776640     2.2711280    -0.3728590
  H        1.7182220     1.5388600     0.5795510
  H       -2.9045110     2.1962980    -0.1738640
  H       -3.7641930    -0.2736150     0.1955190
  H        3.7134240    -0.2643480    -0.6614350
  H        3.7418120    -0.0946250     1.1012270
  H        4.0344840     1.3296500     0.0646150
units angstrom
no_reorient  #important for SAPT in psi4, default
symmetry c1  #important for SAPT in psi4, default
}

set PROPERTIES_ORIGIN ["COM"]
properties('MP2/aug-cc-pvtz', properties = ['dipole'])
--------------------------------------------------------------------------

    Molecular point group: c1
  Charge       = 0
  Multiplicity = 1
  Basis Set: AUG-CC-PVTZ
    Blend: AUG-CC-PVTZ
  Basis Set: (AUG-CC-PVTZ AUX)
    Blend: AUG-CC-PVTZ-JKFIT

    Orbital Energies [Eh]
    ---------------------

    Doubly Occupied:

       1A    -91.992522     2A    -20.521555     3A    -15.587175
       4A    -11.355166     5A    -11.290672     6A    -11.280028
       7A    -11.276453     8A    -11.259311     9A    -11.254306
      10A     -8.990652    11A     -6.671452    12A     -6.670664
      13A     -6.670220    14A     -1.378919    15A     -1.234984
      16A     -1.174288    17A     -1.039667    18A     -0.993726
      19A     -0.944788    20A     -0.853711    21A     -0.773962
      22A     -0.769828    23A     -0.720040    24A     -0.647842
      25A     -0.644379    26A     -0.628657    27A     -0.590500
      28A     -0.579406    29A     -0.557740    30A     -0.551298
      31A     -0.521422    32A     -0.506603    33A     -0.463464
      34A     -0.437943    35A     -0.399982    36A     -0.360273
      37A     -0.335822

  @DF-RHF Final Energy:  -758.24642021110208

   => Energetics <=

    Nuclear Repulsion Energy =            499.1505100384466687
    One-Electron Energy =               -2030.9350161455786292
    Two-Electron Energy =                 773.5380858960299975
    Total Energy =                       -758.2464202111020768
  Basis Set: (AUG-CC-PVTZ AUX)
    Blend: AUG-CC-PVTZ-RI
    Molecular point group: c1

    Geometry (in Angstrom), charge = 0, multiplicity = 1:

       Center              X                  Y                   Z               Mass
    ------------   -----------------  -----------------  -----------------  -----------------
         S           -1.435102669844    -1.067524775047     0.157981105785    31.972071174400
         O            1.519065330156    -1.420431775047    -0.340537894215    15.994914619570
         N            2.081756330156     0.752602224953     0.108246105785    14.003074004430
         C           -0.112755369844     0.220177324953    -0.067133294215    12.000000000000
         C            1.180957330156    -0.255772775047    -0.101536894215    12.000000000000
         C           -0.816289669844     1.408857224953    -0.175002894215    12.000000000000
         C           -2.226992669844     1.368452224953    -0.086309894215    12.000000000000
         C           -2.701260669844     0.086411224953     0.099562105785    12.000000000000
         C            3.500696330156     0.443902224953     0.171405105785    12.000000000000
         H           -0.244769669844     2.312488224953    -0.365797894215     1.007825032230
         H            1.751116330156     1.580220224953     0.586612105785     1.007825032230
         H           -2.871616669844     2.237658224953    -0.166802894215     1.007825032230
         H           -3.731298669844    -0.232254775047     0.202580105785     1.007825032230
         H            3.746318330156    -0.222987775047    -0.654373894215     1.007825032230
         H            3.774706330156    -0.053264775047     1.108288105785     1.007825032230
         H            4.067378330156     1.371010224953     0.071676105785     1.007825032230

  Basis Set: AUG-CC-PVTZ
    Blend: AUG-CC-PVTZ
  Basis Set: (AUG-CC-PVTZ AUX)
    Blend: AUG-CC-PVTZ-JKFIT
	 Reference Energy          =    -758.2464202111020768 [Eh]
	 Singles Energy            =      -0.0000000000000000 [Eh]
	 Same-Spin Energy          =      -0.4445763635468129 [Eh]
	 Opposite-Spin Energy      =      -1.3505045998816596 [Eh]
	 Correlation Energy        =      -1.7950809634284726 [Eh]
	 Total Energy              =    -760.0415011745305947 [Eh]

	 ================> DF-SCS-MP2 Energies <==================
	-----------------------------------------------------------
	 SCS Same-Spin Scale       =       0.3333333333333333 [-]
	 SCS Opposite-Spin Scale   =       1.2000000000000000 [-]
	 SCS Same-Spin Energy      =      -0.1481921211822710 [Eh]
	 SCS Opposite-Spin Energy  =      -1.6206055198579914 [Eh]
	 SCS Correlation Energy    =      -1.7687976410402624 [Eh]
	 SCS Total Energy          =    -760.0152178521423139 [Eh]
	-----------------------------------------------------------

  Dipole Moment: [D]
     X:    -0.4890      Y:     3.8157      Z:     1.0576     Total:     3.9896

*** Psi4 exiting successfully. Buy a developer a beer!
