                               Psi4 1.3.2 release

  ==> Input File <==

--------------------------------------------------------------------------
#psi4
#
memory 32 gb

molecule  {
0 1
  S       -1.4679970    -1.1088850     0.1509200
  O        1.4861710    -1.4617920    -0.3475990
  N        2.0488620     0.7112420     0.1011850
  C       -0.3177151     0.0951665    -0.0468892
  C        1.1480630    -0.2971330    -0.1085980
  C       -0.8491840     1.3674970    -0.1820640
  C       -2.2598870     1.3270920    -0.0933710
  C       -2.7341550     0.0450510     0.0925010
  C        3.4678020     0.4025420     0.1643440
  H       -0.2776640     2.2711280    -0.3728590
  H        1.7182220     1.5388600     0.5795510
  H       -2.9045110     2.1962980    -0.1738640
  H       -3.7641930    -0.2736150     0.1955190
  H        3.7134240    -0.2643480    -0.6614350
  H        3.7418120    -0.0946250     1.1012270
  H        4.0344840     1.3296500     0.0646150
units angstrom
no_reorient  #important for SAPT in psi4, default
symmetry c1  #important for SAPT in psi4, default
}

set PROPERTIES_ORIGIN ["COM"]
properties('MP2/aug-cc-pvtz', properties = ['dipole'])
--------------------------------------------------------------------------

    Molecular point group: c1
  Charge       = 0
  Multiplicity = 1
  Basis Set: AUG-CC-PVTZ
    Blend: AUG-CC-PVTZ
  Basis Set: (AUG-CC-PVTZ AUX)
    Blend: AUG-CC-PVTZ-JKFIT

    Orbital Energies [Eh]
    ---------------------

    Doubly Occupied:

       1A    -91.996629     2A    -20.523919     3A    -15.592071
       4A    -11.364951     5A    -11.276168     6A    -11.275285
       7A    -11.262500     8A    -11.258788     9A    -11.249796
      10A     -8.997262    11A     -6.678156    12A     -6.677570
      13A     -6.676837    14A     -1.377783    15A     -1.233184
      16A     -1.189039    17A     -1.015361    18A     -1.004130
      19A     -0.946537    20A     -0.826190    21A     -0.770869
      22A     -0.768274    23A     -0.722676    24A     -0.646072
      25A     -0.640914    26A     -0.625354    27A     -0.577180
      28A     -0.569202    29A     -0.558599    30A     -0.553402
      31A     -0.538029    32A     -0.513543    33A     -0.491104
      34A     -0.434698    35A     -0.400583    36A     -0.357253
      37A     -0.334677

  @DF-RHF Final Energy:  -758.26654479462525

   => Energetics <=

    Nuclear Repulsion Energy =            500.2734611375258851
    One-Electron Energy =               -2033.2308390898465404
    Two-Electron Energy =                 774.6908331576954652
    Total Energy =                       -758.2665447946252471
  Basis Set: (AUG-CC-PVTZ AUX)
    Blend: AUG-CC-PVTZ-RI
    Molecular point group: c1

    Geometry (in Angstrom), charge = 0, multiplicity = 1:

       Center              X                  Y                   Z               Mass
    ------------   -----------------  -----------------  -----------------  -----------------
         S           -1.420461384856    -1.060406828766     0.155657668215    31.972071174400
         O            1.533706615144    -1.413313828766    -0.342861331785    15.994914619570
         N            2.096397615144     0.759720171234     0.105922668215    14.003074004430
         C           -0.270179484856     0.143644671234    -0.042151531785    12.000000000000
         C            1.195598615144    -0.248654828766    -0.103860331785    12.000000000000
         C           -0.801648384856     1.415975171234    -0.177326331785    12.000000000000
         C           -2.212351384856     1.375570171234    -0.088633331785    12.000000000000
         C           -2.686619384856     0.093529171234     0.097238668215    12.000000000000
         C            3.515337615144     0.451020171234     0.169081668215    12.000000000000
         H           -0.230128384856     2.319606171234    -0.368121331785     1.007825032230
         H            1.765757615144     1.587338171234     0.584288668215     1.007825032230
         H           -2.856975384856     2.244776171234    -0.169126331785     1.007825032230
         H           -3.716657384856    -0.225136828766     0.200256668215     1.007825032230
         H            3.760959615144    -0.215869828766    -0.656697331785     1.007825032230
         H            3.789347615144    -0.046146828766     1.105964668215     1.007825032230
         H            4.082019615144     1.378128171234     0.069352668215     1.007825032230

  Basis Set: AUG-CC-PVTZ
    Blend: AUG-CC-PVTZ
  Basis Set: (AUG-CC-PVTZ AUX)
    Blend: AUG-CC-PVTZ-JKFIT
	 Reference Energy          =    -758.2665447946252471 [Eh]
	 Singles Energy            =      -0.0000000000000000 [Eh]
	 Same-Spin Energy          =      -0.4435384704451657 [Eh]
	 Opposite-Spin Energy      =      -1.3474666234830228 [Eh]
	 Correlation Energy        =      -1.7910050939281885 [Eh]
	 Total Energy              =    -760.0575498885534671 [Eh]

	 ================> DF-SCS-MP2 Energies <==================
	-----------------------------------------------------------
	 SCS Same-Spin Scale       =       0.3333333333333333 [-]
	 SCS Opposite-Spin Scale   =       1.2000000000000000 [-]
	 SCS Same-Spin Energy      =      -0.1478461568150552 [Eh]
	 SCS Opposite-Spin Energy  =      -1.6169599481796273 [Eh]
	 SCS Correlation Energy    =      -1.7648061049946826 [Eh]
	 SCS Total Energy          =    -760.0313508996199516 [Eh]
	-----------------------------------------------------------

  Dipole Moment: [D]
     X:    -0.2531      Y:     3.5461      Z:     1.0908     Total:     3.7187

*** Psi4 exiting successfully. Buy a developer a beer!
