                               Psi4 1.3.2 release

  ==> Input File <==

--------------------------------------------------------------------------
#psi4
#
memory 32 gb

molecule  {
0 1
  S       -1.4679970    -1.1088850     0.1509200
  O        1.4653747    -1.4672996    -0.3492065
  N        2.0488620     0.7112420     0.1011850
  C       -0.2734750     0.1140250    -0.0519740
  C        1.1480630    -0.2971330    -0.1085980
  C       -0.8491840     1.3674970    -0.1820640
  C       -2.2598870     1.3270920    -0.0933710
  C       -2.7341550     0.0450510     0.0925010
  C        3.4678020     0.4025420     0.1643440
  H       -0.2776640     2.2711280    -0.3728590
  H        1.7182220     1.5388600     0.5795510
  H       -2.9045110     2.1962980    -0.1738640
  H       -3.7641930    -0.2736150     0.1955190
  H        3.7134240    -0.2643480    -0.6614350
  H        3.7418120    -0.0946250     1.1012270
  H        4.0344840     1.3296500     0.0646150
units angstrom
no_reorient  #important for SAPT in psi4, default
symmetry c1  #important for SAPT in psi4, default
}

set PROPERTIES_ORIGIN ["COM"]
properties('MP2/aug-cc-pvtz', properties = ['dipole'])
--------------------------------------------------------------------------

    Molecular point group: c1
  Charge       = 0
  Multiplicity = 1
  Basis Set: AUG-CC-PVTZ
    Blend: AUG-CC-PVTZ
  Basis Set: (AUG-CC-PVTZ AUX)
    Blend: AUG-CC-PVTZ-JKFIT

    Orbital Energies [Eh]
    ---------------------

    Doubly Occupied:

       1A    -91.995533     2A    -20.523877     3A    -15.591973
       4A    -11.362933     5A    -11.278527     6A    -11.275926
       7A    -11.262545     8A    -11.261975     9A    -11.250274
      10A     -8.995258    11A     -6.676091    12A     -6.675539
      13A     -6.674864    14A     -1.378180    15A     -1.234741
      16A     -1.183558    17A     -1.019984    18A     -1.000259
      19A     -0.946716    20A     -0.833033    21A     -0.770522
      22A     -0.769879    23A     -0.721433    24A     -0.646840
      25A     -0.641760    26A     -0.626331    27A     -0.579420
      28A     -0.572907    29A     -0.557974    30A     -0.553756
      31A     -0.532765    32A     -0.511381    33A     -0.485687
      34A     -0.436680    35A     -0.401282    36A     -0.356412
      37A     -0.335229

  @DF-RHF Final Energy:  -758.26851452192432

   => Energetics <=

    Nuclear Repulsion Energy =            500.0425851355880695
    One-Electron Energy =               -2032.7781066248005573
    Two-Electron Energy =                 774.4670069672881709
    Total Energy =                       -758.2685145219243168
  Basis Set: (AUG-CC-PVTZ AUX)
    Blend: AUG-CC-PVTZ-RI
    Molecular point group: c1

    Geometry (in Angstrom), charge = 0, multiplicity = 1:

       Center              X                  Y                   Z               Mass
    ------------   -----------------  -----------------  -----------------  -----------------
         S           -1.421867138368    -1.061386857625     0.156272662200    31.972071174400
         O            1.511504561632    -1.419801457625    -0.343853837800    15.994914619570
         N            2.094991861632     0.758740142375     0.106537662200    14.003074004430
         C           -0.227345138368     0.161523142375    -0.046621337800    12.000000000000
         C            1.194192861632    -0.249634857625    -0.103245337800    12.000000000000
         C           -0.803054138368     1.414995142375    -0.176711337800    12.000000000000
         C           -2.213757138368     1.374590142375    -0.088018337800    12.000000000000
         C           -2.688025138368     0.092549142375     0.097853662200    12.000000000000
         C            3.513931861632     0.450040142375     0.169696662200    12.000000000000
         H           -0.231534138368     2.318626142375    -0.367506337800     1.007825032230
         H            1.764351861632     1.586358142375     0.584903662200     1.007825032230
         H           -2.858381138368     2.243796142375    -0.168511337800     1.007825032230
         H           -3.718063138368    -0.226116857625     0.200871662200     1.007825032230
         H            3.759553861632    -0.216849857625    -0.656082337800     1.007825032230
         H            3.787941861632    -0.047126857625     1.106579662200     1.007825032230
         H            4.080613861632     1.377148142375     0.069967662200     1.007825032230

  Basis Set: AUG-CC-PVTZ
    Blend: AUG-CC-PVTZ
  Basis Set: (AUG-CC-PVTZ AUX)
    Blend: AUG-CC-PVTZ-JKFIT
	 Reference Energy          =    -758.2685145219243168 [Eh]
	 Singles Energy            =      -0.0000000000000000 [Eh]
	 Same-Spin Energy          =      -0.4434619585000502 [Eh]
	 Opposite-Spin Energy      =      -1.3477526368080859 [Eh]
	 Correlation Energy        =      -1.7912145953081362 [Eh]
	 Total Energy              =    -760.0597291172324503 [Eh]

	 ================> DF-SCS-MP2 Energies <==================
	-----------------------------------------------------------
	 SCS Same-Spin Scale       =       0.3333333333333333 [-]
	 SCS Opposite-Spin Scale   =       1.2000000000000000 [-]
	 SCS Same-Spin Energy      =      -0.1478206528333501 [Eh]
	 SCS Opposite-Spin Energy  =      -1.6173031641697031 [Eh]
	 SCS Correlation Energy    =      -1.7651238170030532 [Eh]
	 SCS Total Energy          =    -760.0336383389274033 [Eh]
	-----------------------------------------------------------

  Dipole Moment: [D]
     X:    -0.2467      Y:     3.6217      Z:     1.0854     Total:     3.7889

*** Psi4 exiting successfully. Buy a developer a beer!
