                               Psi4 1.4a3.dev225

  ==> Input File <==

--------------------------------------------------------------------------
#psi4
#
memory 32 gb

molecule  {
0 1
  S       -1.4679970    -1.1088850     0.1509200
  O        1.4861710    -1.4617920    -0.3475990
  N        2.0488620     0.7112420     0.1011850
  C       -0.2734750     0.1140250    -0.0519740
  C        1.1480630    -0.2971330    -0.1085980
  C       -0.8491840     1.3674970    -0.1820640
  C       -2.2598870     1.3270920    -0.0933710
  C       -2.7341550     0.0450510     0.0925010
  C        3.4678020     0.4025420     0.1643440
  H       -0.2671396     2.2877681    -0.3763724
  H        1.7182220     1.5388600     0.5795510
  H       -2.9045110     2.1962980    -0.1738640
  H       -3.7641930    -0.2736150     0.1955190
  H        3.7134240    -0.2643480    -0.6614350
  H        3.7418120    -0.0946250     1.1012270
  H        4.0344840     1.3296500     0.0646150
units angstrom
no_reorient  #important for SAPT in psi4, default
symmetry c1  #important for SAPT in psi4, default
}

set PROPERTIES_ORIGIN ["COM"]
properties('MP2/aug-cc-pvtz', properties = ['dipole'])
--------------------------------------------------------------------------

    Molecular point group: c1
  Charge       = 0
  Multiplicity = 1
  Basis Set: AUG-CC-PVTZ
    Blend: AUG-CC-PVTZ
  Basis Set: (AUG-CC-PVTZ AUX)
    Blend: AUG-CC-PVTZ-JKFIT

    Orbital Energies [Eh]
    ---------------------

    Doubly Occupied:

       1A    -91.996325     2A    -20.523410     3A    -15.590755
       4A    -11.362676     5A    -11.279331     6A    -11.276942
       7A    -11.264982     8A    -11.261669     9A    -11.251057
      10A     -8.996051    11A     -6.676884    12A     -6.676332
      13A     -6.675656    14A     -1.378109    15A     -1.233249
      16A     -1.184237    17A     -1.020496    18A     -1.000253
      19A     -0.946127    20A     -0.832782    21A     -0.770594
      22A     -0.769109    23A     -0.719405    24A     -0.646252
      25A     -0.641713    26A     -0.625904    27A     -0.578915
      28A     -0.572186    29A     -0.557689    30A     -0.552848
      31A     -0.532912    32A     -0.511587    33A     -0.486187
      34A     -0.436745    35A     -0.400274    36A     -0.357093
      37A     -0.336017

  @DF-RHF Final Energy:  -758.26790944782852

   => Energetics <=

    Nuclear Repulsion Energy =            499.8386274438865371
    One-Electron Energy =               -2032.3675630895481845
    Two-Electron Energy =                 774.2610261978331891
    Total Energy =                       -758.2679094478285151
  Basis Set: (AUG-CC-PVTZ AUX)
    Blend: AUG-CC-PVTZ-RI
    Molecular point group: c1

    Geometry (in Angstrom), charge = 0, multiplicity = 1:

       Center              X                  Y                   Z               Mass
    ------------   -----------------  -----------------  -----------------  -----------------
         S           -1.424301048654    -1.062130442265     0.156115449232    31.972071174400
         O            1.529866951346    -1.415037442265    -0.342403550768    15.994914619570
         N            2.092557951346     0.757996557735     0.106380449232    14.003074004430
         C           -0.229779048654     0.160779557735    -0.046778550768    12.000000000000
         C            1.191758951346    -0.250378442265    -0.103402550768    12.000000000000
         C           -0.805488048654     1.414251557735    -0.176868550768    12.000000000000
         C           -2.216191048654     1.373846557735    -0.088175550768    12.000000000000
         C           -2.690459048654     0.091805557735     0.097696449232    12.000000000000
         C            3.511497951346     0.449296557735     0.169539449232    12.000000000000
         H           -0.223443648654     2.334522657735    -0.371176950768     1.007825032230
         H            1.761917951346     1.585614557735     0.584746449232     1.007825032230
         H           -2.860815048654     2.243052557735    -0.168668550768     1.007825032230
         H           -3.720497048654    -0.226860442265     0.200714449232     1.007825032230
         H            3.757119951346    -0.217593442265    -0.656239550768     1.007825032230
         H            3.785507951346    -0.047870442265     1.106422449232     1.007825032230
         H            4.078179951346     1.376404557735     0.069810449232     1.007825032230

  Basis Set: AUG-CC-PVTZ
    Blend: AUG-CC-PVTZ
  Basis Set: (AUG-CC-PVTZ AUX)
    Blend: AUG-CC-PVTZ-JKFIT
	 Reference Energy          =    -758.2679094478285151 [Eh]
	 Singles Energy            =      -0.0000000000000000 [Eh]
	 Same-Spin Energy          =      -0.4435375179313309 [Eh]
	 Opposite-Spin Energy      =      -1.3479071065918711 [Eh]
	 Correlation Energy        =      -1.7914446245232019 [Eh]
	 Total Energy              =    -760.0593540723517663 [Eh]

	 ================> DF-SCS-MP2 Energies <==================
	-----------------------------------------------------------
	 SCS Same-Spin Scale       =       0.3333333333333333 [-]
	 SCS Opposite-Spin Scale   =       1.2000000000000000 [-]
	 SCS Same-Spin Energy      =      -0.1478458393104436 [Eh]
	 SCS Opposite-Spin Energy  =      -1.6174885279102453 [Eh]
	 SCS Correlation Energy    =      -1.7653343672206889 [Eh]
	 SCS Total Energy          =    -760.0332438150492180 [Eh]
	-----------------------------------------------------------

  Dipole Moment: [D]
     X:    -0.3331      Y:     3.6123      Z:     1.0819     Total:     3.7856

*** Psi4 exiting successfully. Buy a developer a beer!
