                               Psi4 1.3.2 release

  ==> Input File <==

--------------------------------------------------------------------------
#psi4
#
memory 32 gb

molecule  {
0 1
  S       -1.4286181    -1.0645199     0.1431286
  O        1.4861710    -1.4617920    -0.3475990
  N        2.0488620     0.7112420     0.1011850
  C       -0.2734750     0.1140250    -0.0519740
  C        1.1480630    -0.2971330    -0.1085980
  C       -0.8491840     1.3674970    -0.1820640
  C       -2.2598870     1.3270920    -0.0933710
  C       -2.7341550     0.0450510     0.0925010
  C        3.4678020     0.4025420     0.1643440
  H       -0.2776640     2.2711280    -0.3728590
  H        1.7182220     1.5388600     0.5795510
  H       -2.9045110     2.1962980    -0.1738640
  H       -3.7641930    -0.2736150     0.1955190
  H        3.7134240    -0.2643480    -0.6614350
  H        3.7418120    -0.0946250     1.1012270
  H        4.0344840     1.3296500     0.0646150
units angstrom
no_reorient  #important for SAPT in psi4, default
symmetry c1  #important for SAPT in psi4, default
}

set PROPERTIES_ORIGIN ["COM"]
properties('MP2/aug-cc-pvtz', properties = ['dipole'])
--------------------------------------------------------------------------

    Molecular point group: c1
  Charge       = 0
  Multiplicity = 1
  Basis Set: AUG-CC-PVTZ
    Blend: AUG-CC-PVTZ
  Basis Set: (AUG-CC-PVTZ AUX)
    Blend: AUG-CC-PVTZ-JKFIT

    Orbital Energies [Eh]
    ---------------------

    Doubly Occupied:

       1A    -91.994024     2A    -20.524561     3A    -15.591496
       4A    -11.363844     5A    -11.277110     6A    -11.272278
       7A    -11.262124     8A    -11.259398     9A    -11.250650
      10A     -8.995208    11A     -6.676101    12A     -6.675584
      13A     -6.674811    14A     -1.379493    15A     -1.234099
      16A     -1.192519    17A     -1.024185    18A     -1.001040
      19A     -0.947876    20A     -0.833173    21A     -0.773648
      22A     -0.769316    23A     -0.720651    24A     -0.648301
      25A     -0.642943    26A     -0.627511    27A     -0.580168
      28A     -0.572272    29A     -0.561416    30A     -0.554523
      31A     -0.539108    32A     -0.513741    33A     -0.482850
      34A     -0.437876    35A     -0.400937    36A     -0.355409
      37A     -0.337277

  @DF-RHF Final Energy:  -758.26678799535330

   => Energetics <=

    Nuclear Repulsion Energy =            502.6551315437342851
    One-Electron Energy =               -2037.9487928815419764
    Two-Electron Energy =                 777.0268733424543370
    Total Energy =                       -758.2667879953532974
  Basis Set: (AUG-CC-PVTZ AUX)
    Blend: AUG-CC-PVTZ-RI
    Molecular point group: c1

    Geometry (in Angstrom), charge = 0, multiplicity = 1:

       Center              X                  Y                   Z               Mass
    ------------   -----------------  -----------------  -----------------  -----------------
         S           -1.393774619495    -1.027704540742     0.150065347514    31.972071174400
         O            1.521014480505    -1.424976640742    -0.340662252486    15.994914619570
         N            2.083705480505     0.748057359258     0.108121747514    14.003074004430
         C           -0.238631519495     0.150840359258    -0.045037252486    12.000000000000
         C            1.182906480505    -0.260317640742    -0.101661252486    12.000000000000
         C           -0.814340519495     1.404312359258    -0.175127252486    12.000000000000
         C           -2.225043519495     1.363907359258    -0.086434252486    12.000000000000
         C           -2.699311519495     0.081866359258     0.099437747514    12.000000000000
         C            3.502645480505     0.439357359258     0.171280747514    12.000000000000
         H           -0.242820519495     2.307943359258    -0.365922252486     1.007825032230
         H            1.753065480505     1.575675359258     0.586487747514     1.007825032230
         H           -2.869667519495     2.233113359258    -0.166927252486     1.007825032230
         H           -3.729349519495    -0.236799640742     0.202455747514     1.007825032230
         H            3.748267480505    -0.227532640742    -0.654498252486     1.007825032230
         H            3.776655480505    -0.057809640742     1.108163747514     1.007825032230
         H            4.069327480505     1.366465359258     0.071551747514     1.007825032230

  Basis Set: AUG-CC-PVTZ
    Blend: AUG-CC-PVTZ
  Basis Set: (AUG-CC-PVTZ AUX)
    Blend: AUG-CC-PVTZ-JKFIT
	 Reference Energy          =    -758.2667879953532974 [Eh]
	 Singles Energy            =      -0.0000000000000000 [Eh]
	 Same-Spin Energy          =      -0.4441933701356887 [Eh]
	 Opposite-Spin Energy      =      -1.3475749154436849 [Eh]
	 Correlation Energy        =      -1.7917682855793737 [Eh]
	 Total Energy              =    -760.0585562809326348 [Eh]

	 ================> DF-SCS-MP2 Energies <==================
	-----------------------------------------------------------
	 SCS Same-Spin Scale       =       0.3333333333333333 [-]
	 SCS Opposite-Spin Scale   =       1.2000000000000000 [-]
	 SCS Same-Spin Energy      =      -0.1480644567118962 [Eh]
	 SCS Opposite-Spin Energy  =      -1.6170898985324218 [Eh]
	 SCS Correlation Energy    =      -1.7651543552443181 [Eh]
	 SCS Total Energy          =    -760.0319423505976602 [Eh]
	-----------------------------------------------------------

  Dipole Moment: [D]
     X:    -0.3033      Y:     3.5928      Z:     1.0845     Total:     3.7651

*** Psi4 exiting successfully. Buy a developer a beer!
