                               Psi4 1.4a3.dev225

  ==> Input File <==

--------------------------------------------------------------------------
#psi4
#
memory 32 gb

molecule  {
0 1
  S       -1.4679970    -1.1088850     0.1509200
  O        1.4861710    -1.4617920    -0.3475990
  N        2.0488620     0.7112420     0.1011850
  C       -0.2734750     0.1140250    -0.0519740
  C        1.1480630    -0.2971330    -0.1085980
  C       -0.8491840     1.3674970    -0.1820640
  C       -2.2598870     1.3270920    -0.0933710
  C       -2.7489284     0.0585150     0.0918194
  C        3.4678020     0.4025420     0.1643440
  H       -0.2776640     2.2711280    -0.3728590
  H        1.7182220     1.5388600     0.5795510
  H       -2.9045110     2.1962980    -0.1738640
  H       -3.7641930    -0.2736150     0.1955190
  H        3.7134240    -0.2643480    -0.6614350
  H        3.7418120    -0.0946250     1.1012270
  H        4.0344840     1.3296500     0.0646150
units angstrom
no_reorient  #important for SAPT in psi4, default
symmetry c1  #important for SAPT in psi4, default
}

set PROPERTIES_ORIGIN ["COM"]
properties('MP2/aug-cc-pvtz', properties = ['dipole'])
--------------------------------------------------------------------------

    Molecular point group: c1
  Charge       = 0
  Multiplicity = 1
  Basis Set: AUG-CC-PVTZ
    Blend: AUG-CC-PVTZ
  Basis Set: (AUG-CC-PVTZ AUX)
    Blend: AUG-CC-PVTZ-JKFIT

    Orbital Energies [Eh]
    ---------------------

    Doubly Occupied:

       1A    -91.995135     2A    -20.523933     3A    -15.591205
       4A    -11.363115     5A    -11.278947     6A    -11.277919
       7A    -11.262860     8A    -11.261938     9A    -11.250915
      10A     -8.994569    11A     -6.675383    12A     -6.674843
      13A     -6.674176    14A     -1.378525    15A     -1.233650
      16A     -1.182730    17A     -1.021795    18A     -0.998365
      19A     -0.947138    20A     -0.833959    21A     -0.772498
      22A     -0.769553    23A     -0.721831    24A     -0.646771
      25A     -0.641949    26A     -0.626369    27A     -0.580734
      28A     -0.576488    29A     -0.557328    30A     -0.553140
      31A     -0.530911    32A     -0.510882    33A     -0.483591
      34A     -0.437082    35A     -0.400558    36A     -0.356466
      37A     -0.337029

  @DF-RHF Final Energy:  -758.26850689896605

   => Energetics <=

    Nuclear Repulsion Energy =            499.5818675524504329
    One-Electron Energy =               -2031.8521917965585999
    Two-Electron Energy =                 774.0018173451421717
    Total Energy =                       -758.2685068989660522
  Basis Set: (AUG-CC-PVTZ AUX)
    Blend: AUG-CC-PVTZ-RI
    Molecular point group: c1

    Geometry (in Angstrom), charge = 0, multiplicity = 1:

       Center              X                  Y                   Z               Mass
    ------------   -----------------  -----------------  -----------------  -----------------
         S           -1.422968747477    -1.063157195394     0.156148339237    31.972071174400
         O            1.531199252523    -1.416064195394    -0.342370660763    15.994914619570
         N            2.093890252523     0.756969804606     0.106413339237    14.003074004430
         C           -0.228446747477     0.159752804606    -0.046745660763    12.000000000000
         C            1.193091252523    -0.251405195394    -0.103369660763    12.000000000000
         C           -0.804155747477     1.413224804606    -0.176835660763    12.000000000000
         C           -2.214858747477     1.372819804606    -0.088142660763    12.000000000000
         C           -2.703900147477     0.104242804606     0.097047739237    12.000000000000
         C            3.512830252523     0.448269804606     0.169572339237    12.000000000000
         H           -0.232635747477     2.316855804606    -0.367630660763     1.007825032230
         H            1.763250252523     1.584587804606     0.584779339237     1.007825032230
         H           -2.859482747477     2.242025804606    -0.168635660763     1.007825032230
         H           -3.719164747477    -0.227887195394     0.200747339237     1.007825032230
         H            3.758452252523    -0.218620195394    -0.656206660763     1.007825032230
         H            3.786840252523    -0.048897195394     1.106455339237     1.007825032230
         H            4.079512252523     1.375377804606     0.069843339237     1.007825032230

  Basis Set: AUG-CC-PVTZ
    Blend: AUG-CC-PVTZ
  Basis Set: (AUG-CC-PVTZ AUX)
    Blend: AUG-CC-PVTZ-JKFIT
	 Reference Energy          =    -758.2685068989660522 [Eh]
	 Singles Energy            =      -0.0000000000000000 [Eh]
	 Same-Spin Energy          =      -0.4432342281455302 [Eh]
	 Opposite-Spin Energy      =      -1.3477411466497256 [Eh]
	 Correlation Energy        =      -1.7909753747952557 [Eh]
	 Total Energy              =    -760.0594822737613185 [Eh]

	 ================> DF-SCS-MP2 Energies <==================
	-----------------------------------------------------------
	 SCS Same-Spin Scale       =       0.3333333333333333 [-]
	 SCS Opposite-Spin Scale   =       1.2000000000000000 [-]
	 SCS Same-Spin Energy      =      -0.1477447427151767 [Eh]
	 SCS Opposite-Spin Energy  =      -1.6172893759796707 [Eh]
	 SCS Correlation Energy    =      -1.7650341186948475 [Eh]
	 SCS Total Energy          =    -760.0335410176609230 [Eh]
	-----------------------------------------------------------

  Dipole Moment: [D]
     X:    -0.3202      Y:     3.6389      Z:     1.0788     Total:     3.8089

*** Psi4 exiting successfully. Buy a developer a beer!
