                               Psi4 1.3.2 release

  ==> Input File <==

--------------------------------------------------------------------------
#psi4
#
memory 32 gb

molecule  {
0 1
  S       -1.5089111    -1.1518303     0.1587558
  O        1.4861710    -1.4617920    -0.3475990
  N        2.0488620     0.7112420     0.1011850
  C       -0.2734750     0.1140250    -0.0519740
  C        1.1480630    -0.2971330    -0.1085980
  C       -0.8491840     1.3674970    -0.1820640
  C       -2.2598870     1.3270920    -0.0933710
  C       -2.7341550     0.0450510     0.0925010
  C        3.4678020     0.4025420     0.1643440
  H       -0.2776640     2.2711280    -0.3728590
  H        1.7182220     1.5388600     0.5795510
  H       -2.9045110     2.1962980    -0.1738640
  H       -3.7641930    -0.2736150     0.1955190
  H        3.7134240    -0.2643480    -0.6614350
  H        3.7418120    -0.0946250     1.1012270
  H        4.0344840     1.3296500     0.0646150
units angstrom
no_reorient  #important for SAPT in psi4, default
symmetry c1  #important for SAPT in psi4, default
}

set PROPERTIES_ORIGIN ["COM"]
properties('MP2/aug-cc-pvtz', properties = ['dipole'])
--------------------------------------------------------------------------

    Molecular point group: c1
  Charge       = 0
  Multiplicity = 1
  Basis Set: AUG-CC-PVTZ
    Blend: AUG-CC-PVTZ
  Basis Set: (AUG-CC-PVTZ AUX)
    Blend: AUG-CC-PVTZ-JKFIT

    Orbital Energies [Eh]
    ---------------------

    Doubly Occupied:

       1A    -91.998022     2A    -20.522413     3A    -15.590350
       4A    -11.361810     5A    -11.281145     6A    -11.281100
       7A    -11.265954     8A    -11.261406     9A    -11.251062
      10A     -8.996601    11A     -6.677431    12A     -6.676730
      13A     -6.676172    14A     -1.376928    15A     -1.232715
      16A     -1.177348    17A     -1.019099    18A     -0.999334
      19A     -0.944510    20A     -0.833284    21A     -0.769986
      22A     -0.768022    23A     -0.723096    24A     -0.644913
      25A     -0.640503    26A     -0.624520    27A     -0.579291
      28A     -0.574564    29A     -0.554578    30A     -0.551885
      31A     -0.526487    32A     -0.509530    33A     -0.487841
      34A     -0.435795    35A     -0.399839    36A     -0.360099
      37A     -0.333307

  @DF-RHF Final Energy:  -758.26603627864552

   => Energetics <=

    Nuclear Repulsion Energy =            497.3245109803971218
    One-Electron Energy =               -2027.3657586904039363
    Two-Electron Energy =                 771.7752114313611855
    Total Energy =                       -758.2660362786455153
  Basis Set: (AUG-CC-PVTZ AUX)
    Blend: AUG-CC-PVTZ-RI
    Molecular point group: c1

    Geometry (in Angstrom), charge = 0, multiplicity = 1:

       Center              X                  Y                   Z               Mass
    ------------   -----------------  -----------------  -----------------  -----------------
         S           -1.455864205108    -1.095220595139     0.162149668342    31.972071174400
         O            1.539217894892    -1.405182295139    -0.344205131658    15.994914619570
         N            2.101908894892     0.767851704861     0.104578868342    14.003074004430
         C           -0.220428105108     0.170634704861    -0.048580131658    12.000000000000
         C            1.201109894892    -0.240523295139    -0.105204131658    12.000000000000
         C           -0.796137105108     1.424106704861    -0.178670131658    12.000000000000
         C           -2.206840105108     1.383701704861    -0.089977131658    12.000000000000
         C           -2.681108105108     0.101660704861     0.095894868342    12.000000000000
         C            3.520848894892     0.459151704861     0.167737868342    12.000000000000
         H           -0.224617105108     2.327737704861    -0.369465131658     1.007825032230
         H            1.771268894892     1.595469704861     0.582944868342     1.007825032230
         H           -2.851464105108     2.252907704861    -0.170470131658     1.007825032230
         H           -3.711146105108    -0.217005295139     0.198912868342     1.007825032230
         H            3.766470894892    -0.207738295139    -0.658041131658     1.007825032230
         H            3.794858894892    -0.038015295139     1.104620868342     1.007825032230
         H            4.087530894892     1.386259704861     0.068008868342     1.007825032230

  Basis Set: AUG-CC-PVTZ
    Blend: AUG-CC-PVTZ
  Basis Set: (AUG-CC-PVTZ AUX)
    Blend: AUG-CC-PVTZ-JKFIT
	 Reference Energy          =    -758.2660362786455153 [Eh]
	 Singles Energy            =      -0.0000000000000000 [Eh]
	 Same-Spin Energy          =      -0.4429062717324539 [Eh]
	 Opposite-Spin Energy      =      -1.3481661086933019 [Eh]
	 Correlation Energy        =      -1.7910723804257558 [Eh]
	 Total Energy              =    -760.0571086590712184 [Eh]

	 ================> DF-SCS-MP2 Energies <==================
	-----------------------------------------------------------
	 SCS Same-Spin Scale       =       0.3333333333333333 [-]
	 SCS Opposite-Spin Scale   =       1.2000000000000000 [-]
	 SCS Same-Spin Energy      =      -0.1476354239108180 [Eh]
	 SCS Opposite-Spin Energy  =      -1.6177993304319622 [Eh]
	 SCS Correlation Energy    =      -1.7654347543427802 [Eh]
	 SCS Total Energy          =    -760.0314710329882928 [Eh]
	-----------------------------------------------------------

  Dipole Moment: [D]
     X:    -0.3407      Y:     3.6435      Z:     1.0785     Total:     3.8150

*** Psi4 exiting successfully. Buy a developer a beer!
