                               Psi4 1.3.2 release

  ==> Input File <==

--------------------------------------------------------------------------
#psi4
#
memory 32 gb

molecule  {
0 1
  S       -1.4679970    -1.1088850     0.1509200
  O        1.3600711    -1.4894613    -0.3561355
  N        2.0488620     0.7112420     0.1011850
  C       -0.2734750     0.1140250    -0.0519740
  C        1.1480630    -0.2971330    -0.1085980
  C       -0.8491840     1.3674970    -0.1820640
  C       -2.2598870     1.3270920    -0.0933710
  C       -2.7341550     0.0450510     0.0925010
  C        3.4678020     0.4025420     0.1643440
  H       -0.2776640     2.2711280    -0.3728590
  H        1.7182220     1.5388600     0.5795510
  H       -2.9045110     2.1962980    -0.1738640
  H       -3.7641930    -0.2736150     0.1955190
  H        3.7134240    -0.2643480    -0.6614350
  H        3.7418120    -0.0946250     1.1012270
  H        4.0344840     1.3296500     0.0646150
units angstrom
no_reorient  #important for SAPT in psi4, default
symmetry c1  #important for SAPT in psi4, default
}

set PROPERTIES_ORIGIN ["COM"]
properties('MP2/aug-cc-pvtz', properties = ['dipole'])
--------------------------------------------------------------------------

    Molecular point group: c1
  Charge       = 0
  Multiplicity = 1
  Basis Set: AUG-CC-PVTZ
    Blend: AUG-CC-PVTZ
  Basis Set: (AUG-CC-PVTZ AUX)
    Blend: AUG-CC-PVTZ-JKFIT

    Orbital Energies [Eh]
    ---------------------

    Doubly Occupied:

       1A    -91.992068     2A    -20.526019     3A    -15.597646
       4A    -11.364384     5A    -11.275014     6A    -11.271488
       7A    -11.266610     8A    -11.257956     9A    -11.247206
      10A     -8.991769    11A     -6.672595    12A     -6.672038
      13A     -6.671364    14A     -1.379163    15A     -1.241647
      16A     -1.180058    17A     -1.017275    18A     -0.996905
      19A     -0.948910    20A     -0.832836    21A     -0.772764
      22A     -0.767389    23A     -0.718753    24A     -0.649735
      25A     -0.642339    26A     -0.628460    27A     -0.579283
      28A     -0.570333    29A     -0.559577    30A     -0.557716
      31A     -0.530413    32A     -0.510291    33A     -0.482608
      34A     -0.435473    35A     -0.405991    36A     -0.353341
      37A     -0.331540

  @DF-RHF Final Energy:  -758.26551553320849

   => Energetics <=

    Nuclear Repulsion Energy =            500.6959447959692966
    One-Electron Energy =               -2034.1250072072082276
    Two-Electron Energy =                 775.1635468780303881
    Total Energy =                       -758.2655155332084860
  Basis Set: (AUG-CC-PVTZ AUX)
    Blend: AUG-CC-PVTZ-RI
    Molecular point group: c1

    Geometry (in Angstrom), charge = 0, multiplicity = 1:

       Center              X                  Y                   Z               Mass
    ------------   -----------------  -----------------  -----------------  -----------------
         S           -1.409923695279    -1.058873296810     0.157058543377    31.972071174400
         O            1.418144404721    -1.439449596810    -0.349996956623    15.994914619570
         N            2.106935304721     0.761253703190     0.107323543377    14.003074004430
         C           -0.215401695279     0.164036703190    -0.045835456623    12.000000000000
         C            1.206136304721    -0.247121296810    -0.102459456623    12.000000000000
         C           -0.791110695279     1.417508703190    -0.175925456623    12.000000000000
         C           -2.201813695279     1.377103703190    -0.087232456623    12.000000000000
         C           -2.676081695279     0.095062703190     0.098639543377    12.000000000000
         C            3.525875304721     0.452553703190     0.170482543377    12.000000000000
         H           -0.219590695279     2.321139703190    -0.366720456623     1.007825032230
         H            1.776295304721     1.588871703190     0.585689543377     1.007825032230
         H           -2.846437695279     2.246309703190    -0.167725456623     1.007825032230
         H           -3.706119695279    -0.223603296810     0.201657543377     1.007825032230
         H            3.771497304721    -0.214336296810    -0.655296456623     1.007825032230
         H            3.799885304721    -0.044613296810     1.107365543377     1.007825032230
         H            4.092557304721     1.379661703190     0.070753543377     1.007825032230

  Basis Set: AUG-CC-PVTZ
    Blend: AUG-CC-PVTZ
  Basis Set: (AUG-CC-PVTZ AUX)
    Blend: AUG-CC-PVTZ-JKFIT
	 Reference Energy          =    -758.2655155332084860 [Eh]
	 Singles Energy            =      -0.0000000000000000 [Eh]
	 Same-Spin Energy          =      -0.4434573392768732 [Eh]
	 Opposite-Spin Energy      =      -1.3479111203029506 [Eh]
	 Correlation Energy        =      -1.7913684595798238 [Eh]
	 Total Energy              =    -760.0568839927883573 [Eh]

	 ================> DF-SCS-MP2 Energies <==================
	-----------------------------------------------------------
	 SCS Same-Spin Scale       =       0.3333333333333333 [-]
	 SCS Opposite-Spin Scale   =       1.2000000000000000 [-]
	 SCS Same-Spin Energy      =      -0.1478191130922911 [Eh]
	 SCS Opposite-Spin Energy  =      -1.6174933443635406 [Eh]
	 SCS Correlation Energy    =      -1.7653124574558317 [Eh]
	 SCS Total Energy          =    -760.0308279906643065 [Eh]
	-----------------------------------------------------------

  Dipole Moment: [D]
     X:     0.1721      Y:     3.6356      Z:     1.0983     Total:     3.8018

*** Psi4 exiting successfully. Buy a developer a beer!
