                               Psi4 1.3.2 release

  ==> Input File <==

--------------------------------------------------------------------------
#psi4
#
memory 32 gb

molecule  {
0 1
  S       -1.5904508    -0.9767776     0.1462229
  O        1.4861710    -1.4617920    -0.3475990
  N        2.0488620     0.7112420     0.1011850
  C       -0.2734750     0.1140250    -0.0519740
  C        1.1480630    -0.2971330    -0.1085980
  C       -0.8491840     1.3674970    -0.1820640
  C       -2.2598870     1.3270920    -0.0933710
  C       -2.7341550     0.0450510     0.0925010
  C        3.4678020     0.4025420     0.1643440
  H       -0.2776640     2.2711280    -0.3728590
  H        1.7182220     1.5388600     0.5795510
  H       -2.9045110     2.1962980    -0.1738640
  H       -3.7641930    -0.2736150     0.1955190
  H        3.7134240    -0.2643480    -0.6614350
  H        3.7418120    -0.0946250     1.1012270
  H        4.0344840     1.3296500     0.0646150
units angstrom
no_reorient  #important for SAPT in psi4, default
symmetry c1  #important for SAPT in psi4, default
}

set PROPERTIES_ORIGIN ["COM"]
properties('MP2/aug-cc-pvtz', properties = ['dipole'])
--------------------------------------------------------------------------

    Molecular point group: c1
  Charge       = 0
  Multiplicity = 1
  Basis Set: AUG-CC-PVTZ
    Blend: AUG-CC-PVTZ
  Basis Set: (AUG-CC-PVTZ AUX)
    Blend: AUG-CC-PVTZ-JKFIT

    Orbital Energies [Eh]
    ---------------------

    Doubly Occupied:

       1A    -91.991163     2A    -20.521140     3A    -15.590554
       4A    -11.363578     5A    -11.271209     6A    -11.264968
       7A    -11.261525     8A    -11.260849     9A    -11.243685
      10A     -8.996643    11A     -6.678167    12A     -6.676674
      13A     -6.676079    14A     -1.375990    15A     -1.233368
      16A     -1.215130    17A     -1.038308    18A     -1.002169
      19A     -0.946825    20A     -0.832555    21A     -0.776164
      22A     -0.768042    23A     -0.723051    24A     -0.653414
      25A     -0.641930    26A     -0.627596    27A     -0.581259
      28A     -0.574337    29A     -0.566302    30A     -0.556240
      31A     -0.546474    32A     -0.522619    33A     -0.473503
      34A     -0.435287    35A     -0.399496    36A     -0.364832
      37A     -0.331233

  @DF-RHF Final Energy:  -758.24589171882587

   => Energetics <=

    Nuclear Repulsion Energy =            503.9550899442514833
    One-Electron Energy =               -2040.4372470691139370
    Two-Electron Energy =                 778.2362654060365230
    Total Energy =                       -758.2458917188258738
  Basis Set: (AUG-CC-PVTZ AUX)
    Blend: AUG-CC-PVTZ-RI
    Molecular point group: c1

    Geometry (in Angstrom), charge = 0, multiplicity = 1:

       Center              X                  Y                   Z               Mass
    ------------   -----------------  -----------------  -----------------  -----------------
         S           -1.518917848439    -0.959854503407     0.152458131502    31.972071174400
         O            1.557703951561    -1.444868903407    -0.341363768498    15.994914619570
         N            2.120394951561     0.728165096593     0.107420231502    14.003074004430
         C           -0.201942048439     0.130948096593    -0.045738768498    12.000000000000
         C            1.219595951561    -0.280209903407    -0.102362768498    12.000000000000
         C           -0.777651048439     1.384420096593    -0.175828768498    12.000000000000
         C           -2.188354048439     1.344015096593    -0.087135768498    12.000000000000
         C           -2.662622048439     0.061974096593     0.098736231502    12.000000000000
         C            3.539334951561     0.419465096593     0.170579231502    12.000000000000
         H           -0.206131048439     2.288051096593    -0.366623768498     1.007825032230
         H            1.789754951561     1.555783096593     0.585786231502     1.007825032230
         H           -2.832978048439     2.213221096593    -0.167628768498     1.007825032230
         H           -3.692660048439    -0.256691903407     0.201754231502     1.007825032230
         H            3.784956951561    -0.247424903407    -0.655199768498     1.007825032230
         H            3.813344951561    -0.077701903407     1.107462231502     1.007825032230
         H            4.106016951561     1.346573096593     0.070850231502     1.007825032230

  Basis Set: AUG-CC-PVTZ
    Blend: AUG-CC-PVTZ
  Basis Set: (AUG-CC-PVTZ AUX)
    Blend: AUG-CC-PVTZ-JKFIT
	 Reference Energy          =    -758.2458917188258738 [Eh]
	 Singles Energy            =      -0.0000000000000000 [Eh]
	 Same-Spin Energy          =      -0.4450724983902323 [Eh]
	 Opposite-Spin Energy      =      -1.3462178328364454 [Eh]
	 Correlation Energy        =      -1.7912903312266777 [Eh]
	 Total Energy              =    -760.0371820500525928 [Eh]

	 ================> DF-SCS-MP2 Energies <==================
	-----------------------------------------------------------
	 SCS Same-Spin Scale       =       0.3333333333333333 [-]
	 SCS Opposite-Spin Scale   =       1.2000000000000000 [-]
	 SCS Same-Spin Energy      =      -0.1483574994634108 [Eh]
	 SCS Opposite-Spin Energy  =      -1.6154613994037343 [Eh]
	 SCS Correlation Energy    =      -1.7638188988671450 [Eh]
	 SCS Total Energy          =    -760.0097106176930311 [Eh]
	-----------------------------------------------------------

  Dipole Moment: [D]
     X:    -0.4959      Y:     3.5613      Z:     1.1089     Total:     3.7628

*** Psi4 exiting successfully. Buy a developer a beer!
