                               Psi4 1.3.2 release

  ==> Input File <==

--------------------------------------------------------------------------
#psi4
#
memory 32 gb

molecule  {
0 1
  S       -1.4679970    -1.1088850     0.1509200
  O        1.4861710    -1.4617920    -0.3475990
  N        2.0488620     0.7112420     0.1011850
  C       -0.2734750     0.1140250    -0.0519740
  C        1.1818765    -0.1477356    -0.1323539
  C       -0.8491840     1.3674970    -0.1820640
  C       -2.2598870     1.3270920    -0.0933710
  C       -2.7341550     0.0450510     0.0925010
  C        3.4678020     0.4025420     0.1643440
  H       -0.2776640     2.2711280    -0.3728590
  H        1.7182220     1.5388600     0.5795510
  H       -2.9045110     2.1962980    -0.1738640
  H       -3.7641930    -0.2736150     0.1955190
  H        3.7134240    -0.2643480    -0.6614350
  H        3.7418120    -0.0946250     1.1012270
  H        4.0344840     1.3296500     0.0646150
units angstrom
no_reorient  #important for SAPT in psi4, default
symmetry c1  #important for SAPT in psi4, default
}

set PROPERTIES_ORIGIN ["COM"]
properties('MP2/aug-cc-pvtz', properties = ['dipole'])
--------------------------------------------------------------------------

    Molecular point group: c1
  Charge       = 0
  Multiplicity = 1
  Basis Set: AUG-CC-PVTZ
    Blend: AUG-CC-PVTZ
  Basis Set: (AUG-CC-PVTZ AUX)
    Blend: AUG-CC-PVTZ-JKFIT

    Orbital Energies [Eh]
    ---------------------

    Doubly Occupied:

       1A    -91.997110     2A    -20.491466     3A    -15.616098
       4A    -11.356493     5A    -11.278373     6A    -11.278228
       7A    -11.276110     8A    -11.260270     9A    -11.249147
      10A     -8.996237    11A     -6.677001    12A     -6.676539
      13A     -6.675800    14A     -1.350661    15A     -1.229009
      16A     -1.182692    17A     -1.027375    18A     -0.998611
      19A     -0.970995    20A     -0.835326    21A     -0.799632
      22A     -0.768190    23A     -0.721842    24A     -0.669417
      25A     -0.644824    26A     -0.620978    27A     -0.577610
      28A     -0.566376    29A     -0.553224    30A     -0.541579
      31A     -0.524994    32A     -0.506324    33A     -0.482447
      34A     -0.407673    35A     -0.390794    36A     -0.355831
      37A     -0.333467

  @DF-RHF Final Energy:  -758.22989524132311

   => Energetics <=

    Nuclear Repulsion Energy =            499.7368843617725247
    One-Electron Energy =               -2032.1560731937656783
    Two-Electron Energy =                 774.1892935906699904
    Total Energy =                       -758.2298952413231063
  Basis Set: (AUG-CC-PVTZ AUX)
    Blend: AUG-CC-PVTZ-RI
    Molecular point group: c1

    Geometry (in Angstrom), charge = 0, multiplicity = 1:

       Center              X                  Y                   Z               Mass
    ------------   -----------------  -----------------  -----------------  -----------------
         S           -1.427103074597    -1.074723958083     0.158111763623    31.972071174400
         O            1.527064925403    -1.427630958083    -0.340407236377    15.994914619570
         N            2.089755925403     0.745403041917     0.108376763623    14.003074004430
         C           -0.232581074597     0.148186041917    -0.044782236377    12.000000000000
         C            1.222770425403    -0.113574558083    -0.125162136377    12.000000000000
         C           -0.808290074597     1.401658041917    -0.174872236377    12.000000000000
         C           -2.218993074597     1.361253041917    -0.086179236377    12.000000000000
         C           -2.693261074597     0.079212041917     0.099692763623    12.000000000000
         C            3.508695925403     0.436703041917     0.171535763623    12.000000000000
         H           -0.236770074597     2.305289041917    -0.365667236377     1.007825032230
         H            1.759115925403     1.573021041917     0.586742763623     1.007825032230
         H           -2.863617074597     2.230459041917    -0.166672236377     1.007825032230
         H           -3.723299074597    -0.239453958083     0.202710763623     1.007825032230
         H            3.754317925403    -0.230186958083    -0.654243236377     1.007825032230
         H            3.782705925403    -0.060463958083     1.108418763623     1.007825032230
         H            4.075377925403     1.363811041917     0.071806763623     1.007825032230

  Basis Set: AUG-CC-PVTZ
    Blend: AUG-CC-PVTZ
  Basis Set: (AUG-CC-PVTZ AUX)
    Blend: AUG-CC-PVTZ-JKFIT
	 Reference Energy          =    -758.2298952413231063 [Eh]
	 Singles Energy            =      -0.0000000000000000 [Eh]
	 Same-Spin Energy          =      -0.4453445665840382 [Eh]
	 Opposite-Spin Energy      =      -1.3516340260978272 [Eh]
	 Correlation Energy        =      -1.7969785926818655 [Eh]
	 Total Energy              =    -760.0268738340049595 [Eh]

	 ================> DF-SCS-MP2 Energies <==================
	-----------------------------------------------------------
	 SCS Same-Spin Scale       =       0.3333333333333333 [-]
	 SCS Opposite-Spin Scale   =       1.2000000000000000 [-]
	 SCS Same-Spin Energy      =      -0.1484481888613461 [Eh]
	 SCS Opposite-Spin Energy  =      -1.6219608313173925 [Eh]
	 SCS Correlation Energy    =      -1.7704090201787386 [Eh]
	 SCS Total Energy          =    -760.0003042615018103 [Eh]
	-----------------------------------------------------------

  Dipole Moment: [D]
     X:     0.1551      Y:     4.5238      Z:     1.2818     Total:     4.7045

*** Psi4 exiting successfully. Buy a developer a beer!
