                               Psi4 1.3.2 release

  ==> Input File <==

--------------------------------------------------------------------------
#psi4
#
memory 32 gb

molecule  {
0 1
  S       -1.4679970    -1.1088850     0.1509200
  O        1.4861710    -1.4617920    -0.3475990
  N        2.0488620     0.7112420     0.1011850
  C       -0.2734750     0.1140250    -0.0519740
  C        1.1480630    -0.2971330    -0.1085980
  C       -0.8489981     1.2697000    -0.1687417
  C       -2.2598870     1.3270920    -0.0933710
  C       -2.7341550     0.0450510     0.0925010
  C        3.4678020     0.4025420     0.1643440
  H       -0.2776640     2.2711280    -0.3728590
  H        1.7182220     1.5388600     0.5795510
  H       -2.9045110     2.1962980    -0.1738640
  H       -3.7641930    -0.2736150     0.1955190
  H        3.7134240    -0.2643480    -0.6614350
  H        3.7418120    -0.0946250     1.1012270
  H        4.0344840     1.3296500     0.0646150
units angstrom
no_reorient  #important for SAPT in psi4, default
symmetry c1  #important for SAPT in psi4, default
}

set PROPERTIES_ORIGIN ["COM"]
properties('MP2/aug-cc-pvtz', properties = ['dipole'])
--------------------------------------------------------------------------

    Molecular point group: c1
  Charge       = 0
  Multiplicity = 1
  Basis Set: AUG-CC-PVTZ
    Blend: AUG-CC-PVTZ
  Basis Set: (AUG-CC-PVTZ AUX)
    Blend: AUG-CC-PVTZ-JKFIT

    Orbital Energies [Eh]
    ---------------------

    Doubly Occupied:

       1A    -91.990333     2A    -20.525412     3A    -15.591838
       4A    -11.364848     5A    -11.279633     6A    -11.266494
       7A    -11.262351     8A    -11.258733     9A    -11.249438
      10A     -8.990711    11A     -6.671548    12A     -6.671055
      13A     -6.670234    14A     -1.379839    15A     -1.234879
      16A     -1.196685    17A     -1.029276    18A     -0.995785
      19A     -0.950357    20A     -0.832783    21A     -0.776751
      22A     -0.769293    23A     -0.713183    24A     -0.651117
      25A     -0.645525    26A     -0.628144    27A     -0.588129
      28A     -0.564894    29A     -0.554107    30A     -0.553831
      31A     -0.529438    32A     -0.514490    33A     -0.479942
      34A     -0.438282    35A     -0.401082    36A     -0.359392
      37A     -0.343430

  @DF-RHF Final Energy:  -758.25840253737692

   => Energetics <=

    Nuclear Repulsion Energy =            502.0288490068347187
    One-Electron Energy =               -2036.7279754343899185
    Two-Electron Energy =                 776.4407238901783330
    Total Energy =                       -758.2584025373769236
  Basis Set: (AUG-CC-PVTZ AUX)
    Blend: AUG-CC-PVTZ-RI
    Molecular point group: c1

    Geometry (in Angstrom), charge = 0, multiplicity = 1:

       Center              X                  Y                   Z               Mass
    ------------   -----------------  -----------------  -----------------  -----------------
         S           -1.424241655188    -1.053689841649     0.154956727845    31.972071174400
         O            1.529926344812    -1.406596841649    -0.343562272155    15.994914619570
         N            2.092617344812     0.766437158351     0.105221727845    14.003074004430
         C           -0.229719655188     0.169220158351    -0.047937272155    12.000000000000
         C            1.191818344812    -0.241937841649    -0.104561272155    12.000000000000
         C           -0.805242755188     1.324895158351    -0.164704972155    12.000000000000
         C           -2.216131655188     1.382287158351    -0.089334272155    12.000000000000
         C           -2.690399655188     0.100246158351     0.096537727845    12.000000000000
         C            3.511557344812     0.457737158351     0.168380727845    12.000000000000
         H           -0.233908655188     2.326323158351    -0.368822272155     1.007825032230
         H            1.761977344812     1.594055158351     0.583587727845     1.007825032230
         H           -2.860755655188     2.251493158351    -0.169827272155     1.007825032230
         H           -3.720437655188    -0.218419841649     0.199555727845     1.007825032230
         H            3.757179344812    -0.209152841649    -0.657398272155     1.007825032230
         H            3.785567344812    -0.039429841649     1.105263727845     1.007825032230
         H            4.078239344812     1.384845158351     0.068651727845     1.007825032230

  Basis Set: AUG-CC-PVTZ
    Blend: AUG-CC-PVTZ
  Basis Set: (AUG-CC-PVTZ AUX)
    Blend: AUG-CC-PVTZ-JKFIT
	 Reference Energy          =    -758.2584025373769236 [Eh]
	 Singles Energy            =      -0.0000000000000000 [Eh]
	 Same-Spin Energy          =      -0.4424045526413057 [Eh]
	 Opposite-Spin Energy      =      -1.3463157612415035 [Eh]
	 Correlation Energy        =      -1.7887203138828092 [Eh]
	 Total Energy              =    -760.0471228512597008 [Eh]

	 ================> DF-SCS-MP2 Energies <==================
	-----------------------------------------------------------
	 SCS Same-Spin Scale       =       0.3333333333333333 [-]
	 SCS Opposite-Spin Scale   =       1.2000000000000000 [-]
	 SCS Same-Spin Energy      =      -0.1474681842137686 [Eh]
	 SCS Opposite-Spin Energy  =      -1.6155789134898042 [Eh]
	 SCS Correlation Energy    =      -1.7630470977035728 [Eh]
	 SCS Total Energy          =    -760.0214496350804438 [Eh]
	-----------------------------------------------------------

  Dipole Moment: [D]
     X:    -0.2768      Y:     3.6946      Z:     1.0765     Total:     3.8581

*** Psi4 exiting successfully. Buy a developer a beer!
