                               Psi4 1.3.2 release

  ==> Input File <==

--------------------------------------------------------------------------
#psi4
#
memory 32 gb

molecule  {
0 1
  S       -1.4679970    -1.1088850     0.1509200
  O        1.4861710    -1.4617920    -0.3475990
  N        2.0842506     0.6796511     0.0956410
  C       -0.2734750     0.1140250    -0.0519740
  C        1.1480630    -0.2971330    -0.1085980
  C       -0.8491840     1.3674970    -0.1820640
  C       -2.2598870     1.3270920    -0.0933710
  C       -2.7341550     0.0450510     0.0925010
  C        3.4678020     0.4025420     0.1643440
  H       -0.2776640     2.2711280    -0.3728590
  H        1.7182220     1.5388600     0.5795510
  H       -2.9045110     2.1962980    -0.1738640
  H       -3.7641930    -0.2736150     0.1955190
  H        3.7134240    -0.2643480    -0.6614350
  H        3.7418120    -0.0946250     1.1012270
  H        4.0344840     1.3296500     0.0646150
units angstrom
no_reorient  #important for SAPT in psi4, default
symmetry c1  #important for SAPT in psi4, default
}

set PROPERTIES_ORIGIN ["COM"]
properties('MP2/aug-cc-pvtz', properties = ['dipole'])
--------------------------------------------------------------------------

    Molecular point group: c1
  Charge       = 0
  Multiplicity = 1
  Basis Set: AUG-CC-PVTZ
    Blend: AUG-CC-PVTZ
  Basis Set: (AUG-CC-PVTZ AUX)
    Blend: AUG-CC-PVTZ-JKFIT

    Orbital Energies [Eh]
    ---------------------

    Doubly Occupied:

       1A    -91.997535     2A    -20.521303     3A    -15.592110
       4A    -11.362166     5A    -11.280339     6A    -11.278820
       7A    -11.264046     8A    -11.257974     9A    -11.251796
      10A     -8.997218    11A     -6.678045    12A     -6.677501
      13A     -6.676819    14A     -1.378528    15A     -1.234945
      16A     -1.185756    17A     -1.022952    18A     -1.002040
      19A     -0.948360    20A     -0.828995    21A     -0.772120
      22A     -0.762610    23A     -0.723169    24A     -0.653531
      25A     -0.641030    26A     -0.630214    27A     -0.582481
      28A     -0.574050    29A     -0.557930    30A     -0.546312
      31A     -0.534968    32A     -0.510975    33A     -0.487223
      34A     -0.436005    35A     -0.395621    36A     -0.357942
      37A     -0.337004

  @DF-RHF Final Energy:  -758.26487232549607

   => Energetics <=

    Nuclear Repulsion Energy =            500.0875713788245776
    One-Electron Energy =               -2032.8240173987392154
    Two-Electron Energy =                 774.4715736944185664
    Total Energy =                       -758.2648723254960714
  Basis Set: (AUG-CC-PVTZ AUX)
    Blend: AUG-CC-PVTZ-RI
    Molecular point group: c1

    Geometry (in Angstrom), charge = 0, multiplicity = 1:

       Center              X                  Y                   Z               Mass
    ------------   -----------------  -----------------  -----------------  -----------------
         S           -1.427739751000    -1.058874703516     0.156640832934    31.972071174400
         O            1.526428249000    -1.411781703516    -0.341878167066    15.994914619570
         N            2.124507849000     0.729661396484     0.101361832934    14.003074004430
         C           -0.233217751000     0.164035296484    -0.046253167066    12.000000000000
         C            1.188320249000    -0.247122703516    -0.102877167066    12.000000000000
         C           -0.808926751000     1.417507296484    -0.176343167066    12.000000000000
         C           -2.219629751000     1.377102296484    -0.087650167066    12.000000000000
         C           -2.693897751000     0.095061296484     0.098221832934    12.000000000000
         C            3.508059249000     0.452552296484     0.170064832934    12.000000000000
         H           -0.237406751000     2.321138296484    -0.367138167066     1.007825032230
         H            1.758479249000     1.588870296484     0.585271832934     1.007825032230
         H           -2.864253751000     2.246308296484    -0.168143167066     1.007825032230
         H           -3.723935751000    -0.223604703516     0.201239832934     1.007825032230
         H            3.753681249000    -0.214337703516    -0.655714167066     1.007825032230
         H            3.782069249000    -0.044614703516     1.106947832934     1.007825032230
         H            4.074741249000     1.379660296484     0.070335832934     1.007825032230

  Basis Set: AUG-CC-PVTZ
    Blend: AUG-CC-PVTZ
  Basis Set: (AUG-CC-PVTZ AUX)
    Blend: AUG-CC-PVTZ-JKFIT
	 Reference Energy          =    -758.2648723254960714 [Eh]
	 Singles Energy            =      -0.0000000000000000 [Eh]
	 Same-Spin Energy          =      -0.4438785495870620 [Eh]
	 Opposite-Spin Energy      =      -1.3481788038940810 [Eh]
	 Correlation Energy        =      -1.7920573534811428 [Eh]
	 Total Energy              =    -760.0569296789772125 [Eh]

	 ================> DF-SCS-MP2 Energies <==================
	-----------------------------------------------------------
	 SCS Same-Spin Scale       =       0.3333333333333333 [-]
	 SCS Opposite-Spin Scale   =       1.2000000000000000 [-]
	 SCS Same-Spin Energy      =      -0.1479595165290206 [Eh]
	 SCS Opposite-Spin Energy  =      -1.6178145646728972 [Eh]
	 SCS Correlation Energy    =      -1.7657740812019178 [Eh]
	 SCS Total Energy          =    -760.0306464066979970 [Eh]
	-----------------------------------------------------------

  Dipole Moment: [D]
     X:    -0.4531      Y:     3.6688      Z:     1.0705     Total:     3.8485

*** Psi4 exiting successfully. Buy a developer a beer!
