                               Psi4 1.3.2 release

  ==> Input File <==

--------------------------------------------------------------------------
#psi4
#
memory 32 gb

molecule  {
0 1
  S       -1.4679970    -1.1088850     0.1509200
  O        1.4861710    -1.4617920    -0.3475990
  N        2.0488620     0.7112420     0.1011850
  C       -0.2734750     0.1140250    -0.0519740
  C        1.1480630    -0.2971330    -0.1085980
  C       -0.8491840     1.3674970    -0.1820640
  C       -2.2598870     1.3270920    -0.0933710
  C       -2.8818895     0.1796915     0.0856847
  C        3.4678020     0.4025420     0.1643440
  H       -0.2776640     2.2711280    -0.3728590
  H        1.7182220     1.5388600     0.5795510
  H       -2.9045110     2.1962980    -0.1738640
  H       -3.7641930    -0.2736150     0.1955190
  H        3.7134240    -0.2643480    -0.6614350
  H        3.7418120    -0.0946250     1.1012270
  H        4.0344840     1.3296500     0.0646150
units angstrom
no_reorient  #important for SAPT in psi4, default
symmetry c1  #important for SAPT in psi4, default
}

set PROPERTIES_ORIGIN ["COM"]
properties('MP2/aug-cc-pvtz', properties = ['dipole'])
--------------------------------------------------------------------------

    Molecular point group: c1
  Charge       = 0
  Multiplicity = 1
  Basis Set: AUG-CC-PVTZ
    Blend: AUG-CC-PVTZ
  Basis Set: (AUG-CC-PVTZ AUX)
    Blend: AUG-CC-PVTZ-JKFIT

    Orbital Energies [Eh]
    ---------------------

    Doubly Occupied:

       1A    -91.983193     2A    -20.527570     3A    -15.593965
       4A    -11.366205     5A    -11.286772     6A    -11.280968
       7A    -11.263565     8A    -11.263559     9A    -11.254412
      10A     -8.981306    11A     -6.662094    12A     -6.661343
      13A     -6.660799    14A     -1.381299    15A     -1.236127
      16A     -1.173999    17A     -1.035533    18A     -0.978500
      19A     -0.954279    20A     -0.840030    21A     -0.790322
      22A     -0.771141    23A     -0.722055    24A     -0.650246
      25A     -0.643283    26A     -0.630550    27A     -0.609601
      28A     -0.581568    29A     -0.555097    30A     -0.554586
      31A     -0.516095    32A     -0.506438    33A     -0.450713
      34A     -0.434700    35A     -0.402058    36A     -0.364557
      37A     -0.335229

  @DF-RHF Final Energy:  -758.24062772560274

   => Energetics <=

    Nuclear Repulsion Energy =            496.5817588798905717
    One-Electron Energy =               -2025.8372528182176211
    Two-Electron Energy =                 771.0148662127244279
    Total Energy =                       -758.2406277256027352
  Basis Set: (AUG-CC-PVTZ AUX)
    Blend: AUG-CC-PVTZ-RI
    Molecular point group: c1

    Geometry (in Angstrom), charge = 0, multiplicity = 1:

       Center              X                  Y                   Z               Mass
    ------------   -----------------  -----------------  -----------------  -----------------
         S           -1.411654901942    -1.073468272870     0.156670349421    31.972071174400
         O            1.542513098058    -1.426375272870    -0.341848650579    15.994914619570
         N            2.105204098058     0.746658727130     0.106935349421    14.003074004430
         C           -0.217132901942     0.149441727130    -0.046223650579    12.000000000000
         C            1.204405098058    -0.261716272870    -0.102847650579    12.000000000000
         C           -0.792841901942     1.402913727130    -0.176313650579    12.000000000000
         C           -2.203544901942     1.362508727130    -0.087620650579    12.000000000000
         C           -2.825547401942     0.215108227130     0.091435049421    12.000000000000
         C            3.524144098058     0.437958727130     0.170094349421    12.000000000000
         H           -0.221321901942     2.306544727130    -0.367108650579     1.007825032230
         H            1.774564098058     1.574276727130     0.585301349421     1.007825032230
         H           -2.848168901942     2.231714727130    -0.168113650579     1.007825032230
         H           -3.707850901942    -0.238198272870     0.201269349421     1.007825032230
         H            3.769766098058    -0.228931272870    -0.655684650579     1.007825032230
         H            3.798154098058    -0.059208272870     1.106977349421     1.007825032230
         H            4.090826098058     1.365066727130     0.070365349421     1.007825032230

  Basis Set: AUG-CC-PVTZ
    Blend: AUG-CC-PVTZ
  Basis Set: (AUG-CC-PVTZ AUX)
    Blend: AUG-CC-PVTZ-JKFIT
	 Reference Energy          =    -758.2406277256027352 [Eh]
	 Singles Energy            =      -0.0000000000000000 [Eh]
	 Same-Spin Energy          =      -0.4420694499301087 [Eh]
	 Opposite-Spin Energy      =      -1.3490629978411455 [Eh]
	 Correlation Energy        =      -1.7911324477712540 [Eh]
	 Total Energy              =    -760.0317601733739821 [Eh]

	 ================> DF-SCS-MP2 Energies <==================
	-----------------------------------------------------------
	 SCS Same-Spin Scale       =       0.3333333333333333 [-]
	 SCS Opposite-Spin Scale   =       1.2000000000000000 [-]
	 SCS Same-Spin Energy      =      -0.1473564833100362 [Eh]
	 SCS Opposite-Spin Energy  =      -1.6188755974093745 [Eh]
	 SCS Correlation Energy    =      -1.7662320807194107 [Eh]
	 SCS Total Energy          =    -760.0068598063221543 [Eh]
	-----------------------------------------------------------

  Dipole Moment: [D]
     X:    -0.3157      Y:     3.8770      Z:     1.0489     Total:     4.0288

*** Psi4 exiting successfully. Buy a developer a beer!
