                               Psi4 1.3.2 release

  ==> Input File <==

--------------------------------------------------------------------------
#psi4
#
memory 32 gb

molecule  {
0 1
  S       -1.3908446    -1.0188307     0.1350445
  O        1.4861710    -1.4617920    -0.3475990
  N        2.0488620     0.7112420     0.1011850
  C       -0.2734750     0.1140250    -0.0519740
  C        1.1480630    -0.2971330    -0.1085980
  C       -0.8491840     1.3674970    -0.1820640
  C       -2.2598870     1.3270920    -0.0933710
  C       -2.7341550     0.0450510     0.0925010
  C        3.4678020     0.4025420     0.1643440
  H       -0.2776640     2.2711280    -0.3728590
  H        1.7182220     1.5388600     0.5795510
  H       -2.9045110     2.1962980    -0.1738640
  H       -3.7641930    -0.2736150     0.1955190
  H        3.7134240    -0.2643480    -0.6614350
  H        3.7418120    -0.0946250     1.1012270
  H        4.0344840     1.3296500     0.0646150
units angstrom
no_reorient  #important for SAPT in psi4, default
symmetry c1  #important for SAPT in psi4, default
}

set PROPERTIES_ORIGIN ["COM"]
properties('MP2/aug-cc-pvtz', properties = ['dipole'])
--------------------------------------------------------------------------

    Molecular point group: c1
  Charge       = 0
  Multiplicity = 1
  Basis Set: AUG-CC-PVTZ
    Blend: AUG-CC-PVTZ
  Basis Set: (AUG-CC-PVTZ AUX)
    Blend: AUG-CC-PVTZ-JKFIT

    Orbital Energies [Eh]
    ---------------------

    Doubly Occupied:

       1A    -91.991475     2A    -20.525856     3A    -15.592359
       4A    -11.365332     5A    -11.274816     6A    -11.267557
       7A    -11.262661     8A    -11.255947     9A    -11.250425
      10A     -8.994476    11A     -6.675566    12A     -6.674798
      13A     -6.674015    14A     -1.381061    15A     -1.235140
      16A     -1.202449    17A     -1.029707    18A     -1.000004
      19A     -0.949345    20A     -0.833590    21A     -0.776295
      22A     -0.769426    23A     -0.719181    24A     -0.650997
      25A     -0.644243    26A     -0.629279    27A     -0.581516
      28A     -0.571547    29A     -0.565274    30A     -0.556992
      31A     -0.543528    32A     -0.516090    33A     -0.477994
      34A     -0.439212    35A     -0.401661    36A     -0.356465
      37A     -0.336267

  @DF-RHF Final Energy:  -758.25943962121869

   => Energetics <=

    Nuclear Repulsion Energy =            505.4765749035525459
    One-Electron Energy =               -2043.5269366757540865
    Two-Electron Energy =                 779.7909221509828512
    Total Energy =                       -758.2594396212186894
  Basis Set: (AUG-CC-PVTZ AUX)
    Blend: AUG-CC-PVTZ-RI
    Molecular point group: c1

    Geometry (in Angstrom), charge = 0, multiplicity = 1:

       Center              X                  Y                   Z               Mass
    ------------   -----------------  -----------------  -----------------  -----------------
         S           -1.364564838291    -0.992373646455     0.143814012789    31.972071174400
         O            1.512450761709    -1.435334946455    -0.338829487211    15.994914619570
         N            2.075141761709     0.737699053545     0.109954512789    14.003074004430
         C           -0.247195238291     0.140482053545    -0.043204487211    12.000000000000
         C            1.174342761709    -0.270675946455    -0.099828487211    12.000000000000
         C           -0.822904238291     1.393954053545    -0.173294487211    12.000000000000
         C           -2.233607238291     1.353549053545    -0.084601487211    12.000000000000
         C           -2.707875238291     0.071508053545     0.101270512789    12.000000000000
         C            3.494081761709     0.428999053545     0.173113512789    12.000000000000
         H           -0.251384238291     2.297585053545    -0.364089487211     1.007825032230
         H            1.744501761709     1.565317053545     0.588320512789     1.007825032230
         H           -2.878231238291     2.222755053545    -0.165094487211     1.007825032230
         H           -3.737913238291    -0.247157946455     0.204288512789     1.007825032230
         H            3.739703761709    -0.237890946455    -0.652665487211     1.007825032230
         H            3.768091761709    -0.068167946455     1.109996512789     1.007825032230
         H            4.060763761709     1.356107053545     0.073384512789     1.007825032230

  Basis Set: AUG-CC-PVTZ
    Blend: AUG-CC-PVTZ
  Basis Set: (AUG-CC-PVTZ AUX)
    Blend: AUG-CC-PVTZ-JKFIT
	 Reference Energy          =    -758.2594396212186894 [Eh]
	 Singles Energy            =      -0.0000000000000000 [Eh]
	 Same-Spin Energy          =      -0.4450115895028146 [Eh]
	 Opposite-Spin Energy      =      -1.3475987561341660 [Eh]
	 Correlation Energy        =      -1.7926103456369806 [Eh]
	 Total Energy              =    -760.0520499668556340 [Eh]

	 ================> DF-SCS-MP2 Energies <==================
	-----------------------------------------------------------
	 SCS Same-Spin Scale       =       0.3333333333333333 [-]
	 SCS Opposite-Spin Scale   =       1.2000000000000000 [-]
	 SCS Same-Spin Energy      =      -0.1483371965009382 [Eh]
	 SCS Opposite-Spin Energy  =      -1.6171185073609993 [Eh]
	 SCS Correlation Energy    =      -1.7654557038619374 [Eh]
	 SCS Total Energy          =    -760.0248953250805926 [Eh]
	-----------------------------------------------------------

  Dipole Moment: [D]
     X:    -0.2632      Y:     3.5763      Z:     1.0854     Total:     3.7467

*** Psi4 exiting successfully. Buy a developer a beer!
