                               Psi4 1.3.2 release

  ==> Input File <==

--------------------------------------------------------------------------
#psi4
#
memory 32 gb

molecule  {
0 1
  S       -1.4679970    -1.1088850     0.1509200
  O        1.4861710    -1.4617920    -0.3475990
  N        2.0488620     0.7112420     0.1011850
  C       -0.1346980     0.2561000    -0.0755458
  C        1.1480630    -0.2971330    -0.1085980
  C       -0.8491840     1.3674970    -0.1820640
  C       -2.2598870     1.3270920    -0.0933710
  C       -2.7341550     0.0450510     0.0925010
  C        3.4678020     0.4025420     0.1643440
  H       -0.2776640     2.2711280    -0.3728590
  H        1.7182220     1.5388600     0.5795510
  H       -2.9045110     2.1962980    -0.1738640
  H       -3.7641930    -0.2736150     0.1955190
  H        3.7134240    -0.2643480    -0.6614350
  H        3.7418120    -0.0946250     1.1012270
  H        4.0344840     1.3296500     0.0646150
units angstrom
no_reorient  #important for SAPT in psi4, default
symmetry c1  #important for SAPT in psi4, default
}

set PROPERTIES_ORIGIN ["COM"]
properties('MP2/aug-cc-pvtz', properties = ['dipole'])
--------------------------------------------------------------------------

    Molecular point group: c1
  Charge       = 0
  Multiplicity = 1
  Basis Set: AUG-CC-PVTZ
    Blend: AUG-CC-PVTZ
  Basis Set: (AUG-CC-PVTZ AUX)
    Blend: AUG-CC-PVTZ-JKFIT

    Orbital Energies [Eh]
    ---------------------

    Doubly Occupied:

       1A    -91.984949     2A    -20.527327     3A    -15.589366
       4A    -11.362032     5A    -11.290012     6A    -11.281547
       7A    -11.271490     8A    -11.260448     9A    -11.252175
      10A     -8.983185    11A     -6.663994    12A     -6.663073
      13A     -6.662647    14A     -1.381731    15A     -1.239221
      16A     -1.175808    17A     -1.043331    18A     -0.991739
      19A     -0.946701    20A     -0.852510    21A     -0.778612
      22A     -0.770269    23A     -0.721070    24A     -0.649065
      25A     -0.645903    26A     -0.631066    27A     -0.595134
      28A     -0.580111    29A     -0.558632    30A     -0.552611
      31A     -0.515062    32A     -0.506577    33A     -0.459458
      34A     -0.432317    35A     -0.403332    36A     -0.368217
      37A     -0.333272

  @DF-RHF Final Energy:  -758.23616900482364

   => Energetics <=

    Nuclear Repulsion Energy =            498.7694450518816893
    One-Electron Energy =               -2030.1632410862125653
    Two-Electron Energy =                 773.1576270295073527
    Total Energy =                       -758.2361690048236369
  Basis Set: (AUG-CC-PVTZ AUX)
    Blend: AUG-CC-PVTZ-RI
    Molecular point group: c1

    Geometry (in Angstrom), charge = 0, multiplicity = 1:

       Center              X                  Y                   Z               Mass
    ------------   -----------------  -----------------  -----------------  -----------------
         S           -1.436034565279    -1.074100884849     0.158096098297    31.972071174400
         O            1.518133434721    -1.427007884849    -0.340422901703    15.994914619570
         N            2.080824434721     0.746026115151     0.108361098297    14.003074004430
         C           -0.102735565279     0.290884115151    -0.068369701703    12.000000000000
         C            1.180025434721    -0.262348884849    -0.101421901703    12.000000000000
         C           -0.817221565279     1.402281115151    -0.174887901703    12.000000000000
         C           -2.227924565279     1.361876115151    -0.086194901703    12.000000000000
         C           -2.702192565279     0.079835115151     0.099677098297    12.000000000000
         C            3.499764434721     0.437326115151     0.171520098297    12.000000000000
         H           -0.245701565279     2.305912115151    -0.365682901703     1.007825032230
         H            1.750184434721     1.573644115151     0.586727098297     1.007825032230
         H           -2.872548565279     2.231082115151    -0.166687901703     1.007825032230
         H           -3.732230565279    -0.238830884849     0.202695098297     1.007825032230
         H            3.745386434721    -0.229563884849    -0.654258901703     1.007825032230
         H            3.773774434721    -0.059840884849     1.108403098297     1.007825032230
         H            4.066446434721     1.364434115151     0.071791098297     1.007825032230

  Basis Set: AUG-CC-PVTZ
    Blend: AUG-CC-PVTZ
  Basis Set: (AUG-CC-PVTZ AUX)
    Blend: AUG-CC-PVTZ-JKFIT
	 Reference Energy          =    -758.2361690048236369 [Eh]
	 Singles Energy            =      -0.0000000000000000 [Eh]
	 Same-Spin Energy          =      -0.4440008381982837 [Eh]
	 Opposite-Spin Energy      =      -1.3504446887434860 [Eh]
	 Correlation Energy        =      -1.7944455269417698 [Eh]
	 Total Energy              =    -760.0306145317654227 [Eh]

	 ================> DF-SCS-MP2 Energies <==================
	-----------------------------------------------------------
	 SCS Same-Spin Scale       =       0.3333333333333333 [-]
	 SCS Opposite-Spin Scale   =       1.2000000000000000 [-]
	 SCS Same-Spin Energy      =      -0.1480002793994279 [Eh]
	 SCS Opposite-Spin Energy  =      -1.6205336264921832 [Eh]
	 SCS Correlation Energy    =      -1.7685339058916112 [Eh]
	 SCS Total Energy          =    -760.0047029107151957 [Eh]
	-----------------------------------------------------------

  Dipole Moment: [D]
     X:    -0.2741      Y:     3.9073      Z:     1.0213     Total:     4.0478

*** Psi4 exiting successfully. Buy a developer a beer!
