                               Psi4 1.3.2 release

  ==> Input File <==

--------------------------------------------------------------------------
#psi4
#
memory 32 gb

molecule  {
0 1
  S       -1.4679970    -1.1088850     0.1509200
  O        1.4861710    -1.4617920    -0.3475990
  N        2.0488620     0.7112420     0.1011850
  C       -0.2734750     0.1140250    -0.0519740
  C        1.1480630    -0.2971330    -0.1085980
  C       -0.9322900     1.5484410    -0.2008430
  C       -2.2598870     1.3270920    -0.0933710
  C       -2.7341550     0.0450510     0.0925010
  C        3.4678020     0.4025420     0.1643440
  H       -0.2776640     2.2711280    -0.3728590
  H        1.7182220     1.5388600     0.5795510
  H       -2.9045110     2.1962980    -0.1738640
  H       -3.7641930    -0.2736150     0.1955190
  H        3.7134240    -0.2643480    -0.6614350
  H        3.7418120    -0.0946250     1.1012270
  H        4.0344840     1.3296500     0.0646150
units angstrom
no_reorient  #important for SAPT in psi4, default
symmetry c1  #important for SAPT in psi4, default
}

set PROPERTIES_ORIGIN ["COM"]
properties('MP2/aug-cc-pvtz', properties = ['dipole'])
--------------------------------------------------------------------------

    Molecular point group: c1
  Charge       = 0
  Multiplicity = 1
  Basis Set: AUG-CC-PVTZ
    Blend: AUG-CC-PVTZ
  Basis Set: (AUG-CC-PVTZ AUX)
    Blend: AUG-CC-PVTZ-JKFIT

    Orbital Energies [Eh]
    ---------------------

    Doubly Occupied:

       1A    -92.011655     2A    -20.519883     3A    -15.589081
       4A    -11.360030     5A    -11.290560     6A    -11.279029
       7A    -11.269005     8A    -11.260453     9A    -11.250813
      10A     -9.009791    11A     -6.690474    12A     -6.689950
      13A     -6.689604    14A     -1.375170    15A     -1.230717
      16A     -1.173953    17A     -1.022993    18A     -1.002881
      19A     -0.939797    20A     -0.836840    21A     -0.779495
      22A     -0.768577    23A     -0.716654    24A     -0.645669
      25A     -0.636361    26A     -0.624412    27A     -0.613433
      28A     -0.562186    29A     -0.551107    30A     -0.549731
      31A     -0.518989    32A     -0.509342    33A     -0.486578
      34A     -0.431197    35A     -0.398848    36A     -0.369430
      37A     -0.311825

  @DF-RHF Final Energy:  -758.21862604587523

   => Energetics <=

    Nuclear Repulsion Energy =            496.5833513430345079
    One-Electron Energy =               -2025.6709300058244025
    Two-Electron Energy =                 770.8689526169146120
    Total Energy =                       -758.2186260458752258
  Basis Set: (AUG-CC-PVTZ AUX)
    Blend: AUG-CC-PVTZ-RI
    Molecular point group: c1

    Geometry (in Angstrom), charge = 0, multiplicity = 1:

       Center              X                  Y                   Z               Mass
    ------------   -----------------  -----------------  -----------------  -----------------
         S           -1.417154231191    -1.077408302298     0.157688272257    31.972071174400
         O            1.537013768809    -1.430315302298    -0.340830727743    15.994914619570
         N            2.099704768809     0.742718697702     0.107953272257    14.003074004430
         C           -0.222632231191     0.145501697702    -0.045205727743    12.000000000000
         C            1.198905768809    -0.265656302298    -0.101829727743    12.000000000000
         C           -0.881447231191     1.579917697702    -0.194074727743    12.000000000000
         C           -2.209044231191     1.358568697702    -0.086602727743    12.000000000000
         C           -2.683312231191     0.076527697702     0.099269272257    12.000000000000
         C            3.518644768809     0.434018697702     0.171112272257    12.000000000000
         H           -0.226821231191     2.302604697702    -0.366090727743     1.007825032230
         H            1.769064768809     1.570336697702     0.586319272257     1.007825032230
         H           -2.853668231191     2.227774697702    -0.167095727743     1.007825032230
         H           -3.713350231191    -0.242138302298     0.202287272257     1.007825032230
         H            3.764266768809    -0.232871302298    -0.654666727743     1.007825032230
         H            3.792654768809    -0.063148302298     1.107995272257     1.007825032230
         H            4.085326768809     1.361126697702     0.071383272257     1.007825032230

  Basis Set: AUG-CC-PVTZ
    Blend: AUG-CC-PVTZ
  Basis Set: (AUG-CC-PVTZ AUX)
    Blend: AUG-CC-PVTZ-JKFIT
	 Reference Energy          =    -758.2186260458752258 [Eh]
	 Singles Energy            =      -0.0000000000000000 [Eh]
	 Same-Spin Energy          =      -0.4485491394765152 [Eh]
	 Opposite-Spin Energy      =      -1.3552169136197136 [Eh]
	 Correlation Energy        =      -1.8037660530962287 [Eh]
	 Total Energy              =    -760.0223920989714088 [Eh]

	 ================> DF-SCS-MP2 Energies <==================
	-----------------------------------------------------------
	 SCS Same-Spin Scale       =       0.3333333333333333 [-]
	 SCS Opposite-Spin Scale   =       1.2000000000000000 [-]
	 SCS Same-Spin Energy      =      -0.1495163798255051 [Eh]
	 SCS Opposite-Spin Energy  =      -1.6262602963436563 [Eh]
	 SCS Correlation Energy    =      -1.7757766761691613 [Eh]
	 SCS Total Energy          =    -759.9944027220443559 [Eh]
	-----------------------------------------------------------

  Dipole Moment: [D]
     X:    -0.4381      Y:     3.4580      Z:     1.1002     Total:     3.6552

*** Psi4 exiting successfully. Buy a developer a beer!
