                               Psi4 1.3.2 release

  ==> Input File <==

--------------------------------------------------------------------------
#psi4
#
memory 32 gb

molecule  {
0 1
  S       -1.4679970    -1.1088850     0.1509200
  O        1.4861710    -1.4617920    -0.3475990
  N        2.0488620     0.7112420     0.1011850
  C       -0.2516940     0.1238873    -0.0555848
  C        1.1480630    -0.2971330    -0.1085980
  C       -0.8491840     1.3674970    -0.1820640
  C       -2.2598870     1.3270920    -0.0933710
  C       -2.7341550     0.0450510     0.0925010
  C        3.4678020     0.4025420     0.1643440
  H       -0.2776640     2.2711280    -0.3728590
  H        1.7182220     1.5388600     0.5795510
  H       -2.9045110     2.1962980    -0.1738640
  H       -3.7641930    -0.2736150     0.1955190
  H        3.7134240    -0.2643480    -0.6614350
  H        3.7418120    -0.0946250     1.1012270
  H        4.0344840     1.3296500     0.0646150
units angstrom
no_reorient  #important for SAPT in psi4, default
symmetry c1  #important for SAPT in psi4, default
}

set PROPERTIES_ORIGIN ["COM"]
properties('MP2/aug-cc-pvtz', properties = ['dipole'])
--------------------------------------------------------------------------

    Molecular point group: c1
  Charge       = 0
  Multiplicity = 1
  Basis Set: AUG-CC-PVTZ
    Blend: AUG-CC-PVTZ
  Basis Set: (AUG-CC-PVTZ AUX)
    Blend: AUG-CC-PVTZ-JKFIT

    Orbital Energies [Eh]
    ---------------------

    Doubly Occupied:

       1A    -91.995853     2A    -20.523135     3A    -15.590201
       4A    -11.361463     5A    -11.281145     6A    -11.277183
       7A    -11.264834     8A    -11.261302     9A    -11.251416
      10A     -8.995206    11A     -6.676026    12A     -6.675454
      13A     -6.674820    14A     -1.378269    15A     -1.233426
      16A     -1.182118    17A     -1.023507    18A     -0.999269
      19A     -0.946066    20A     -0.836615    21A     -0.771327
      22A     -0.769614    23A     -0.721606    24A     -0.646451
      25A     -0.642101    26A     -0.626253    27A     -0.581071
      28A     -0.574965    29A     -0.557521    30A     -0.552623
      31A     -0.530811    32A     -0.510578    33A     -0.483291
      34A     -0.437463    35A     -0.400216    36A     -0.357165
      37A     -0.336276

  @DF-RHF Final Energy:  -758.26772676722169

   => Energetics <=

    Nuclear Repulsion Energy =            499.7867623531889194
    One-Electron Energy =               -2032.2556911553842838
    Two-Electron Energy =                 774.2012020349737895
    Total Energy =                       -758.2677267672216885
  Basis Set: (AUG-CC-PVTZ AUX)
    Blend: AUG-CC-PVTZ-RI
    Molecular point group: c1

    Geometry (in Angstrom), charge = 0, multiplicity = 1:

       Center              X                  Y                   Z               Mass
    ------------   -----------------  -----------------  -----------------  -----------------
         S           -1.426079212381    -1.062850721715     0.156397588953    31.972071174400
         O            1.528088787619    -1.415757721715    -0.342121411047    15.994914619570
         N            2.090779787619     0.757276278285     0.106662588953    14.003074004430
         C           -0.209776212381     0.169921578285    -0.050107211047    12.000000000000
         C            1.189980787619    -0.251098721715    -0.103120411047    12.000000000000
         C           -0.807266212381     1.413531278285    -0.176586411047    12.000000000000
         C           -2.217969212381     1.373126278285    -0.087893411047    12.000000000000
         C           -2.692237212381     0.091085278285     0.097978588953    12.000000000000
         C            3.509719787619     0.448576278285     0.169821588953    12.000000000000
         H           -0.235746212381     2.317162278285    -0.367381411047     1.007825032230
         H            1.760139787619     1.584894278285     0.585028588953     1.007825032230
         H           -2.862593212381     2.242332278285    -0.168386411047     1.007825032230
         H           -3.722275212381    -0.227580721715     0.200996588953     1.007825032230
         H            3.755341787619    -0.218313721715    -0.655957411047     1.007825032230
         H            3.783729787619    -0.048590721715     1.106704588953     1.007825032230
         H            4.076401787619     1.375684278285     0.070092588953     1.007825032230

  Basis Set: AUG-CC-PVTZ
    Blend: AUG-CC-PVTZ
  Basis Set: (AUG-CC-PVTZ AUX)
    Blend: AUG-CC-PVTZ-JKFIT
	 Reference Energy          =    -758.2677267672216885 [Eh]
	 Singles Energy            =      -0.0000000000000000 [Eh]
	 Same-Spin Energy          =      -0.4435420618169460 [Eh]
	 Opposite-Spin Energy      =      -1.3480391753843284 [Eh]
	 Correlation Energy        =      -1.7915812372012745 [Eh]
	 Total Energy              =    -760.0593080044229737 [Eh]

	 ================> DF-SCS-MP2 Energies <==================
	-----------------------------------------------------------
	 SCS Same-Spin Scale       =       0.3333333333333333 [-]
	 SCS Opposite-Spin Scale   =       1.2000000000000000 [-]
	 SCS Same-Spin Energy      =      -0.1478473539389820 [Eh]
	 SCS Opposite-Spin Energy  =      -1.6176470104611940 [Eh]
	 SCS Correlation Energy    =      -1.7654943644001759 [Eh]
	 SCS Total Energy          =    -760.0332211316218718 [Eh]
	-----------------------------------------------------------

  Dipole Moment: [D]
     X:    -0.3629      Y:     3.6497      Z:     1.0782     Total:     3.8229

*** Psi4 exiting successfully. Buy a developer a beer!
