                               Psi4 1.3.2 release

  ==> Input File <==

--------------------------------------------------------------------------
#psi4
#
memory 32 gb

molecule  {
0 1
  S       -1.4679970    -1.1088850     0.1509200
  O        1.4861710    -1.4617920    -0.3475990
  N        2.0488620     0.7112420     0.1011850
  C       -0.2734750     0.1140250    -0.0519740
  C        1.1480630    -0.2971330    -0.1085980
  C       -0.8491840     1.3674970    -0.1820640
  C       -2.2598870     1.3270920    -0.0933710
  C       -2.7566634     0.0535994     0.0924712
  C        3.4678020     0.4025420     0.1643440
  H       -0.2776640     2.2711280    -0.3728590
  H        1.7182220     1.5388600     0.5795510
  H       -2.9045110     2.1962980    -0.1738640
  H       -3.7641930    -0.2736150     0.1955190
  H        3.7134240    -0.2643480    -0.6614350
  H        3.7418120    -0.0946250     1.1012270
  H        4.0344840     1.3296500     0.0646150
units angstrom
no_reorient  #important for SAPT in psi4, default
symmetry c1  #important for SAPT in psi4, default
}

set PROPERTIES_ORIGIN ["COM"]
properties('MP2/aug-cc-pvtz', properties = ['dipole'])
--------------------------------------------------------------------------

    Molecular point group: c1
  Charge       = 0
  Multiplicity = 1
  Basis Set: AUG-CC-PVTZ
    Blend: AUG-CC-PVTZ
  Basis Set: (AUG-CC-PVTZ AUX)
    Blend: AUG-CC-PVTZ-JKFIT

    Orbital Energies [Eh]
    ---------------------

    Doubly Occupied:

       1A    -91.995465     2A    -20.523995     3A    -15.591319
       4A    -11.363258     5A    -11.279435     6A    -11.278149
       7A    -11.262951     8A    -11.262010     9A    -11.251982
      10A     -8.994807    11A     -6.675613    12A     -6.675088
      13A     -6.674427    14A     -1.378602    15A     -1.233742
      16A     -1.181677    17A     -1.021340    18A     -0.998191
      19A     -0.947190    20A     -0.833929    21A     -0.774249
      22A     -0.769474    23A     -0.721408    24A     -0.647095
      25A     -0.641861    26A     -0.626653    27A     -0.580878
      28A     -0.577099    29A     -0.557183    30A     -0.553317
      31A     -0.531425    32A     -0.510486    33A     -0.482750
      34A     -0.437094    35A     -0.400634    36A     -0.356284
      37A     -0.336449

  @DF-RHF Final Energy:  -758.26800038889837

   => Energetics <=

    Nuclear Repulsion Energy =            499.3987006733672160
    One-Electron Energy =               -2031.4783834783820566
    Two-Electron Energy =                 773.8116824161163549
    Total Energy =                       -758.2680003888983720
  Basis Set: (AUG-CC-PVTZ AUX)
    Blend: AUG-CC-PVTZ-RI
    Molecular point group: c1

    Geometry (in Angstrom), charge = 0, multiplicity = 1:

       Center              X                  Y                   Z               Mass
    ------------   -----------------  -----------------  -----------------  -----------------
         S           -1.422310565533    -1.062738920131     0.156092876666    31.972071174400
         O            1.531857434467    -1.415645920131    -0.342426123334    15.994914619570
         N            2.094548434467     0.757388079869     0.106357876666    14.003074004430
         C           -0.227788565533     0.160171079869    -0.046801123334    12.000000000000
         C            1.193749434467    -0.250986920131    -0.103425123334    12.000000000000
         C           -0.803497565533     1.413643079869    -0.176891123334    12.000000000000
         C           -2.214200565533     1.373238079869    -0.088198123334    12.000000000000
         C           -2.710976965533     0.099745479869     0.097644076666    12.000000000000
         C            3.513488434467     0.448688079869     0.169516876666    12.000000000000
         H           -0.231977565533     2.317274079869    -0.367686123334     1.007825032230
         H            1.763908434467     1.585006079869     0.584723876666     1.007825032230
         H           -2.858824565533     2.242444079869    -0.168691123334     1.007825032230
         H           -3.718506565533    -0.227468920131     0.200691876666     1.007825032230
         H            3.759110434467    -0.218201920131    -0.656262123334     1.007825032230
         H            3.787498434467    -0.048478920131     1.106399876666     1.007825032230
         H            4.080170434467     1.375796079869     0.069787876666     1.007825032230

  Basis Set: AUG-CC-PVTZ
    Blend: AUG-CC-PVTZ
  Basis Set: (AUG-CC-PVTZ AUX)
    Blend: AUG-CC-PVTZ-JKFIT
	 Reference Energy          =    -758.2680003888983720 [Eh]
	 Singles Energy            =      -0.0000000000000000 [Eh]
	 Same-Spin Energy          =      -0.4433208993646281 [Eh]
	 Opposite-Spin Energy      =      -1.3479171598711586 [Eh]
	 Correlation Energy        =      -1.7912380592357866 [Eh]
	 Total Energy              =    -760.0592384481341242 [Eh]

	 ================> DF-SCS-MP2 Energies <==================
	-----------------------------------------------------------
	 SCS Same-Spin Scale       =       0.3333333333333333 [-]
	 SCS Opposite-Spin Scale   =       1.2000000000000000 [-]
	 SCS Same-Spin Energy      =      -0.1477736331215427 [Eh]
	 SCS Opposite-Spin Energy  =      -1.6175005918453902 [Eh]
	 SCS Correlation Energy    =      -1.7652742249669329 [Eh]
	 SCS Total Energy          =    -760.0332746138652737 [Eh]
	-----------------------------------------------------------

  Dipole Moment: [D]
     X:    -0.3134      Y:     3.6396      Z:     1.0789     Total:     3.8091

*** Psi4 exiting successfully. Buy a developer a beer!
