                               Psi4 1.3.2 release

  ==> Input File <==

--------------------------------------------------------------------------
#psi4
#
memory 32 gb

molecule  {
0 1
  S       -1.3790014    -1.1895965     0.1528186
  O        1.4861710    -1.4617920    -0.3475990
  N        2.0488620     0.7112420     0.1011850
  C       -0.2734750     0.1140250    -0.0519740
  C        1.1480630    -0.2971330    -0.1085980
  C       -0.8491840     1.3674970    -0.1820640
  C       -2.2598870     1.3270920    -0.0933710
  C       -2.7341550     0.0450510     0.0925010
  C        3.4678020     0.4025420     0.1643440
  H       -0.2776640     2.2711280    -0.3728590
  H        1.7182220     1.5388600     0.5795510
  H       -2.9045110     2.1962980    -0.1738640
  H       -3.7641930    -0.2736150     0.1955190
  H        3.7134240    -0.2643480    -0.6614350
  H        3.7418120    -0.0946250     1.1012270
  H        4.0344840     1.3296500     0.0646150
units angstrom
no_reorient  #important for SAPT in psi4, default
symmetry c1  #important for SAPT in psi4, default
}

set PROPERTIES_ORIGIN ["COM"]
properties('MP2/aug-cc-pvtz', properties = ['dipole'])
--------------------------------------------------------------------------

    Molecular point group: c1
  Charge       = 0
  Multiplicity = 1
  Basis Set: AUG-CC-PVTZ
    Blend: AUG-CC-PVTZ
  Basis Set: (AUG-CC-PVTZ AUX)
    Blend: AUG-CC-PVTZ-JKFIT

    Orbital Energies [Eh]
    ---------------------

    Doubly Occupied:

       1A    -91.997832     2A    -20.524722     3A    -15.590871
       4A    -11.361949     5A    -11.287134     6A    -11.279674
       7A    -11.263779     8A    -11.261706     9A    -11.255341
      10A     -8.995391    11A     -6.676146    12A     -6.675382
      13A     -6.674835    14A     -1.379539    15A     -1.233482
      16A     -1.171461    17A     -1.021342    18A     -0.990124
      19A     -0.945261    20A     -0.832833    21A     -0.772861
      22A     -0.767723    23A     -0.719298    24A     -0.645770
      25A     -0.640624    26A     -0.624658    27A     -0.580356
      28A     -0.573746    29A     -0.555246    30A     -0.552660
      31A     -0.521175    32A     -0.504678    33A     -0.485295
      34A     -0.437149    35A     -0.400883    36A     -0.360386
      37A     -0.331393

  @DF-RHF Final Energy:  -758.25903840884882

   => Energetics <=

    Nuclear Repulsion Energy =            498.0032911143204046
    One-Electron Energy =               -2028.7392531831847009
    Two-Electron Energy =                 772.4769236600155864
    Total Energy =                       -758.2590384088488236
  Basis Set: (AUG-CC-PVTZ AUX)
    Blend: AUG-CC-PVTZ-RI
    Molecular point group: c1

    Geometry (in Angstrom), charge = 0, multiplicity = 1:

       Center              X                  Y                   Z               Mass
    ------------   -----------------  -----------------  -----------------  -----------------
         S           -1.355406637946    -1.124424731342     0.157558504882    31.972071174400
         O            1.509765762054    -1.396620231342    -0.342859095118    15.994914619570
         N            2.072456762054     0.776413768658     0.105924904882    14.003074004430
         C           -0.249880237946     0.179196768658    -0.047234095118    12.000000000000
         C            1.171657762054    -0.231961231342    -0.103858095118    12.000000000000
         C           -0.825589237946     1.432668768658    -0.177324095118    12.000000000000
         C           -2.236292237946     1.392263768658    -0.088631095118    12.000000000000
         C           -2.710560237946     0.110222768658     0.097240904882    12.000000000000
         C            3.491396762054     0.467713768658     0.169083904882    12.000000000000
         H           -0.254069237946     2.336299768658    -0.368119095118     1.007825032230
         H            1.741816762054     1.604031768658     0.584290904882     1.007825032230
         H           -2.880916237946     2.261469768658    -0.169124095118     1.007825032230
         H           -3.740598237946    -0.208443231342     0.200258904882     1.007825032230
         H            3.737018762054    -0.199176231342    -0.656695095118     1.007825032230
         H            3.765406762054    -0.029453231342     1.105966904882     1.007825032230
         H            4.058078762054     1.394821768658     0.069354904882     1.007825032230

  Basis Set: AUG-CC-PVTZ
    Blend: AUG-CC-PVTZ
  Basis Set: (AUG-CC-PVTZ AUX)
    Blend: AUG-CC-PVTZ-JKFIT
	 Reference Energy          =    -758.2590384088488236 [Eh]
	 Singles Energy            =      -0.0000000000000000 [Eh]
	 Same-Spin Energy          =      -0.4430055037365820 [Eh]
	 Opposite-Spin Energy      =      -1.3498113805520879 [Eh]
	 Correlation Energy        =      -1.7928168842886700 [Eh]
	 Total Energy              =    -760.0518552931374643 [Eh]

	 ================> DF-SCS-MP2 Energies <==================
	-----------------------------------------------------------
	 SCS Same-Spin Scale       =       0.3333333333333333 [-]
	 SCS Opposite-Spin Scale   =       1.2000000000000000 [-]
	 SCS Same-Spin Energy      =      -0.1476685012455273 [Eh]
	 SCS Opposite-Spin Energy  =      -1.6197736566625054 [Eh]
	 SCS Correlation Energy    =      -1.7674421579080328 [Eh]
	 SCS Total Energy          =    -760.0264805667568453 [Eh]
	-----------------------------------------------------------

  Dipole Moment: [D]
     X:    -0.2549      Y:     3.6740      Z:     1.0610     Total:     3.8326

*** Psi4 exiting successfully. Buy a developer a beer!
