                               Psi4 1.3.2 release

  ==> Input File <==

--------------------------------------------------------------------------
#psi4
#
memory 32 gb

molecule  {
0 1
  S       -1.4679970    -1.1088850     0.1509200
  O        1.5068643    -1.4559296    -0.3459187
  N        2.0488620     0.7112420     0.1011850
  C       -0.2734750     0.1140250    -0.0519740
  C        1.1480630    -0.2971330    -0.1085980
  C       -0.8491840     1.3674970    -0.1820640
  C       -2.2598870     1.3270920    -0.0933710
  C       -2.7341550     0.0450510     0.0925010
  C        3.4678020     0.4025420     0.1643440
  H       -0.2776640     2.2711280    -0.3728590
  H        1.7182220     1.5388600     0.5795510
  H       -2.9045110     2.1962980    -0.1738640
  H       -3.7641930    -0.2736150     0.1955190
  H        3.7134240    -0.2643480    -0.6614350
  H        3.7418120    -0.0946250     1.1012270
  H        4.0344840     1.3296500     0.0646150
units angstrom
no_reorient  #important for SAPT in psi4, default
symmetry c1  #important for SAPT in psi4, default
}

set PROPERTIES_ORIGIN ["COM"]
properties('MP2/aug-cc-pvtz', properties = ['dipole'])
--------------------------------------------------------------------------

    Molecular point group: c1
  Charge       = 0
  Multiplicity = 1
  Basis Set: AUG-CC-PVTZ
    Blend: AUG-CC-PVTZ
  Basis Set: (AUG-CC-PVTZ AUX)
    Blend: AUG-CC-PVTZ-JKFIT

    Orbital Energies [Eh]
    ---------------------

    Doubly Occupied:

       1A    -91.996845     2A    -20.522944     3A    -15.589684
       4A    -11.362431     5A    -11.279857     6A    -11.277684
       7A    -11.263500     8A    -11.260862     9A    -11.251440
      10A     -8.996582    11A     -6.677417    12A     -6.676865
      13A     -6.676191    14A     -1.378105    15A     -1.231859
      16A     -1.184856    17A     -1.021064    18A     -1.001533
      19A     -0.945781    20A     -0.833148    21A     -0.771676
      22A     -0.768685    23A     -0.722454    24A     -0.645784
      25A     -0.641613    26A     -0.625508    27A     -0.579518
      28A     -0.573898    29A     -0.557572    30A     -0.552022
      31A     -0.533451    32A     -0.511658    33A     -0.486839
      34A     -0.436750    35A     -0.399379    36A     -0.357579
      37A     -0.336597

  @DF-RHF Final Energy:  -758.26844786518984

   => Energetics <=

    Nuclear Repulsion Energy =            499.8445440200726466
    One-Electron Energy =               -2032.3667193866674552
    Two-Electron Energy =                 774.2537275014050238
    Total Energy =                       -758.2684478651898417
  Basis Set: (AUG-CC-PVTZ AUX)
    Blend: AUG-CC-PVTZ-RI
    Molecular point group: c1

    Geometry (in Angstrom), charge = 0, multiplicity = 1:

       Center              X                  Y                   Z               Mass
    ------------   -----------------  -----------------  -----------------  -----------------
         S           -1.426572852857    -1.062676433175     0.155899762772    31.972071174400
         O            1.548288447143    -1.409721033175    -0.340938937228    15.994914619570
         N            2.090286147143     0.757450566825     0.106164762772    14.003074004430
         C           -0.232050852857     0.160233566825    -0.046994237228    12.000000000000
         C            1.189487147143    -0.250924433175    -0.103618237228    12.000000000000
         C           -0.807759852857     1.413705566825    -0.177084237228    12.000000000000
         C           -2.218462852857     1.373300566825    -0.088391237228    12.000000000000
         C           -2.692730852857     0.091259566825     0.097480762772    12.000000000000
         C            3.509226147143     0.448750566825     0.169323762772    12.000000000000
         H           -0.236239852857     2.317336566825    -0.367879237228     1.007825032230
         H            1.759646147143     1.585068566825     0.584530762772     1.007825032230
         H           -2.863086852857     2.242506566825    -0.168884237228     1.007825032230
         H           -3.722768852857    -0.227406433175     0.200498762772     1.007825032230
         H            3.754848147143    -0.218139433175    -0.656455237228     1.007825032230
         H            3.783236147143    -0.048416433175     1.106206762772     1.007825032230
         H            4.075908147143     1.375858566825     0.069594762772     1.007825032230

  Basis Set: AUG-CC-PVTZ
    Blend: AUG-CC-PVTZ
  Basis Set: (AUG-CC-PVTZ AUX)
    Blend: AUG-CC-PVTZ-JKFIT
	 Reference Energy          =    -758.2684478651898417 [Eh]
	 Singles Energy            =      -0.0000000000000000 [Eh]
	 Same-Spin Energy          =      -0.4435206532911573 [Eh]
	 Opposite-Spin Energy      =      -1.3477913066877740 [Eh]
	 Correlation Energy        =      -1.7913119599789313 [Eh]
	 Total Energy              =    -760.0597598251687259 [Eh]

	 ================> DF-SCS-MP2 Energies <==================
	-----------------------------------------------------------
	 SCS Same-Spin Scale       =       0.3333333333333333 [-]
	 SCS Opposite-Spin Scale   =       1.2000000000000000 [-]
	 SCS Same-Spin Energy      =      -0.1478402177637191 [Eh]
	 SCS Opposite-Spin Energy  =      -1.6173495680253287 [Eh]
	 SCS Correlation Energy    =      -1.7651897857890477 [Eh]
	 SCS Total Energy          =    -760.0336376509789034 [Eh]
	-----------------------------------------------------------

  Dipole Moment: [D]
     X:    -0.4097      Y:     3.6081      Z:     1.0783     Total:     3.7880

*** Psi4 exiting successfully. Buy a developer a beer!
