                               Psi4 1.3.2 release

  ==> Input File <==

--------------------------------------------------------------------------
#psi4
#
memory 32 gb

molecule  {
0 1
  S       -1.4679970    -1.1088850     0.1509200
  O        1.4861710    -1.4617920    -0.3475990
  N        2.0488620     0.7112420     0.1011850
  C       -0.1871521     0.1562986    -0.0626127
  C        1.1480630    -0.2971330    -0.1085980
  C       -0.8491840     1.3674970    -0.1820640
  C       -2.2598870     1.3270920    -0.0933710
  C       -2.7341550     0.0450510     0.0925010
  C        3.4678020     0.4025420     0.1643440
  H       -0.2776640     2.2711280    -0.3728590
  H        1.7182220     1.5388600     0.5795510
  H       -2.9045110     2.1962980    -0.1738640
  H       -3.7641930    -0.2736150     0.1955190
  H        3.7134240    -0.2643480    -0.6614350
  H        3.7418120    -0.0946250     1.1012270
  H        4.0344840     1.3296500     0.0646150
units angstrom
no_reorient  #important for SAPT in psi4, default
symmetry c1  #important for SAPT in psi4, default
}

set PROPERTIES_ORIGIN ["COM"]
properties('MP2/aug-cc-pvtz', properties = ['dipole'])
--------------------------------------------------------------------------

    Molecular point group: c1
  Charge       = 0
  Multiplicity = 1
  Basis Set: AUG-CC-PVTZ
    Blend: AUG-CC-PVTZ
  Basis Set: (AUG-CC-PVTZ AUX)
    Blend: AUG-CC-PVTZ-JKFIT

    Orbital Energies [Eh]
    ---------------------

    Doubly Occupied:

       1A    -91.994208     2A    -20.522233     3A    -15.588287
       4A    -11.357691     5A    -11.286950     6A    -11.278655
       7A    -11.271649     8A    -11.260058     9A    -11.253148
      10A     -8.992697    11A     -6.673504    12A     -6.672808
      13A     -6.672296    14A     -1.378657    15A     -1.234128
      16A     -1.176939    17A     -1.033086    18A     -0.995346
      19A     -0.945350    20A     -0.847076    21A     -0.772637
      22A     -0.769921    23A     -0.720663    24A     -0.647105
      25A     -0.643445    26A     -0.627518    27A     -0.586846
      28A     -0.578054    29A     -0.557387    30A     -0.551792
      31A     -0.524669    32A     -0.508053    33A     -0.472170
      34A     -0.438463    35A     -0.399966    36A     -0.358669
      37A     -0.336387

  @DF-RHF Final Energy:  -758.25813970953527

   => Energetics <=

    Nuclear Repulsion Energy =            499.3816095050913191
    One-Electron Energy =               -2031.4224762976725742
    Two-Electron Energy =                 773.7827270830459838
    Total Energy =                       -758.2581397095352713
  Basis Set: (AUG-CC-PVTZ AUX)
    Blend: AUG-CC-PVTZ-RI
    Molecular point group: c1

    Geometry (in Angstrom), charge = 0, multiplicity = 1:

       Center              X                  Y                   Z               Mass
    ------------   -----------------  -----------------  -----------------  -----------------
         S           -1.431571172715    -1.065608644459     0.156995602771    31.972071174400
         O            1.522596827285    -1.418515644459    -0.341523397229    15.994914619570
         N            2.085287827285     0.754518355541     0.107260602771    14.003074004430
         C           -0.150726272715     0.199574955541    -0.056537097229    12.000000000000
         C            1.184488827285    -0.253856644459    -0.102522397229    12.000000000000
         C           -0.812758172715     1.410773355541    -0.175988397229    12.000000000000
         C           -2.223461172715     1.370368355541    -0.087295397229    12.000000000000
         C           -2.697729172715     0.088327355541     0.098576602771    12.000000000000
         C            3.504227827285     0.445818355541     0.170419602771    12.000000000000
         H           -0.241238172715     2.314404355541    -0.366783397229     1.007825032230
         H            1.754647827285     1.582136355541     0.585626602771     1.007825032230
         H           -2.868085172715     2.239574355541    -0.167788397229     1.007825032230
         H           -3.727767172715    -0.230338644459     0.201594602771     1.007825032230
         H            3.749849827285    -0.221071644459    -0.655359397229     1.007825032230
         H            3.778237827285    -0.051348644459     1.107302602771     1.007825032230
         H            4.070909827285     1.372926355541     0.070690602771     1.007825032230

  Basis Set: AUG-CC-PVTZ
    Blend: AUG-CC-PVTZ
  Basis Set: (AUG-CC-PVTZ AUX)
    Blend: AUG-CC-PVTZ-JKFIT
	 Reference Energy          =    -758.2581397095352713 [Eh]
	 Singles Energy            =      -0.0000000000000000 [Eh]
	 Same-Spin Energy          =      -0.4440215028264941 [Eh]
	 Opposite-Spin Energy      =      -1.3493266959978927 [Eh]
	 Correlation Energy        =      -1.7933481988243867 [Eh]
	 Total Energy              =    -760.0514879083596043 [Eh]

	 ================> DF-SCS-MP2 Energies <==================
	-----------------------------------------------------------
	 SCS Same-Spin Scale       =       0.3333333333333333 [-]
	 SCS Opposite-Spin Scale   =       1.2000000000000000 [-]
	 SCS Same-Spin Energy      =      -0.1480071676088314 [Eh]
	 SCS Opposite-Spin Energy  =      -1.6191920351974711 [Eh]
	 SCS Correlation Energy    =      -1.7671992028063026 [Eh]
	 SCS Total Energy          =    -760.0253389123415673 [Eh]
	-----------------------------------------------------------

  Dipole Moment: [D]
     X:    -0.4500      Y:     3.7501      Z:     1.0634     Total:     3.9239

*** Psi4 exiting successfully. Buy a developer a beer!
