                               Psi4 1.4a3.dev225

  ==> Input File <==

--------------------------------------------------------------------------
#psi4
#
memory 32 gb

molecule  {
0 1
  S       -1.4679970    -1.1088850     0.1509200
  O        1.4861710    -1.4617920    -0.3475990
  N        2.0488620     0.7112420     0.1011850
  C       -0.2734750     0.1140250    -0.0519740
  C        1.1480630    -0.2971330    -0.1085980
  C       -0.8408734     1.3494026    -0.1801861
  C       -2.2598870     1.3270920    -0.0933710
  C       -2.7341550     0.0450510     0.0925010
  C        3.4678020     0.4025420     0.1643440
  H       -0.2776640     2.2711280    -0.3728590
  H        1.7182220     1.5388600     0.5795510
  H       -2.9045110     2.1962980    -0.1738640
  H       -3.7641930    -0.2736150     0.1955190
  H        3.7134240    -0.2643480    -0.6614350
  H        3.7418120    -0.0946250     1.1012270
  H        4.0344840     1.3296500     0.0646150
units angstrom
no_reorient  #important for SAPT in psi4, default
symmetry c1  #important for SAPT in psi4, default
}

set PROPERTIES_ORIGIN ["COM"]
properties('MP2/aug-cc-pvtz', properties = ['dipole'])
--------------------------------------------------------------------------

    Molecular point group: c1
  Charge       = 0
  Multiplicity = 1
  Basis Set: AUG-CC-PVTZ
    Blend: AUG-CC-PVTZ
  Basis Set: (AUG-CC-PVTZ AUX)
    Blend: AUG-CC-PVTZ-JKFIT

    Orbital Energies [Eh]
    ---------------------

    Doubly Occupied:

       1A    -91.994700     2A    -20.523821     3A    -15.591043
       4A    -11.362954     5A    -11.279122     6A    -11.274909
       7A    -11.262013     8A    -11.261857     9A    -11.251113
      10A     -8.994590    11A     -6.675435    12A     -6.674883
      13A     -6.674175    14A     -1.378460    15A     -1.233638
      16A     -1.185721    17A     -1.022303    18A     -0.999159
      19A     -0.947086    20A     -0.832887    21A     -0.771708
      22A     -0.769240    23A     -0.721319    24A     -0.646580
      25A     -0.642518    26A     -0.626312    27A     -0.581205
      28A     -0.569260    29A     -0.558348    30A     -0.553108
      31A     -0.533733    32A     -0.511794    33A     -0.485501
      34A     -0.437004    35A     -0.400494    36A     -0.356453
      37A     -0.338304

  @DF-RHF Final Energy:  -758.26909316427395

   => Energetics <=

    Nuclear Repulsion Energy =            500.2993756993952275
    One-Electron Energy =               -2033.2914361868217838
    Two-Electron Energy =                 774.7229673231524885
    Total Energy =                       -758.2690931642739542
  Basis Set: (AUG-CC-PVTZ AUX)
    Blend: AUG-CC-PVTZ-RI
    Molecular point group: c1

    Geometry (in Angstrom), charge = 0, multiplicity = 1:

       Center              X                  Y                   Z               Mass
    ------------   -----------------  -----------------  -----------------  -----------------
         S           -1.424932997249    -1.060471847101     0.155930547811    31.972071174400
         O            1.529235002751    -1.413378847101    -0.342588452189    15.994914619570
         N            2.091926002751     0.759655152899     0.106195547811    14.003074004430
         C           -0.230410997249     0.162438152899    -0.046963452189    12.000000000000
         C            1.191127002751    -0.248719847101    -0.103587452189    12.000000000000
         C           -0.797809397249     1.397815752899    -0.175175552189    12.000000000000
         C           -2.216822997249     1.375505152899    -0.088360452189    12.000000000000
         C           -2.691090997249     0.093464152899     0.097511547811    12.000000000000
         C            3.510866002751     0.450955152899     0.169354547811    12.000000000000
         H           -0.234599997249     2.319541152899    -0.367848452189     1.007825032230
         H            1.761286002751     1.587273152899     0.584561547811     1.007825032230
         H           -2.861446997249     2.244711152899    -0.168853452189     1.007825032230
         H           -3.721128997249    -0.225201847101     0.200529547811     1.007825032230
         H            3.756488002751    -0.215934847101    -0.656424452189     1.007825032230
         H            3.784876002751    -0.046211847101     1.106237547811     1.007825032230
         H            4.077548002751     1.378063152899     0.069625547811     1.007825032230

  Basis Set: AUG-CC-PVTZ
    Blend: AUG-CC-PVTZ
  Basis Set: (AUG-CC-PVTZ AUX)
    Blend: AUG-CC-PVTZ-JKFIT
	 Reference Energy          =    -758.2690931642739542 [Eh]
	 Singles Energy            =      -0.0000000000000000 [Eh]
	 Same-Spin Energy          =      -0.4430436762239895 [Eh]
	 Opposite-Spin Energy      =      -1.3472340626818395 [Eh]
	 Correlation Energy        =      -1.7902777389058291 [Eh]
	 Total Energy              =    -760.0593709031797971 [Eh]

	 ================> DF-SCS-MP2 Energies <==================
	-----------------------------------------------------------
	 SCS Same-Spin Scale       =       0.3333333333333333 [-]
	 SCS Opposite-Spin Scale   =       1.2000000000000000 [-]
	 SCS Same-Spin Energy      =      -0.1476812254079965 [Eh]
	 SCS Opposite-Spin Energy  =      -1.6166808752182074 [Eh]
	 SCS Correlation Energy    =      -1.7643621006262038 [Eh]
	 SCS Total Energy          =    -760.0334552649001125 [Eh]
	-----------------------------------------------------------

  Dipole Moment: [D]
     X:    -0.3157      Y:     3.6366      Z:     1.0794     Total:     3.8066

*** Psi4 exiting successfully. Buy a developer a beer!
