                               Psi4 1.3.2 release

  ==> Input File <==

--------------------------------------------------------------------------
#psi4
#
memory 32 gb

molecule  {
0 1
  S       -1.4679970    -1.1088850     0.1509200
  O        1.4861710    -1.4617920    -0.3475990
  N        2.0488620     0.7112420     0.1011850
  C       -0.4080831     0.0621210    -0.0372196
  C        1.1480630    -0.2971330    -0.1085980
  C       -0.8491840     1.3674970    -0.1820640
  C       -2.2598870     1.3270920    -0.0933710
  C       -2.7341550     0.0450510     0.0925010
  C        3.4678020     0.4025420     0.1643440
  H       -0.2776640     2.2711280    -0.3728590
  H        1.7182220     1.5388600     0.5795510
  H       -2.9045110     2.1962980    -0.1738640
  H       -3.7641930    -0.2736150     0.1955190
  H        3.7134240    -0.2643480    -0.6614350
  H        3.7418120    -0.0946250     1.1012270
  H        4.0344840     1.3296500     0.0646150
units angstrom
no_reorient  #important for SAPT in psi4, default
symmetry c1  #important for SAPT in psi4, default
}

set PROPERTIES_ORIGIN ["COM"]
properties('MP2/aug-cc-pvtz', properties = ['dipole'])
--------------------------------------------------------------------------

    Molecular point group: c1
  Charge       = 0
  Multiplicity = 1
  Basis Set: AUG-CC-PVTZ
    Blend: AUG-CC-PVTZ
  Basis Set: (AUG-CC-PVTZ AUX)
    Blend: AUG-CC-PVTZ-JKFIT

    Orbital Energies [Eh]
    ---------------------

    Doubly Occupied:

       1A    -91.996705     2A    -20.524708     3A    -15.594235
       4A    -11.368583     5A    -11.275244     6A    -11.267603
       7A    -11.263858     8A    -11.251927     9A    -11.247922
      10A     -8.999759    11A     -6.680942    12A     -6.679908
      13A     -6.679161    14A     -1.376904    15A     -1.233132
      16A     -1.201486    17A     -1.018052    18A     -1.000435
      19A     -0.946706    20A     -0.813946    21A     -0.771154
      22A     -0.764212    23A     -0.724414    24A     -0.645692
      25A     -0.639598    26A     -0.624508    27A     -0.575852
      28A     -0.561784    29A     -0.558979    30A     -0.554227
      31A     -0.546979    32A     -0.517703    33A     -0.497105
      34A     -0.427780    35A     -0.400932    36A     -0.359773
      37A     -0.330513

  @DF-RHF Final Energy:  -758.24670706908751

   => Energetics <=

    Nuclear Repulsion Energy =            501.0671399505887962
    One-Electron Energy =               -2034.7828534792693063
    Two-Electron Energy =                 775.4690064595929471
    Total Energy =                       -758.2467070690875062
  Basis Set: (AUG-CC-PVTZ AUX)
    Blend: AUG-CC-PVTZ-RI
    Molecular point group: c1

    Geometry (in Angstrom), charge = 0, multiplicity = 1:

       Center              X                  Y                   Z               Mass
    ------------   -----------------  -----------------  -----------------  -----------------
         S           -1.412771845635    -1.057594941059     0.154834868458    31.972071174400
         O            1.541396154365    -1.410501941059    -0.343684131542    15.994914619570
         N            2.104087154365     0.762532058941     0.105099868458    14.003074004430
         C           -0.352857945635     0.113411058941    -0.033304731542    12.000000000000
         C            1.203288154365    -0.245842941059    -0.104683131542    12.000000000000
         C           -0.793958845635     1.418787058941    -0.178149131542    12.000000000000
         C           -2.204661845635     1.378382058941    -0.089456131542    12.000000000000
         C           -2.678929845635     0.096341058941     0.096415868458    12.000000000000
         C            3.523027154365     0.453832058941     0.168258868458    12.000000000000
         H           -0.222438845635     2.322418058941    -0.368944131542     1.007825032230
         H            1.773447154365     1.590150058941     0.583465868458     1.007825032230
         H           -2.849285845635     2.247588058941    -0.169949131542     1.007825032230
         H           -3.708967845635    -0.222324941059     0.199433868458     1.007825032230
         H            3.768649154365    -0.213057941059    -0.657520131542     1.007825032230
         H            3.797037154365    -0.043334941059     1.105141868458     1.007825032230
         H            4.089709154365     1.380940058941     0.068529868458     1.007825032230

  Basis Set: AUG-CC-PVTZ
    Blend: AUG-CC-PVTZ
  Basis Set: (AUG-CC-PVTZ AUX)
    Blend: AUG-CC-PVTZ-JKFIT
	 Reference Energy          =    -758.2467070690875062 [Eh]
	 Singles Energy            =      -0.0000000000000000 [Eh]
	 Same-Spin Energy          =      -0.4442996282596445 [Eh]
	 Opposite-Spin Energy      =      -1.3479626983506068 [Eh]
	 Correlation Energy        =      -1.7922623266102513 [Eh]
	 Total Energy              =    -760.0389693956977908 [Eh]

	 ================> DF-SCS-MP2 Energies <==================
	-----------------------------------------------------------
	 SCS Same-Spin Scale       =       0.3333333333333333 [-]
	 SCS Opposite-Spin Scale   =       1.2000000000000000 [-]
	 SCS Same-Spin Energy      =      -0.1480998760865482 [Eh]
	 SCS Opposite-Spin Energy  =      -1.6175552380207281 [Eh]
	 SCS Correlation Energy    =      -1.7656551141072763 [Eh]
	 SCS Total Energy          =    -760.0123621831947958 [Eh]
	-----------------------------------------------------------

  Dipole Moment: [D]
     X:    -0.0861      Y:     3.4033      Z:     1.1069     Total:     3.5798

*** Psi4 exiting successfully. Buy a developer a beer!
