                               Psi4 1.3.2 release

  ==> Input File <==

--------------------------------------------------------------------------
#psi4
#
memory 32 gb

molecule  {
0 1
  S       -1.4462772    -1.1296373     0.1514878
  O        1.4861710    -1.4617920    -0.3475990
  N        2.0488620     0.7112420     0.1011850
  C       -0.2734750     0.1140250    -0.0519740
  C        1.1480630    -0.2971330    -0.1085980
  C       -0.8491840     1.3674970    -0.1820640
  C       -2.2598870     1.3270920    -0.0933710
  C       -2.7341550     0.0450510     0.0925010
  C        3.4678020     0.4025420     0.1643440
  H       -0.2776640     2.2711280    -0.3728590
  H        1.7182220     1.5388600     0.5795510
  H       -2.9045110     2.1962980    -0.1738640
  H       -3.7641930    -0.2736150     0.1955190
  H        3.7134240    -0.2643480    -0.6614350
  H        3.7418120    -0.0946250     1.1012270
  H        4.0344840     1.3296500     0.0646150
units angstrom
no_reorient  #important for SAPT in psi4, default
symmetry c1  #important for SAPT in psi4, default
}

set PROPERTIES_ORIGIN ["COM"]
properties('MP2/aug-cc-pvtz', properties = ['dipole'])
--------------------------------------------------------------------------

    Molecular point group: c1
  Charge       = 0
  Multiplicity = 1
  Basis Set: AUG-CC-PVTZ
    Blend: AUG-CC-PVTZ
  Basis Set: (AUG-CC-PVTZ AUX)
    Blend: AUG-CC-PVTZ-JKFIT

    Orbital Energies [Eh]
    ---------------------

    Doubly Occupied:

       1A    -91.996709     2A    -20.523751     3A    -15.590845
       4A    -11.362494     5A    -11.281305     6A    -11.277580
       7A    -11.263021     8A    -11.261712     9A    -11.252021
      10A     -8.995799    11A     -6.676605    12A     -6.676020
      13A     -6.675379    14A     -1.378464    15A     -1.233349
      16A     -1.180536    17A     -1.020062    18A     -0.998586
      19A     -0.946044    20A     -0.833067    21A     -0.771227
      22A     -0.769069    23A     -0.721355    24A     -0.645977
      25A     -0.641427    26A     -0.625586    27A     -0.579597
      28A     -0.573424    29A     -0.556965    30A     -0.552768
      31A     -0.529913    32A     -0.509685    33A     -0.486987
      34A     -0.436891    35A     -0.400464    36A     -0.357395
      37A     -0.335182

  @DF-RHF Final Energy:  -758.26751637437008

   => Energetics <=

    Nuclear Repulsion Energy =            499.4023447161251852
    One-Electron Energy =               -2031.5052000179191509
    Two-Electron Energy =                 773.8353389274240044
    Total Energy =                       -758.2675163743700750
  Basis Set: (AUG-CC-PVTZ AUX)
    Blend: AUG-CC-PVTZ-RI
    Molecular point group: c1

    Geometry (in Angstrom), charge = 0, multiplicity = 1:

       Center              X                  Y                   Z               Mass
    ------------   -----------------  -----------------  -----------------  -----------------
         S           -1.407430183508    -1.078059022231     0.156529413672    31.972071174400
         O            1.525018016492    -1.410213722231    -0.342557386328    15.994914619570
         N            2.087709016492     0.762820277769     0.106226613672    14.003074004430
         C           -0.234627983508     0.165603277769    -0.046932386328    12.000000000000
         C            1.186910016492    -0.245554722231    -0.103556386328    12.000000000000
         C           -0.810336983508     1.419075277769    -0.177022386328    12.000000000000
         C           -2.221039983508     1.378670277769    -0.088329386328    12.000000000000
         C           -2.695307983508     0.096629277769     0.097542613672    12.000000000000
         C            3.506649016492     0.454120277769     0.169385613672    12.000000000000
         H           -0.238816983508     2.322706277769    -0.367817386328     1.007825032230
         H            1.757069016492     1.590438277769     0.584592613672     1.007825032230
         H           -2.865663983508     2.247876277769    -0.168822386328     1.007825032230
         H           -3.725345983508    -0.222036722231     0.200560613672     1.007825032230
         H            3.752271016492    -0.212769722231    -0.656393386328     1.007825032230
         H            3.780659016492    -0.043046722231     1.106268613672     1.007825032230
         H            4.073331016492     1.381228277769     0.069656613672     1.007825032230

  Basis Set: AUG-CC-PVTZ
    Blend: AUG-CC-PVTZ
  Basis Set: (AUG-CC-PVTZ AUX)
    Blend: AUG-CC-PVTZ-JKFIT
	 Reference Energy          =    -758.2675163743700750 [Eh]
	 Singles Energy            =      -0.0000000000000000 [Eh]
	 Same-Spin Energy          =      -0.4433190375234520 [Eh]
	 Opposite-Spin Energy      =      -1.3482035907400052 [Eh]
	 Correlation Energy        =      -1.7915226282634571 [Eh]
	 Total Energy              =    -760.0590390026335399 [Eh]

	 ================> DF-SCS-MP2 Energies <==================
	-----------------------------------------------------------
	 SCS Same-Spin Scale       =       0.3333333333333333 [-]
	 SCS Opposite-Spin Scale   =       1.2000000000000000 [-]
	 SCS Same-Spin Energy      =      -0.1477730125078173 [Eh]
	 SCS Opposite-Spin Energy  =      -1.6178443088880061 [Eh]
	 SCS Correlation Energy    =      -1.7656173213958235 [Eh]
	 SCS Total Energy          =    -760.0331336957658550 [Eh]
	-----------------------------------------------------------

  Dipole Moment: [D]
     X:    -0.3083      Y:     3.6288      Z:     1.0770     Total:     3.7978

*** Psi4 exiting successfully. Buy a developer a beer!
