                               Psi4 1.3.2 release

  ==> Input File <==

--------------------------------------------------------------------------
#psi4
#
memory 32 gb

molecule  {
0 1
  S       -1.4679970    -1.1088850     0.1509200
  O        1.4861710    -1.4617920    -0.3475990
  N        2.0488620     0.7112420     0.1011850
  C       -0.3173379     0.1550385    -0.0541137
  C        1.1480630    -0.2971330    -0.1085980
  C       -0.8491840     1.3674970    -0.1820640
  C       -2.2598870     1.3270920    -0.0933710
  C       -2.7341550     0.0450510     0.0925010
  C        3.4678020     0.4025420     0.1643440
  H       -0.2776640     2.2711280    -0.3728590
  H        1.7182220     1.5388600     0.5795510
  H       -2.9045110     2.1962980    -0.1738640
  H       -3.7641930    -0.2736150     0.1955190
  H        3.7134240    -0.2643480    -0.6614350
  H        3.7418120    -0.0946250     1.1012270
  H        4.0344840     1.3296500     0.0646150
units angstrom
no_reorient  #important for SAPT in psi4, default
symmetry c1  #important for SAPT in psi4, default
}

set PROPERTIES_ORIGIN ["COM"]
properties('MP2/aug-cc-pvtz', properties = ['dipole'])
--------------------------------------------------------------------------

    Molecular point group: c1
  Charge       = 0
  Multiplicity = 1
  Basis Set: AUG-CC-PVTZ
    Blend: AUG-CC-PVTZ
  Basis Set: (AUG-CC-PVTZ AUX)
    Blend: AUG-CC-PVTZ-JKFIT

    Orbital Energies [Eh]
    ---------------------

    Doubly Occupied:

       1A    -91.992734     2A    -20.527072     3A    -15.592376
       4A    -11.367381     5A    -11.275846     6A    -11.274459
       7A    -11.262561     8A    -11.253681     9A    -11.248559
      10A     -8.992831    11A     -6.673698    12A     -6.673065
      13A     -6.672358    14A     -1.378837    15A     -1.234413
      16A     -1.189830    17A     -1.017819    18A     -1.001233
      19A     -0.948176    20A     -0.824218    21A     -0.773745
      22A     -0.766919    23A     -0.725100    24A     -0.646072
      25A     -0.641631    26A     -0.625589    27A     -0.580349
      28A     -0.570837    29A     -0.557854    30A     -0.553390
      31A     -0.530497    32A     -0.513905    33A     -0.490334
      34A     -0.434727    35A     -0.401671    36A     -0.359349
      37A     -0.337740

  @DF-RHF Final Energy:  -758.26610172316418

   => Energetics <=

    Nuclear Repulsion Energy =            499.9953081572712108
    One-Electron Energy =               -2032.7011027420910523
    Two-Electron Energy =                 774.4396928616556579
    Total Energy =                       -758.2661017231641836
  Basis Set: (AUG-CC-PVTZ AUX)
    Blend: AUG-CC-PVTZ-RI
    Molecular point group: c1

    Geometry (in Angstrom), charge = 0, multiplicity = 1:

       Center              X                  Y                   Z               Mass
    ------------   -----------------  -----------------  -----------------  -----------------
         S           -1.420493481330    -1.065501420792     0.156272411001    31.972071174400
         O            1.533674518670    -1.418408420792    -0.342246588999    15.994914619570
         N            2.096365518670     0.754625579208     0.106537411001    14.003074004430
         C           -0.269834381330     0.198422079208    -0.048761288999    12.000000000000
         C            1.195566518670    -0.253749420792    -0.103245588999    12.000000000000
         C           -0.801680481330     1.410880579208    -0.176711588999    12.000000000000
         C           -2.212383481330     1.370475579208    -0.088018588999    12.000000000000
         C           -2.686651481330     0.088434579208     0.097853411001    12.000000000000
         C            3.515305518670     0.445925579208     0.169696411001    12.000000000000
         H           -0.230160481330     2.314511579208    -0.367506588999     1.007825032230
         H            1.765725518670     1.582243579208     0.584903411001     1.007825032230
         H           -2.857007481330     2.239681579208    -0.168511588999     1.007825032230
         H           -3.716689481330    -0.230231420792     0.200871411001     1.007825032230
         H            3.760927518670    -0.220964420792    -0.656082588999     1.007825032230
         H            3.789315518670    -0.051241420792     1.106579411001     1.007825032230
         H            4.081987518670     1.373033579208     0.069967411001     1.007825032230

  Basis Set: AUG-CC-PVTZ
    Blend: AUG-CC-PVTZ
  Basis Set: (AUG-CC-PVTZ AUX)
    Blend: AUG-CC-PVTZ-JKFIT
	 Reference Energy          =    -758.2661017231641836 [Eh]
	 Singles Energy            =      -0.0000000000000000 [Eh]
	 Same-Spin Energy          =      -0.4424868917679948 [Eh]
	 Opposite-Spin Energy      =      -1.3467309659634994 [Eh]
	 Correlation Energy        =      -1.7892178577314941 [Eh]
	 Total Energy              =    -760.0553195808956843 [Eh]

	 ================> DF-SCS-MP2 Energies <==================
	-----------------------------------------------------------
	 SCS Same-Spin Scale       =       0.3333333333333333 [-]
	 SCS Opposite-Spin Scale   =       1.2000000000000000 [-]
	 SCS Same-Spin Energy      =      -0.1474956305893316 [Eh]
	 SCS Opposite-Spin Energy  =      -1.6160771591561993 [Eh]
	 SCS Correlation Energy    =      -1.7635727897455309 [Eh]
	 SCS Total Energy          =    -760.0296745129097644 [Eh]
	-----------------------------------------------------------

  Dipole Moment: [D]
     X:    -0.1420      Y:     3.5995      Z:     1.0700     Total:     3.7579

*** Psi4 exiting successfully. Buy a developer a beer!
