                               Psi4 1.3.2 release

  ==> Input File <==

--------------------------------------------------------------------------
#psi4
#
memory 32 gb

molecule  {
0 1
  S       -1.3547002    -0.9718314     0.1270242
  O        1.4861710    -1.4617920    -0.3475990
  N        2.0488620     0.7112420     0.1011850
  C       -0.2734750     0.1140250    -0.0519740
  C        1.1480630    -0.2971330    -0.1085980
  C       -0.8491840     1.3674970    -0.1820640
  C       -2.2598870     1.3270920    -0.0933710
  C       -2.7341550     0.0450510     0.0925010
  C        3.4678020     0.4025420     0.1643440
  H       -0.2776640     2.2711280    -0.3728590
  H        1.7182220     1.5388600     0.5795510
  H       -2.9045110     2.1962980    -0.1738640
  H       -3.7641930    -0.2736150     0.1955190
  H        3.7134240    -0.2643480    -0.6614350
  H        3.7418120    -0.0946250     1.1012270
  H        4.0344840     1.3296500     0.0646150
units angstrom
no_reorient  #important for SAPT in psi4, default
symmetry c1  #important for SAPT in psi4, default
}

set PROPERTIES_ORIGIN ["COM"]
properties('MP2/aug-cc-pvtz', properties = ['dipole'])
--------------------------------------------------------------------------

    Molecular point group: c1
  Charge       = 0
  Multiplicity = 1
  Basis Set: AUG-CC-PVTZ
    Blend: AUG-CC-PVTZ
  Basis Set: (AUG-CC-PVTZ AUX)
    Blend: AUG-CC-PVTZ-JKFIT

    Orbital Energies [Eh]
    ---------------------

    Doubly Occupied:

       1A    -91.988493     2A    -20.527317     3A    -15.593428
       4A    -11.367155     5A    -11.272287     6A    -11.263321
       7A    -11.262675     8A    -11.252482     9A    -11.250143
      10A     -8.993757    11A     -6.675169    12A     -6.673880
      13A     -6.673150    14A     -1.382838    15A     -1.236585
      16A     -1.214046    17A     -1.036375    18A     -0.998317
      19A     -0.950631    20A     -0.834403    21A     -0.778922
      22A     -0.769732    23A     -0.717523    24A     -0.654346
      25A     -0.645623    26A     -0.631209    27A     -0.583610
      28A     -0.572985    29A     -0.568033    30A     -0.559746
      31A     -0.546240    32A     -0.518543    33A     -0.471864
      34A     -0.440771    35A     -0.402506    36A     -0.359921
      37A     -0.333170

  @DF-RHF Final Energy:  -758.24496414330224

   => Energetics <=

    Nuclear Repulsion Energy =            508.4076235937894808
    One-Electron Energy =               -2049.3027778060318269
    Two-Electron Energy =                 782.6501900689399918
    Total Energy =                       -758.2449641433022407
  Basis Set: (AUG-CC-PVTZ AUX)
    Blend: AUG-CC-PVTZ-RI
    Molecular point group: c1

    Geometry (in Angstrom), charge = 0, multiplicity = 1:

       Center              X                  Y                   Z               Mass
    ------------   -----------------  -----------------  -----------------  -----------------
         S           -1.336614820006    -0.956029668012     0.137612013817    31.972071174400
         O            1.504256379994    -1.445990268012    -0.337011186183    15.994914619570
         N            2.066947379994     0.727043731988     0.111772813817    14.003074004430
         C           -0.255389620006     0.129826731988    -0.041386186183    12.000000000000
         C            1.166148379994    -0.281331268012    -0.098010186183    12.000000000000
         C           -0.831098620006     1.383298731988    -0.171476186183    12.000000000000
         C           -2.241801620006     1.342893731988    -0.082783186183    12.000000000000
         C           -2.716069620006     0.060852731988     0.103088813817    12.000000000000
         C            3.485887379994     0.418343731988     0.174931813817    12.000000000000
         H           -0.259578620006     2.286929731988    -0.362271186183     1.007825032230
         H            1.736307379994     1.554661731988     0.590138813817     1.007825032230
         H           -2.886425620006     2.212099731988    -0.163276186183     1.007825032230
         H           -3.746107620006    -0.257813268012     0.206106813817     1.007825032230
         H            3.731509379994    -0.248546268012    -0.650847186183     1.007825032230
         H            3.759897379994    -0.078823268012     1.111814813817     1.007825032230
         H            4.052569379994     1.345451731988     0.075202813817     1.007825032230

  Basis Set: AUG-CC-PVTZ
    Blend: AUG-CC-PVTZ
  Basis Set: (AUG-CC-PVTZ AUX)
    Blend: AUG-CC-PVTZ-JKFIT
	 Reference Energy          =    -758.2449641433022407 [Eh]
	 Singles Energy            =      -0.0000000000000000 [Eh]
	 Same-Spin Energy          =      -0.4459228452611765 [Eh]
	 Opposite-Spin Energy      =      -1.3478346788371196 [Eh]
	 Correlation Energy        =      -1.7937575240982961 [Eh]
	 Total Energy              =    -760.0387216674005231 [Eh]

	 ================> DF-SCS-MP2 Energies <==================
	-----------------------------------------------------------
	 SCS Same-Spin Scale       =       0.3333333333333333 [-]
	 SCS Opposite-Spin Scale   =       1.2000000000000000 [-]
	 SCS Same-Spin Energy      =      -0.1486409484203922 [Eh]
	 SCS Opposite-Spin Energy  =      -1.6174016146045436 [Eh]
	 SCS Correlation Energy    =      -1.7660425630249357 [Eh]
	 SCS Total Energy          =    -760.0110067063271799 [Eh]
	-----------------------------------------------------------

  Dipole Moment: [D]
     X:    -0.2064      Y:     3.5667      Z:     1.0850     Total:     3.7337

*** Psi4 exiting successfully. Buy a developer a beer!
