                               Psi4 1.3.2 release

  ==> Input File <==

--------------------------------------------------------------------------
#psi4
#
memory 32 gb

molecule  {
0 1
  S       -1.4679970    -1.1088850     0.1509200
  O        1.4861710    -1.4617920    -0.3475990
  N        2.0488620     0.7112420     0.1011850
  C       -0.2734750     0.1140250    -0.0519740
  C        1.1480630    -0.2971330    -0.1085980
  C       -0.8561671     1.4652627    -0.1936774
  C       -2.2598870     1.3270920    -0.0933710
  C       -2.7341550     0.0450510     0.0925010
  C        3.4678020     0.4025420     0.1643440
  H       -0.2776640     2.2711280    -0.3728590
  H        1.7182220     1.5388600     0.5795510
  H       -2.9045110     2.1962980    -0.1738640
  H       -3.7641930    -0.2736150     0.1955190
  H        3.7134240    -0.2643480    -0.6614350
  H        3.7418120    -0.0946250     1.1012270
  H        4.0344840     1.3296500     0.0646150
units angstrom
no_reorient  #important for SAPT in psi4, default
symmetry c1  #important for SAPT in psi4, default
}

set PROPERTIES_ORIGIN ["COM"]
properties('MP2/aug-cc-pvtz', properties = ['dipole'])
--------------------------------------------------------------------------

    Molecular point group: c1
  Charge       = 0
  Multiplicity = 1
  Basis Set: AUG-CC-PVTZ
    Blend: AUG-CC-PVTZ
  Basis Set: (AUG-CC-PVTZ AUX)
    Blend: AUG-CC-PVTZ-JKFIT

    Orbital Energies [Eh]
    ---------------------

    Doubly Occupied:

       1A    -92.002777     2A    -20.521891     3A    -15.590009
       4A    -11.361059     5A    -11.286335     6A    -11.279041
       7A    -11.266814     8A    -11.261168     9A    -11.253732
      10A     -9.001867    11A     -6.682669    12A     -6.682088
      13A     -6.681544    14A     -1.376813    15A     -1.232116
      16A     -1.174902    17A     -1.014866    18A     -1.005471
      19A     -0.943166    20A     -0.835581    21A     -0.775574
      22A     -0.767892    23A     -0.722998    24A     -0.645333
      25A     -0.636950    26A     -0.623991    27A     -0.597413
      28A     -0.568255    29A     -0.553838    30A     -0.551879
      31A     -0.528742    32A     -0.509168    33A     -0.489817
      34A     -0.434446    35A     -0.399645    36A     -0.358751
      37A     -0.326109

  @DF-RHF Final Energy:  -758.25153818593617

   => Energetics <=

    Nuclear Repulsion Energy =            497.9821665974178586
    One-Electron Energy =               -2028.5779894130050707
    Two-Electron Energy =                 772.3442846296511561
    Total Energy =                       -758.2515381859361696
  Basis Set: (AUG-CC-PVTZ AUX)
    Blend: AUG-CC-PVTZ-RI
    Molecular point group: c1

    Geometry (in Angstrom), charge = 0, multiplicity = 1:

       Center              X                  Y                   Z               Mass
    ------------   -----------------  -----------------  -----------------  -----------------
         S           -1.423631634975    -1.070330544683     0.157078541354    31.972071174400
         O            1.530536365025    -1.423237544683    -0.341440458646    15.994914619570
         N            2.093227365025     0.749796455317     0.107343541354    14.003074004430
         C           -0.229109634975     0.152579455317    -0.045815458646    12.000000000000
         C            1.192428365025    -0.258578544683    -0.102439458646    12.000000000000
         C           -0.811801734975     1.503817155317    -0.187518858646    12.000000000000
         C           -2.215521634975     1.365646455317    -0.087212458646    12.000000000000
         C           -2.689789634975     0.083605455317     0.098659541354    12.000000000000
         C            3.512167365025     0.441096455317     0.170502541354    12.000000000000
         H           -0.233298634975     2.309682455317    -0.366700458646     1.007825032230
         H            1.762587365025     1.577414455317     0.585709541354     1.007825032230
         H           -2.860145634975     2.234852455317    -0.167705458646     1.007825032230
         H           -3.719827634975    -0.235060544683     0.201677541354     1.007825032230
         H            3.757789365025    -0.225793544683    -0.655276458646     1.007825032230
         H            3.786177365025    -0.056070544683     1.107385541354     1.007825032230
         H            4.078849365025     1.368204455317     0.070773541354     1.007825032230

  Basis Set: AUG-CC-PVTZ
    Blend: AUG-CC-PVTZ
  Basis Set: (AUG-CC-PVTZ AUX)
    Blend: AUG-CC-PVTZ-JKFIT
	 Reference Energy          =    -758.2515381859361696 [Eh]
	 Singles Energy            =      -0.0000000000000000 [Eh]
	 Same-Spin Energy          =      -0.4452241605286302 [Eh]
	 Opposite-Spin Energy      =      -1.3506117178187820 [Eh]
	 Correlation Energy        =      -1.7958358783474122 [Eh]
	 Total Energy              =    -760.0473740642835310 [Eh]

	 ================> DF-SCS-MP2 Energies <==================
	-----------------------------------------------------------
	 SCS Same-Spin Scale       =       0.3333333333333333 [-]
	 SCS Opposite-Spin Scale   =       1.2000000000000000 [-]
	 SCS Same-Spin Energy      =      -0.1484080535095434 [Eh]
	 SCS Opposite-Spin Energy  =      -1.6207340613825383 [Eh]
	 SCS Correlation Energy    =      -1.7691421148920816 [Eh]
	 SCS Total Energy          =    -760.0206803008283032 [Eh]
	-----------------------------------------------------------

  Dipole Moment: [D]
     X:    -0.3888      Y:     3.5129      Z:     1.0912     Total:     3.6990

*** Psi4 exiting successfully. Buy a developer a beer!
