                               Psi4 1.3.2 release

  ==> Input File <==

--------------------------------------------------------------------------
#psi4
#
memory 32 gb

molecule  {
0 1
  S       -1.4679970    -1.1088850     0.1509200
  O        1.4861710    -1.4617920    -0.3475990
  N        2.0488620     0.7112420     0.1011850
  C       -0.1874693     0.1557346    -0.0666440
  C        1.1480630    -0.2971330    -0.1085980
  C       -0.8491840     1.3674970    -0.1820640
  C       -2.2598870     1.3270920    -0.0933710
  C       -2.7341550     0.0450510     0.0925010
  C        3.4678020     0.4025420     0.1643440
  H       -0.2776640     2.2711280    -0.3728590
  H        1.7182220     1.5388600     0.5795510
  H       -2.9045110     2.1962980    -0.1738640
  H       -3.7641930    -0.2736150     0.1955190
  H        3.7134240    -0.2643480    -0.6614350
  H        3.7418120    -0.0946250     1.1012270
  H        4.0344840     1.3296500     0.0646150
units angstrom
no_reorient  #important for SAPT in psi4, default
symmetry c1  #important for SAPT in psi4, default
}

set PROPERTIES_ORIGIN ["COM"]
properties('MP2/aug-cc-pvtz', properties = ['dipole'])
--------------------------------------------------------------------------

    Molecular point group: c1
  Charge       = 0
  Multiplicity = 1
  Basis Set: AUG-CC-PVTZ
    Blend: AUG-CC-PVTZ
  Basis Set: (AUG-CC-PVTZ AUX)
    Blend: AUG-CC-PVTZ-JKFIT

    Orbital Energies [Eh]
    ---------------------

    Doubly Occupied:

       1A    -91.994220     2A    -20.522213     3A    -15.588326
       4A    -11.357677     5A    -11.286925     6A    -11.278645
       7A    -11.271593     8A    -11.260077     9A    -11.253141
      10A     -8.992711    11A     -6.673518    12A     -6.672822
      13A     -6.672309    14A     -1.378665    15A     -1.234119
      16A     -1.176940    17A     -1.033058    18A     -0.995344
      19A     -0.945356    20A     -0.847092    21A     -0.772624
      22A     -0.769939    23A     -0.720650    24A     -0.647125
      25A     -0.643442    26A     -0.627536    27A     -0.586802
      28A     -0.578027    29A     -0.557398    30A     -0.551811
      31A     -0.524709    32A     -0.508033    33A     -0.472166
      34A     -0.438460    35A     -0.399975    36A     -0.358676
      37A     -0.336374

  @DF-RHF Final Energy:  -758.25818562860763

   => Energetics <=

    Nuclear Repulsion Energy =            499.3822364894202792
    One-Electron Energy =               -2031.4238468776006812
    Two-Electron Energy =                 773.7834247595726538
    Total Energy =                       -758.2581856286076345
  Basis Set: (AUG-CC-PVTZ AUX)
    Blend: AUG-CC-PVTZ-RI
    Molecular point group: c1

    Geometry (in Angstrom), charge = 0, multiplicity = 1:

       Center              X                  Y                   Z               Mass
    ------------   -----------------  -----------------  -----------------  -----------------
         S           -1.431544181724    -1.065560652912     0.157338631713    31.972071174400
         O            1.522623818276    -1.418467652912    -0.341180368287    15.994914619570
         N            2.085314818276     0.754566347088     0.107603631713    14.003074004430
         C           -0.151016481724     0.199058947088    -0.060225368287    12.000000000000
         C            1.184515818276    -0.253808652912    -0.102179368287    12.000000000000
         C           -0.812731181724     1.410821347088    -0.175645368287    12.000000000000
         C           -2.223434181724     1.370416347088    -0.086952368287    12.000000000000
         C           -2.697702181724     0.088375347088     0.098919631713    12.000000000000
         C            3.504254818276     0.445866347088     0.170762631713    12.000000000000
         H           -0.241211181724     2.314452347088    -0.366440368287     1.007825032230
         H            1.754674818276     1.582184347088     0.585969631713     1.007825032230
         H           -2.868058181724     2.239622347088    -0.167445368287     1.007825032230
         H           -3.727740181724    -0.230290652912     0.201937631713     1.007825032230
         H            3.749876818276    -0.221023652912    -0.655016368287     1.007825032230
         H            3.778264818276    -0.051300652912     1.107645631713     1.007825032230
         H            4.070936818276     1.372974347088     0.071033631713     1.007825032230

  Basis Set: AUG-CC-PVTZ
    Blend: AUG-CC-PVTZ
  Basis Set: (AUG-CC-PVTZ AUX)
    Blend: AUG-CC-PVTZ-JKFIT
	 Reference Energy          =    -758.2581856286076345 [Eh]
	 Singles Energy            =      -0.0000000000000000 [Eh]
	 Same-Spin Energy          =      -0.4440179540664593 [Eh]
	 Opposite-Spin Energy      =      -1.3493211363641020 [Eh]
	 Correlation Energy        =      -1.7933390904305613 [Eh]
	 Total Energy              =    -760.0515247190381842 [Eh]

	 ================> DF-SCS-MP2 Energies <==================
	-----------------------------------------------------------
	 SCS Same-Spin Scale       =       0.3333333333333333 [-]
	 SCS Opposite-Spin Scale   =       1.2000000000000000 [-]
	 SCS Same-Spin Energy      =      -0.1480059846888198 [Eh]
	 SCS Opposite-Spin Energy  =      -1.6191853636369224 [Eh]
	 SCS Correlation Energy    =      -1.7671913483257422 [Eh]
	 SCS Total Energy          =    -760.0253769769333303 [Eh]
	-----------------------------------------------------------

  Dipole Moment: [D]
     X:    -0.4494      Y:     3.7503      Z:     1.0660     Total:     3.9247

*** Psi4 exiting successfully. Buy a developer a beer!
