                               Psi4 1.3.2 release

  ==> Input File <==

--------------------------------------------------------------------------
#psi4
#
memory 32 gb

molecule  {
0 1
  S       -1.4679970    -1.1088850     0.1509200
  O        1.4861710    -1.4617920    -0.3475990
  N        2.0488620     0.7112420     0.1011850
  C       -0.2734750     0.1140250    -0.0519740
  C        1.1480630    -0.2971330    -0.1085980
  C       -0.8491840     1.3674970    -0.1820640
  C       -2.2598870     1.3270920    -0.0933710
  C       -2.7341550     0.0450510     0.0925010
  C        3.4678020     0.4025420     0.1643440
  H       -0.1724202     2.4375291    -0.4079934
  H        1.7182220     1.5388600     0.5795510
  H       -2.9045110     2.1962980    -0.1738640
  H       -3.7641930    -0.2736150     0.1955190
  H        3.7134240    -0.2643480    -0.6614350
  H        3.7418120    -0.0946250     1.1012270
  H        4.0344840     1.3296500     0.0646150
units angstrom
no_reorient  #important for SAPT in psi4, default
symmetry c1  #important for SAPT in psi4, default
}

set PROPERTIES_ORIGIN ["COM"]
properties('MP2/aug-cc-pvtz', properties = ['dipole'])
--------------------------------------------------------------------------

    Molecular point group: c1
  Charge       = 0
  Multiplicity = 1
  Basis Set: AUG-CC-PVTZ
    Blend: AUG-CC-PVTZ
  Basis Set: (AUG-CC-PVTZ AUX)
    Blend: AUG-CC-PVTZ-JKFIT

    Orbital Energies [Eh]
    ---------------------

    Doubly Occupied:

       1A    -91.997850     2A    -20.523470     3A    -15.590060
       4A    -11.362795     5A    -11.283602     6A    -11.280771
       7A    -11.278477     8A    -11.261304     9A    -11.253182
      10A     -8.997523    11A     -6.678349    12A     -6.677799
      13A     -6.677107    14A     -1.378122    15A     -1.232738
      16A     -1.185091    17A     -1.020893    18A     -0.996628
      19A     -0.945396    20A     -0.831268    21A     -0.770243
      22A     -0.766774    23A     -0.699655    24A     -0.645998
      25A     -0.642053    26A     -0.625836    27A     -0.578509
      28A     -0.561485    29A     -0.553784    30A     -0.551681
      31A     -0.528214    32A     -0.512243    33A     -0.484579
      34A     -0.436836    35A     -0.399713    36A     -0.358313
      37A     -0.337158

  @DF-RHF Final Energy:  -758.24601507977286

   => Energetics <=

    Nuclear Repulsion Energy =            499.0237571678476911
    One-Electron Energy =               -2030.7285471744971801
    Two-Electron Energy =                 773.4587749268766856
    Total Energy =                       -758.2460150797728602
  Basis Set: (AUG-CC-PVTZ AUX)
    Blend: AUG-CC-PVTZ-RI
    Molecular point group: c1

    Geometry (in Angstrom), charge = 0, multiplicity = 1:

       Center              X                  Y                   Z               Mass
    ------------   -----------------  -----------------  -----------------  -----------------
         S           -1.424977954834    -1.063200699745     0.156341426702    31.972071174400
         O            1.529190045166    -1.416107699745    -0.342177573298    15.994914619570
         N            2.091881045166     0.756926300255     0.106606426702    14.003074004430
         C           -0.230455954834     0.159709300255    -0.046552573298    12.000000000000
         C            1.191082045166    -0.251448699745    -0.103176573298    12.000000000000
         C           -0.806164954834     1.413181300255    -0.176642573298    12.000000000000
         C           -2.216867954834     1.372776300255    -0.087949573298    12.000000000000
         C           -2.691135954834     0.090735300255     0.097922426702    12.000000000000
         C            3.510821045166     0.448226300255     0.169765426702    12.000000000000
         H           -0.129401154834     2.483213400255    -0.402571973298     1.007825032230
         H            1.761241045166     1.584544300255     0.584972426702     1.007825032230
         H           -2.861491954834     2.241982300255    -0.168442573298     1.007825032230
         H           -3.721173954834    -0.227930699745     0.200940426702     1.007825032230
         H            3.756443045166    -0.218663699745    -0.656013573298     1.007825032230
         H            3.784831045166    -0.048940699745     1.106648426702     1.007825032230
         H            4.077503045166     1.375334300255     0.070036426702     1.007825032230

  Basis Set: AUG-CC-PVTZ
    Blend: AUG-CC-PVTZ
  Basis Set: (AUG-CC-PVTZ AUX)
    Blend: AUG-CC-PVTZ-JKFIT
	 Reference Energy          =    -758.2460150797728602 [Eh]
	 Singles Energy            =      -0.0000000000000000 [Eh]
	 Same-Spin Energy          =      -0.4441003907545315 [Eh]
	 Opposite-Spin Energy      =      -1.3498999763777171 [Eh]
	 Correlation Energy        =      -1.7940003671322486 [Eh]
	 Total Energy              =    -760.0400154469051586 [Eh]

	 ================> DF-SCS-MP2 Energies <==================
	-----------------------------------------------------------
	 SCS Same-Spin Scale       =       0.3333333333333333 [-]
	 SCS Opposite-Spin Scale   =       1.2000000000000000 [-]
	 SCS Same-Spin Energy      =      -0.1480334635848438 [Eh]
	 SCS Opposite-Spin Energy  =      -1.6198799716532604 [Eh]
	 SCS Correlation Energy    =      -1.7679134352381043 [Eh]
	 SCS Total Energy          =    -760.0139285150110027 [Eh]
	-----------------------------------------------------------

  Dipole Moment: [D]
     X:    -0.3852      Y:     3.5644      Z:     1.0847     Total:     3.7457

*** Psi4 exiting successfully. Buy a developer a beer!
