                               Psi4 1.3.2 release

  ==> Input File <==

--------------------------------------------------------------------------
#psi4
#
memory 32 gb

molecule  {
0 1
  S       -1.4679970    -1.1088850     0.1509200
  O        1.4861710    -1.4617920    -0.3475990
  N        2.0488620     0.7112420     0.1011850
  C       -0.2734750     0.1140250    -0.0519740
  C        1.1480630    -0.2971330    -0.1085980
  C       -0.8491840     1.3674970    -0.1820640
  C       -2.1601248     1.3299494    -0.0996432
  C       -2.7341550     0.0450510     0.0925010
  C        3.4678020     0.4025420     0.1643440
  H       -0.2776640     2.2711280    -0.3728590
  H        1.7182220     1.5388600     0.5795510
  H       -2.9045110     2.1962980    -0.1738640
  H       -3.7641930    -0.2736150     0.1955190
  H        3.7134240    -0.2643480    -0.6614350
  H        3.7418120    -0.0946250     1.1012270
  H        4.0344840     1.3296500     0.0646150
units angstrom
no_reorient  #important for SAPT in psi4, default
symmetry c1  #important for SAPT in psi4, default
}

set PROPERTIES_ORIGIN ["COM"]
properties('MP2/aug-cc-pvtz', properties = ['dipole'])
--------------------------------------------------------------------------

    Molecular point group: c1
  Charge       = 0
  Multiplicity = 1
  Basis Set: AUG-CC-PVTZ
    Blend: AUG-CC-PVTZ
  Basis Set: (AUG-CC-PVTZ AUX)
    Blend: AUG-CC-PVTZ-JKFIT

    Orbital Energies [Eh]
    ---------------------

    Doubly Occupied:

       1A    -92.001837     2A    -20.520971     3A    -15.589790
       4A    -11.360810     5A    -11.283802     6A    -11.274417
       7A    -11.261012     8A    -11.252133     9A    -11.249695
      10A     -9.000973    11A     -6.681677    12A     -6.681250
      13A     -6.680703    14A     -1.376240    15A     -1.232369
      16A     -1.193490    17A     -1.016504    18A     -1.014104
      19A     -0.942688    20A     -0.830474    21A     -0.772332
      22A     -0.764935    23A     -0.724930    24A     -0.645260
      25A     -0.638474    26A     -0.624590    27A     -0.592765
      28A     -0.569335    29A     -0.558446    30A     -0.552332
      31A     -0.525897    32A     -0.512497    33A     -0.483797
      34A     -0.434441    35A     -0.399573    36A     -0.368483
      37A     -0.324853

  @DF-RHF Final Energy:  -758.25152996996405

   => Energetics <=

    Nuclear Repulsion Energy =            501.3622204249634819
    One-Electron Energy =               -2035.3517354775704007
    Two-Electron Energy =                 775.7379850826429220
    Total Energy =                       -758.2515299699640536
  Basis Set: (AUG-CC-PVTZ AUX)
    Blend: AUG-CC-PVTZ-RI
    Molecular point group: c1

    Geometry (in Angstrom), charge = 0, multiplicity = 1:

       Center              X                  Y                   Z               Mass
    ------------   -----------------  -----------------  -----------------  -----------------
         S           -1.432714741505    -1.062254664999     0.156624051193    31.972071174400
         O            1.521453258495    -1.415161664999    -0.341894948807    15.994914619570
         N            2.084144258495     0.757872335001     0.106889051193    14.003074004430
         C           -0.238192741505     0.160655335001    -0.046269948807    12.000000000000
         C            1.183345258495    -0.250502664999    -0.102893948807    12.000000000000
         C           -0.813901741505     1.414127335001    -0.176359948807    12.000000000000
         C           -2.124842541505     1.376579735001    -0.093939148807    12.000000000000
         C           -2.698872741505     0.091681335001     0.098205051193    12.000000000000
         C            3.503084258495     0.449172335001     0.170048051193    12.000000000000
         H           -0.242381741505     2.317758335001    -0.367154948807     1.007825032230
         H            1.753504258495     1.585490335001     0.585255051193     1.007825032230
         H           -2.869228741505     2.242928335001    -0.168159948807     1.007825032230
         H           -3.728910741505    -0.226984664999     0.201223051193     1.007825032230
         H            3.748706258495    -0.217717664999    -0.655730948807     1.007825032230
         H            3.777094258495    -0.047994664999     1.106931051193     1.007825032230
         H            4.069766258495     1.376280335001     0.070319051193     1.007825032230

  Basis Set: AUG-CC-PVTZ
    Blend: AUG-CC-PVTZ
  Basis Set: (AUG-CC-PVTZ AUX)
    Blend: AUG-CC-PVTZ-JKFIT
	 Reference Energy          =    -758.2515299699640536 [Eh]
	 Singles Energy            =      -0.0000000000000000 [Eh]
	 Same-Spin Energy          =      -0.4461370443563462 [Eh]
	 Opposite-Spin Energy      =      -1.3505257569171356 [Eh]
	 Correlation Energy        =      -1.7966628012734818 [Eh]
	 Total Energy              =    -760.0481927712374954 [Eh]

	 ================> DF-SCS-MP2 Energies <==================
	-----------------------------------------------------------
	 SCS Same-Spin Scale       =       0.3333333333333333 [-]
	 SCS Opposite-Spin Scale   =       1.2000000000000000 [-]
	 SCS Same-Spin Energy      =      -0.1487123481187820 [Eh]
	 SCS Opposite-Spin Energy  =      -1.6206309083005628 [Eh]
	 SCS Correlation Energy    =      -1.7693432564193448 [Eh]
	 SCS Total Energy          =    -760.0208732263834008 [Eh]
	-----------------------------------------------------------

  Dipole Moment: [D]
     X:    -0.3767      Y:     3.5701      Z:     1.0925     Total:     3.7525

*** Psi4 exiting successfully. Buy a developer a beer!
