                               Psi4 1.3.2 release

  ==> Input File <==

--------------------------------------------------------------------------
#psi4
#
memory 32 gb

molecule  {
0 1
  S       -1.4679970    -1.1088850     0.1509200
  O        1.4861710    -1.4617920    -0.3475990
  N        2.0488620     0.7112420     0.1011850
  C       -0.3626027     0.0778582    -0.0419691
  C        1.1480630    -0.2971330    -0.1085980
  C       -0.8491840     1.3674970    -0.1820640
  C       -2.2598870     1.3270920    -0.0933710
  C       -2.7341550     0.0450510     0.0925010
  C        3.4678020     0.4025420     0.1643440
  H       -0.2776640     2.2711280    -0.3728590
  H        1.7182220     1.5388600     0.5795510
  H       -2.9045110     2.1962980    -0.1738640
  H       -3.7641930    -0.2736150     0.1955190
  H        3.7134240    -0.2643480    -0.6614350
  H        3.7418120    -0.0946250     1.1012270
  H        4.0344840     1.3296500     0.0646150
units angstrom
no_reorient  #important for SAPT in psi4, default
symmetry c1  #important for SAPT in psi4, default
}

set PROPERTIES_ORIGIN ["COM"]
properties('MP2/aug-cc-pvtz', properties = ['dipole'])
--------------------------------------------------------------------------

    Molecular point group: c1
  Charge       = 0
  Multiplicity = 1
  Basis Set: AUG-CC-PVTZ
    Blend: AUG-CC-PVTZ
  Basis Set: (AUG-CC-PVTZ AUX)
    Blend: AUG-CC-PVTZ-JKFIT

    Orbital Energies [Eh]
    ---------------------

    Doubly Occupied:

       1A    -91.996780     2A    -20.524351     3A    -15.593221
       4A    -11.366950     5A    -11.275651     6A    -11.271405
       7A    -11.263225     8A    -11.255179     9A    -11.248812
      10A     -8.998517    11A     -6.679529    12A     -6.678780
      13A     -6.678026    14A     -1.377382    15A     -1.233145
      16A     -1.194775    17A     -1.014079    18A     -1.004465
      19A     -0.946692    20A     -0.819724    21A     -0.770912
      22A     -0.766618    23A     -0.723493    24A     -0.645885
      25A     -0.640222    26A     -0.624898    27A     -0.575990
      28A     -0.564145    29A     -0.559920    30A     -0.553880
      31A     -0.542836    32A     -0.515640    33A     -0.494622
      34A     -0.431755    35A     -0.400803    36A     -0.358224
      37A     -0.332818

  @DF-RHF Final Energy:  -758.25933186824216

   => Energetics <=

    Nuclear Repulsion Energy =            500.6489434718538405
    One-Electron Energy =               -2033.9698534257997835
    Two-Electron Energy =                 775.0615780857036725
    Total Energy =                       -758.2593318682421568
  Basis Set: (AUG-CC-PVTZ AUX)
    Blend: AUG-CC-PVTZ-RI
    Molecular point group: c1

    Geometry (in Angstrom), charge = 0, multiplicity = 1:

       Center              X                  Y                   Z               Mass
    ------------   -----------------  -----------------  -----------------  -----------------
         S           -1.416641836335    -1.058934041366     0.155239010040    31.972071174400
         O            1.537526163665    -1.411841041366    -0.343279989960    15.994914619570
         N            2.100217163665     0.761192958634     0.105504010040    14.003074004430
         C           -0.311247536335     0.127809158634    -0.037650089960    12.000000000000
         C            1.199418163665    -0.247182041366    -0.104278989960    12.000000000000
         C           -0.797828836335     1.417447958634    -0.177744989960    12.000000000000
         C           -2.208531836335     1.377042958634    -0.089051989960    12.000000000000
         C           -2.682799836335     0.095001958634     0.096820010040    12.000000000000
         C            3.519157163665     0.452492958634     0.168663010040    12.000000000000
         H           -0.226308836335     2.321078958634    -0.368539989960     1.007825032230
         H            1.769577163665     1.588810958634     0.583870010040     1.007825032230
         H           -2.853155836335     2.246248958634    -0.169544989960     1.007825032230
         H           -3.712837836335    -0.223664041366     0.199838010040     1.007825032230
         H            3.764779163665    -0.214397041366    -0.657115989960     1.007825032230
         H            3.793167163665    -0.044674041366     1.105546010040     1.007825032230
         H            4.085839163665     1.379600958634     0.068934010040     1.007825032230

  Basis Set: AUG-CC-PVTZ
    Blend: AUG-CC-PVTZ
  Basis Set: (AUG-CC-PVTZ AUX)
    Blend: AUG-CC-PVTZ-JKFIT
	 Reference Energy          =    -758.2593318682421568 [Eh]
	 Singles Energy            =      -0.0000000000000000 [Eh]
	 Same-Spin Energy          =      -0.4438092872492412 [Eh]
	 Opposite-Spin Energy      =      -1.3475270743937562 [Eh]
	 Correlation Energy        =      -1.7913363616429974 [Eh]
	 Total Energy              =    -760.0506682298851047 [Eh]

	 ================> DF-SCS-MP2 Energies <==================
	-----------------------------------------------------------
	 SCS Same-Spin Scale       =       0.3333333333333333 [-]
	 SCS Opposite-Spin Scale   =       1.2000000000000000 [-]
	 SCS Same-Spin Energy      =      -0.1479364290830804 [Eh]
	 SCS Opposite-Spin Energy  =      -1.6170324892725074 [Eh]
	 SCS Correlation Energy    =      -1.7649689183555879 [Eh]
	 SCS Total Energy          =    -760.0243007865977916 [Eh]
	-----------------------------------------------------------

  Dipole Moment: [D]
     X:    -0.1715      Y:     3.4754      Z:     1.0991     Total:     3.6491

*** Psi4 exiting successfully. Buy a developer a beer!
