                               Psi4 1.4a3.dev225

  ==> Input File <==

--------------------------------------------------------------------------
#psi4
#
memory 32 gb

molecule  {
0 1
  S       -1.4679970    -1.1088850     0.1509200
  O        1.4861710    -1.4617920    -0.3475990
  N        2.0488620     0.7112420     0.1011850
  C       -0.2734750     0.1140250    -0.0519740
  C        1.1480630    -0.2971330    -0.1085980
  C       -0.8284075     1.3222610    -0.1773692
  C       -2.2598870     1.3270920    -0.0933710
  C       -2.7341550     0.0450510     0.0925010
  C        3.4678020     0.4025420     0.1643440
  H       -0.2776640     2.2711280    -0.3728590
  H        1.7182220     1.5388600     0.5795510
  H       -2.9045110     2.1962980    -0.1738640
  H       -3.7641930    -0.2736150     0.1955190
  H        3.7134240    -0.2643480    -0.6614350
  H        3.7418120    -0.0946250     1.1012270
  H        4.0344840     1.3296500     0.0646150
units angstrom
no_reorient  #important for SAPT in psi4, default
symmetry c1  #important for SAPT in psi4, default
}

set PROPERTIES_ORIGIN ["COM"]
properties('MP2/aug-cc-pvtz', properties = ['dipole'])
--------------------------------------------------------------------------

    Molecular point group: c1
  Charge       = 0
  Multiplicity = 1
  Basis Set: AUG-CC-PVTZ
    Blend: AUG-CC-PVTZ
  Basis Set: (AUG-CC-PVTZ AUX)
    Blend: AUG-CC-PVTZ-JKFIT

    Orbital Energies [Eh]
    ---------------------

    Doubly Occupied:

       1A    -91.992514     2A    -20.524435     3A    -15.591367
       4A    -11.363371     5A    -11.279004     6A    -11.271884
       7A    -11.262085     8A    -11.260834     9A    -11.251556
      10A     -8.992640    11A     -6.673501    12A     -6.672949
      13A     -6.672190    14A     -1.378980    15A     -1.234160
      16A     -1.188214    17A     -1.025320    18A     -0.996403
      19A     -0.948372    20A     -0.832658    21A     -0.772993
      22A     -0.769150    23A     -0.719961    24A     -0.647114
      25A     -0.643732    26A     -0.626925    27A     -0.583898
      28A     -0.564179    29A     -0.558279    30A     -0.553435
      31A     -0.534161    32A     -0.512230    33A     -0.484177
      34A     -0.437268    35A     -0.400738    36A     -0.356521
      37A     -0.341224

  @DF-RHF Final Energy:  -758.26783168931593

   => Energetics <=

    Nuclear Repulsion Energy =            500.8512378475675746
    One-Electron Energy =               -2034.4012959111146301
    Two-Electron Energy =                 775.2822263742311861
    Total Energy =                       -758.2678316893159263
  Basis Set: (AUG-CC-PVTZ AUX)
    Blend: AUG-CC-PVTZ-RI
    Molecular point group: c1

    Geometry (in Angstrom), charge = 0, multiplicity = 1:

       Center              X                  Y                   Z               Mass
    ------------   -----------------  -----------------  -----------------  -----------------
         S           -1.425993738075    -1.058162330483     0.155690853859    31.972071174400
         O            1.528174261925    -1.411069330483    -0.342828146141    15.994914619570
         N            2.090865261925     0.761964669517     0.105955853859    14.003074004430
         C           -0.231471738075     0.164747669517    -0.047203146141    12.000000000000
         C            1.190066261925    -0.246410330483    -0.103827146141    12.000000000000
         C           -0.786404238075     1.372983669517    -0.172598346141    12.000000000000
         C           -2.217883738075     1.377814669517    -0.088600146141    12.000000000000
         C           -2.692151738075     0.095773669517     0.097271853859    12.000000000000
         C            3.509805261925     0.453264669517     0.169114853859    12.000000000000
         H           -0.235660738075     2.321850669517    -0.368088146141     1.007825032230
         H            1.760225261925     1.589582669517     0.584321853859     1.007825032230
         H           -2.862507738075     2.247020669517    -0.169093146141     1.007825032230
         H           -3.722189738075    -0.222892330483     0.200289853859     1.007825032230
         H            3.755427261925    -0.213625330483    -0.656664146141     1.007825032230
         H            3.783815261925    -0.043902330483     1.105997853859     1.007825032230
         H            4.076487261925     1.380372669517     0.069385853859     1.007825032230

  Basis Set: AUG-CC-PVTZ
    Blend: AUG-CC-PVTZ
  Basis Set: (AUG-CC-PVTZ AUX)
    Blend: AUG-CC-PVTZ-JKFIT
	 Reference Energy          =    -758.2678316893159263 [Eh]
	 Singles Energy            =      -0.0000000000000000 [Eh]
	 Same-Spin Energy          =      -0.4424129216873508 [Eh]
	 Opposite-Spin Energy      =      -1.3465213137835481 [Eh]
	 Correlation Energy        =      -1.7889342354708990 [Eh]
	 Total Energy              =    -760.0567659247868733 [Eh]

	 ================> DF-SCS-MP2 Energies <==================
	-----------------------------------------------------------
	 SCS Same-Spin Scale       =       0.3333333333333333 [-]
	 SCS Opposite-Spin Scale   =       1.2000000000000000 [-]
	 SCS Same-Spin Energy      =      -0.1474709738957836 [Eh]
	 SCS Opposite-Spin Energy  =      -1.6158255765402576 [Eh]
	 SCS Correlation Energy    =      -1.7632965504360412 [Eh]
	 SCS Total Energy          =    -760.0311282397519790 [Eh]
	-----------------------------------------------------------

  Dipole Moment: [D]
     X:    -0.2953      Y:     3.6692      Z:     1.0755     Total:     3.8349

*** Psi4 exiting successfully. Buy a developer a beer!
