                               Psi4 1.3.2 release

  ==> Input File <==

--------------------------------------------------------------------------
#psi4
#
memory 32 gb

molecule  {
0 1
  S       -1.4679970    -1.1088850     0.1509200
  O        1.4861710    -1.4617920    -0.3475990
  N        2.0488620     0.7112420     0.1011850
  C       -0.2734750     0.1140250    -0.0519740
  C        1.1480630    -0.2971330    -0.1085980
  C       -0.8482311     1.3185933    -0.1754528
  C       -2.2598870     1.3270920    -0.0933710
  C       -2.7341550     0.0450510     0.0925010
  C        3.4678020     0.4025420     0.1643440
  H       -0.2776640     2.2711280    -0.3728590
  H        1.7182220     1.5388600     0.5795510
  H       -2.9045110     2.1962980    -0.1738640
  H       -3.7641930    -0.2736150     0.1955190
  H        3.7134240    -0.2643480    -0.6614350
  H        3.7418120    -0.0946250     1.1012270
  H        4.0344840     1.3296500     0.0646150
units angstrom
no_reorient  #important for SAPT in psi4, default
symmetry c1  #important for SAPT in psi4, default
}

set PROPERTIES_ORIGIN ["COM"]
properties('MP2/aug-cc-pvtz', properties = ['dipole'])
--------------------------------------------------------------------------

    Molecular point group: c1
  Charge       = 0
  Multiplicity = 1
  Basis Set: AUG-CC-PVTZ
    Blend: AUG-CC-PVTZ
  Basis Set: (AUG-CC-PVTZ AUX)
    Blend: AUG-CC-PVTZ-JKFIT

    Orbital Energies [Eh]
    ---------------------

    Doubly Occupied:

       1A    -91.993142     2A    -20.524355     3A    -15.591311
       4A    -11.363689     5A    -11.279360     6A    -11.271682
       7A    -11.262017     8A    -11.260721     9A    -11.249963
      10A     -8.993196    11A     -6.674035    12A     -6.673509
      13A     -6.672764    14A     -1.378927    15A     -1.234034
      16A     -1.190037    17A     -1.024570    18A     -0.998343
      19A     -0.948206    20A     -0.832681    21A     -0.773301
      22A     -0.769134    23A     -0.718197    24A     -0.647810
      25A     -0.644142    26A     -0.627008    27A     -0.583686
      28A     -0.565314    29A     -0.558277    30A     -0.553466
      31A     -0.532786    32A     -0.512957    33A     -0.483555
      34A     -0.437657    35A     -0.400701    36A     -0.357384
      37A     -0.340268

  @DF-RHF Final Energy:  -758.26712123340565

   => Energetics <=

    Nuclear Repulsion Energy =            500.9673736888877329
    One-Electron Energy =               -2034.6246147688209476
    Two-Electron Energy =                 775.3901198465274547
    Total Energy =                       -758.2671212334056463
  Basis Set: (AUG-CC-PVTZ AUX)
    Blend: AUG-CC-PVTZ-RI
    Molecular point group: c1

    Geometry (in Angstrom), charge = 0, multiplicity = 1:

       Center              X                  Y                   Z               Mass
    ------------   -----------------  -----------------  -----------------  -----------------
         S           -1.424306920289    -1.057850240772     0.155527784709    31.972071174400
         O            1.529861079711    -1.410757240772    -0.342991215291    15.994914619570
         N            2.092552079711     0.762276759228     0.105792784709    14.003074004430
         C           -0.229784920289     0.165059759228    -0.047366215291    12.000000000000
         C            1.191753079711    -0.246098240772    -0.103990215291    12.000000000000
         C           -0.804541020289     1.369628059228    -0.170845015291    12.000000000000
         C           -2.216196920289     1.378126759228    -0.088763215291    12.000000000000
         C           -2.690464920289     0.096085759228     0.097108784709    12.000000000000
         C            3.511492079711     0.453576759228     0.168951784709    12.000000000000
         H           -0.233973920289     2.322162759228    -0.368251215291     1.007825032230
         H            1.761912079711     1.589894759228     0.584158784709     1.007825032230
         H           -2.860820920289     2.247332759228    -0.169256215291     1.007825032230
         H           -3.720502920289    -0.222580240772     0.200126784709     1.007825032230
         H            3.757114079711    -0.213313240772    -0.656827215291     1.007825032230
         H            3.785502079711    -0.043590240772     1.105834784709     1.007825032230
         H            4.078174079711     1.380684759228     0.069222784709     1.007825032230

  Basis Set: AUG-CC-PVTZ
    Blend: AUG-CC-PVTZ
  Basis Set: (AUG-CC-PVTZ AUX)
    Blend: AUG-CC-PVTZ-JKFIT
	 Reference Energy          =    -758.2671212334056463 [Eh]
	 Singles Energy            =      -0.0000000000000000 [Eh]
	 Same-Spin Energy          =      -0.4428583495407449 [Eh]
	 Opposite-Spin Energy      =      -1.3468679338756213 [Eh]
	 Correlation Energy        =      -1.7897262834163663 [Eh]
	 Total Energy              =    -760.0568475168220175 [Eh]

	 ================> DF-SCS-MP2 Energies <==================
	-----------------------------------------------------------
	 SCS Same-Spin Scale       =       0.3333333333333333 [-]
	 SCS Opposite-Spin Scale   =       1.2000000000000000 [-]
	 SCS Same-Spin Energy      =      -0.1476194498469149 [Eh]
	 SCS Opposite-Spin Energy  =      -1.6162415206507454 [Eh]
	 SCS Correlation Energy    =      -1.7638609704976604 [Eh]
	 SCS Total Energy          =    -760.0309822039033634 [Eh]
	-----------------------------------------------------------

  Dipole Moment: [D]
     X:    -0.3016      Y:     3.6598      Z:     1.0784     Total:     3.8272

*** Psi4 exiting successfully. Buy a developer a beer!
