                               Psi4 1.3.2 release

  ==> Input File <==

--------------------------------------------------------------------------
#psi4
#
memory 32 gb

molecule  {
0 1
  S       -1.4679970    -1.1088850     0.1509200
  O        1.4861710    -1.4617920    -0.3475990
  N        2.0488620     0.7112420     0.1011850
  C       -0.2734750     0.1140250    -0.0519740
  C        1.1480630    -0.2971330    -0.1085980
  C       -0.8491840     1.3674970    -0.1820640
  C       -2.2598870     1.3270920    -0.0933710
  C       -2.7115021     0.0368932     0.0924741
  C        3.4678020     0.4025420     0.1643440
  H       -0.2776640     2.2711280    -0.3728590
  H        1.7182220     1.5388600     0.5795510
  H       -2.9045110     2.1962980    -0.1738640
  H       -3.7641930    -0.2736150     0.1955190
  H        3.7134240    -0.2643480    -0.6614350
  H        3.7418120    -0.0946250     1.1012270
  H        4.0344840     1.3296500     0.0646150
units angstrom
no_reorient  #important for SAPT in psi4, default
symmetry c1  #important for SAPT in psi4, default
}

set PROPERTIES_ORIGIN ["COM"]
properties('MP2/aug-cc-pvtz', properties = ['dipole'])
--------------------------------------------------------------------------

    Molecular point group: c1
  Charge       = 0
  Multiplicity = 1
  Basis Set: AUG-CC-PVTZ
    Blend: AUG-CC-PVTZ
  Basis Set: (AUG-CC-PVTZ AUX)
    Blend: AUG-CC-PVTZ-JKFIT

    Orbital Energies [Eh]
    ---------------------

    Doubly Occupied:

       1A    -91.996851     2A    -20.522830     3A    -15.590336
       4A    -11.362084     5A    -11.279038     6A    -11.275461
       7A    -11.262547     8A    -11.261402     9A    -11.249832
      10A     -8.997017    11A     -6.677888    12A     -6.677286
      13A     -6.676606    14A     -1.377630    15A     -1.232875
      16A     -1.186958    17A     -1.019798    18A     -1.003684
      19A     -0.945321    20A     -0.832274    21A     -0.769801
      22A     -0.767475    23A     -0.722551    24A     -0.645489
      25A     -0.641481    26A     -0.625176    27A     -0.578946
      28A     -0.569141    29A     -0.558429    30A     -0.552251
      31A     -0.534628    32A     -0.512616    33A     -0.489460
      34A     -0.436359    35A     -0.400027    36A     -0.357886
      37A     -0.335274

  @DF-RHF Final Energy:  -758.26788054590565

   => Energetics <=

    Nuclear Repulsion Energy =            500.4909737248842134
    One-Electron Energy =               -2033.6682985048819319
    Two-Electron Energy =                 774.9094442340920068
    Total Energy =                       -758.2678805459056548
  Basis Set: (AUG-CC-PVTZ AUX)
    Blend: AUG-CC-PVTZ-RI
    Molecular point group: c1

    Geometry (in Angstrom), charge = 0, multiplicity = 1:

       Center              X                  Y                   Z               Mass
    ------------   -----------------  -----------------  -----------------  -----------------
         S           -1.426153403569    -1.061317366261     0.156092629901    31.972071174400
         O            1.528014596431    -1.414224366261    -0.342426370099    15.994914619570
         N            2.090705596431     0.758809633739     0.106357629901    14.003074004430
         C           -0.231631403569     0.161592633739    -0.046801370099    12.000000000000
         C            1.189906596431    -0.249565366261    -0.103425370099    12.000000000000
         C           -0.807340403569     1.415064633739    -0.176891370099    12.000000000000
         C           -2.218043403569     1.374659633739    -0.088198370099    12.000000000000
         C           -2.669658503569     0.084460833739     0.097646729901    12.000000000000
         C            3.509645596431     0.450109633739     0.169516629901    12.000000000000
         H           -0.235820403569     2.318695633739    -0.367686370099     1.007825032230
         H            1.760065596431     1.586427633739     0.584723629901     1.007825032230
         H           -2.862667403569     2.243865633739    -0.168691370099     1.007825032230
         H           -3.722349403569    -0.226047366261     0.200691629901     1.007825032230
         H            3.755267596431    -0.216780366261    -0.656262370099     1.007825032230
         H            3.783655596431    -0.047057366261     1.106399629901     1.007825032230
         H            4.076327596431     1.377217633739     0.069787629901     1.007825032230

  Basis Set: AUG-CC-PVTZ
    Blend: AUG-CC-PVTZ
  Basis Set: (AUG-CC-PVTZ AUX)
    Blend: AUG-CC-PVTZ-JKFIT
	 Reference Energy          =    -758.2678805459056548 [Eh]
	 Singles Energy            =      -0.0000000000000000 [Eh]
	 Same-Spin Energy          =      -0.4436845163341007 [Eh]
	 Opposite-Spin Energy      =      -1.3476809149777644 [Eh]
	 Correlation Energy        =      -1.7913654313118652 [Eh]
	 Total Energy              =    -760.0592459772175289 [Eh]

	 ================> DF-SCS-MP2 Energies <==================
	-----------------------------------------------------------
	 SCS Same-Spin Scale       =       0.3333333333333333 [-]
	 SCS Opposite-Spin Scale   =       1.2000000000000000 [-]
	 SCS Same-Spin Energy      =      -0.1478948387780336 [Eh]
	 SCS Opposite-Spin Energy  =      -1.6172170979733174 [Eh]
	 SCS Correlation Energy    =      -1.7651119367513508 [Eh]
	 SCS Total Energy          =    -760.0329924826570505 [Eh]
	-----------------------------------------------------------

  Dipole Moment: [D]
     X:    -0.3441      Y:     3.5920      Z:     1.0850     Total:     3.7681

*** Psi4 exiting successfully. Buy a developer a beer!
