                               Psi4 1.3.2 release

  ==> Input File <==

--------------------------------------------------------------------------
#psi4
#
memory 32 gb

molecule  {
0 1
  S       -1.4679970    -1.1088850     0.1509200
  O        1.4861710    -1.4617920    -0.3475990
  N        2.0488620     0.7112420     0.1011850
  C       -0.3175564     0.0954487    -0.0448723
  C        1.1480630    -0.2971330    -0.1085980
  C       -0.8491840     1.3674970    -0.1820640
  C       -2.2598870     1.3270920    -0.0933710
  C       -2.7341550     0.0450510     0.0925010
  C        3.4678020     0.4025420     0.1643440
  H       -0.2776640     2.2711280    -0.3728590
  H        1.7182220     1.5388600     0.5795510
  H       -2.9045110     2.1962980    -0.1738640
  H       -3.7641930    -0.2736150     0.1955190
  H        3.7134240    -0.2643480    -0.6614350
  H        3.7418120    -0.0946250     1.1012270
  H        4.0344840     1.3296500     0.0646150
units angstrom
no_reorient  #important for SAPT in psi4, default
symmetry c1  #important for SAPT in psi4, default
}

set PROPERTIES_ORIGIN ["COM"]
properties('MP2/aug-cc-pvtz', properties = ['dipole'])
--------------------------------------------------------------------------

    Molecular point group: c1
  Charge       = 0
  Multiplicity = 1
  Basis Set: AUG-CC-PVTZ
    Blend: AUG-CC-PVTZ
  Basis Set: (AUG-CC-PVTZ AUX)
    Blend: AUG-CC-PVTZ-JKFIT

    Orbital Energies [Eh]
    ---------------------

    Doubly Occupied:

       1A    -91.996625     2A    -20.523931     3A    -15.592052
       4A    -11.364957     5A    -11.276171     6A    -11.275298
       7A    -11.262491     8A    -11.258815     9A    -11.249799
      10A     -8.997257    11A     -6.678150    12A     -6.677565
      13A     -6.676832    14A     -1.377782    15A     -1.233181
      16A     -1.189035    17A     -1.015370    18A     -1.004130
      19A     -0.946532    20A     -0.826187    21A     -0.770871
      22A     -0.768268    23A     -0.722681    24A     -0.646057
      25A     -0.640917    26A     -0.625353    27A     -0.577197
      28A     -0.569217    29A     -0.558603    30A     -0.553388
      31A     -0.537994    32A     -0.513558    33A     -0.491104
      34A     -0.434712    35A     -0.400574    36A     -0.357247
      37A     -0.334686

  @DF-RHF Final Energy:  -758.26654202290888

   => Energetics <=

    Nuclear Repulsion Energy =            500.2725783186609760
    One-Electron Energy =               -2033.2290673660761513
    Two-Electron Energy =                 774.6899470245064094
    Total Energy =                       -758.2665420229088795
  Basis Set: (AUG-CC-PVTZ AUX)
    Blend: AUG-CC-PVTZ-RI
    Molecular point group: c1

    Geometry (in Angstrom), charge = 0, multiplicity = 1:

       Center              X                  Y                   Z               Mass
    ------------   -----------------  -----------------  -----------------  -----------------
         S           -1.420474888860    -1.060430841557     0.155486047379    31.972071174400
         O            1.533693111140    -1.413337841557    -0.343032952621    15.994914619570
         N            2.096384111140     0.759696158443     0.105751047379    14.003074004430
         C           -0.270034288860     0.143902858443    -0.040306252621    12.000000000000
         C            1.195585111140    -0.248678841557    -0.104031952621    12.000000000000
         C           -0.801661888860     1.415951158443    -0.177497952621    12.000000000000
         C           -2.212364888860     1.375546158443    -0.088804952621    12.000000000000
         C           -2.686632888860     0.093505158443     0.097067047379    12.000000000000
         C            3.515324111140     0.450996158443     0.168910047379    12.000000000000
         H           -0.230141888860     2.319582158443    -0.368292952621     1.007825032230
         H            1.765744111140     1.587314158443     0.584117047379     1.007825032230
         H           -2.856988888860     2.244752158443    -0.169297952621     1.007825032230
         H           -3.716670888860    -0.225160841557     0.200085047379     1.007825032230
         H            3.760946111140    -0.215893841557    -0.656868952621     1.007825032230
         H            3.789334111140    -0.046170841557     1.105793047379     1.007825032230
         H            4.082006111140     1.378104158443     0.069181047379     1.007825032230

  Basis Set: AUG-CC-PVTZ
    Blend: AUG-CC-PVTZ
  Basis Set: (AUG-CC-PVTZ AUX)
    Blend: AUG-CC-PVTZ-JKFIT
	 Reference Energy          =    -758.2665420229088795 [Eh]
	 Singles Energy            =      -0.0000000000000000 [Eh]
	 Same-Spin Energy          =      -0.4435397171865266 [Eh]
	 Opposite-Spin Energy      =      -1.3474689038211203 [Eh]
	 Correlation Energy        =      -1.7910086210076468 [Eh]
	 Total Energy              =    -760.0575506439165565 [Eh]

	 ================> DF-SCS-MP2 Energies <==================
	-----------------------------------------------------------
	 SCS Same-Spin Scale       =       0.3333333333333333 [-]
	 SCS Opposite-Spin Scale   =       1.2000000000000000 [-]
	 SCS Same-Spin Energy      =      -0.1478465723955089 [Eh]
	 SCS Opposite-Spin Energy  =      -1.6169626845853442 [Eh]
	 SCS Correlation Energy    =      -1.7648092569808531 [Eh]
	 SCS Total Energy          =    -760.0313512798896909 [Eh]
	-----------------------------------------------------------

  Dipole Moment: [D]
     X:    -0.2534      Y:     3.5460      Z:     1.0893     Total:     3.7182

*** Psi4 exiting successfully. Buy a developer a beer!
