                               Psi4 1.4a3.dev225

  ==> Input File <==

--------------------------------------------------------------------------
#psi4
#
memory 32 gb

molecule  {
0 1
  S       -1.4679970    -1.1088850     0.1509200
  O        1.4861710    -1.4617920    -0.3475990
  N        2.0488620     0.7112420     0.1011850
  C       -0.2734750     0.1140250    -0.0519740
  C        1.1480630    -0.2971330    -0.1085980
  C       -0.8491840     1.3674970    -0.1820640
  C       -2.3097681     1.3256633    -0.0902349
  C       -2.7341550     0.0450510     0.0925010
  C        3.4678020     0.4025420     0.1643440
  H       -0.2776640     2.2711280    -0.3728590
  H        1.7182220     1.5388600     0.5795510
  H       -2.9045110     2.1962980    -0.1738640
  H       -3.7641930    -0.2736150     0.1955190
  H        3.7134240    -0.2643480    -0.6614350
  H        3.7418120    -0.0946250     1.1012270
  H        4.0344840     1.3296500     0.0646150
units angstrom
no_reorient  #important for SAPT in psi4, default
symmetry c1  #important for SAPT in psi4, default
}

set PROPERTIES_ORIGIN ["COM"]
properties('MP2/aug-cc-pvtz', properties = ['dipole'])
--------------------------------------------------------------------------

    Molecular point group: c1
  Charge       = 0
  Multiplicity = 1
  Basis Set: AUG-CC-PVTZ
    Blend: AUG-CC-PVTZ
  Basis Set: (AUG-CC-PVTZ AUX)
    Blend: AUG-CC-PVTZ-JKFIT

    Orbital Energies [Eh]
    ---------------------

    Doubly Occupied:

       1A    -91.994016     2A    -20.524438     3A    -15.591232
       4A    -11.363464     5A    -11.277823     6A    -11.277243
       7A    -11.267121     8A    -11.261982     9A    -11.251234
      10A     -8.993981    11A     -6.674870    12A     -6.674258
      13A     -6.673531    14A     -1.378906    15A     -1.233703
      16A     -1.180577    17A     -1.023775    18A     -0.994794
      19A     -0.947475    20A     -0.834217    21A     -0.773569
      22A     -0.768818    23A     -0.721350    24A     -0.646853
      25A     -0.643754    26A     -0.626454    27A     -0.585163
      28A     -0.563839    29A     -0.557558    30A     -0.552268
      31A     -0.534349    32A     -0.510779    33A     -0.486691
      34A     -0.437448    35A     -0.400651    36A     -0.352592
      37A     -0.341236

  @DF-RHF Final Energy:  -758.26748477265119

   => Energetics <=

    Nuclear Repulsion Energy =            499.2706688243586086
    One-Electron Energy =               -2031.2322831800820495
    Two-Electron Energy =                 773.6941295830722538
    Total Energy =                       -758.2674847726511871
  Basis Set: (AUG-CC-PVTZ AUX)
    Blend: AUG-CC-PVTZ-RI
    Molecular point group: c1

    Geometry (in Angstrom), charge = 0, multiplicity = 1:

       Center              X                  Y                   Z               Mass
    ------------   -----------------  -----------------  -----------------  -----------------
         S           -1.419981384294    -1.061889954769     0.155823485817    31.972071174400
         O            1.534186615706    -1.414796954769    -0.342695514183    15.994914619570
         N            2.096877615706     0.758237045231     0.106088485817    14.003074004430
         C           -0.225459384294     0.161020045231    -0.047070514183    12.000000000000
         C            1.196078615706    -0.250137954769    -0.103694514183    12.000000000000
         C           -0.801168384294     1.414492045231    -0.177160514183    12.000000000000
         C           -2.261752484294     1.372658345231    -0.085331414183    12.000000000000
         C           -2.686139384294     0.092046045231     0.097404485817    12.000000000000
         C            3.515817615706     0.449537045231     0.169247485817    12.000000000000
         H           -0.229648384294     2.318123045231    -0.367955514183     1.007825032230
         H            1.766237615706     1.585855045231     0.584454485817     1.007825032230
         H           -2.856495384294     2.243293045231    -0.168960514183     1.007825032230
         H           -3.716177384294    -0.226619954769     0.200422485817     1.007825032230
         H            3.761439615706    -0.217352954769    -0.656531514183     1.007825032230
         H            3.789827615706    -0.047629954769     1.106130485817     1.007825032230
         H            4.082499615706     1.376645045231     0.069518485817     1.007825032230

  Basis Set: AUG-CC-PVTZ
    Blend: AUG-CC-PVTZ
  Basis Set: (AUG-CC-PVTZ AUX)
    Blend: AUG-CC-PVTZ-JKFIT
	 Reference Energy          =    -758.2674847726511871 [Eh]
	 Singles Energy            =      -0.0000000000000000 [Eh]
	 Same-Spin Energy          =      -0.4423337080700793 [Eh]
	 Opposite-Spin Energy      =      -1.3469184266076375 [Eh]
	 Correlation Energy        =      -1.7892521346777168 [Eh]
	 Total Energy              =    -760.0567369073288546 [Eh]

	 ================> DF-SCS-MP2 Energies <==================
	-----------------------------------------------------------
	 SCS Same-Spin Scale       =       0.3333333333333333 [-]
	 SCS Opposite-Spin Scale   =       1.2000000000000000 [-]
	 SCS Same-Spin Energy      =      -0.1474445693566931 [Eh]
	 SCS Opposite-Spin Energy  =      -1.6163021119291650 [Eh]
	 SCS Correlation Energy    =      -1.7637466812858580 [Eh]
	 SCS Total Energy          =    -760.0312314539370391 [Eh]
	-----------------------------------------------------------

  Dipole Moment: [D]
     X:    -0.2948      Y:     3.6424      Z:     1.0760     Total:     3.8095

*** Psi4 exiting successfully. Buy a developer a beer!
