                               Psi4 1.3.2 release

  ==> Input File <==

--------------------------------------------------------------------------
#psi4
#
memory 32 gb

molecule  {
0 1
  S       -1.4679970    -1.1088850     0.1509200
  O        1.4861710    -1.4617920    -0.3475990
  N        2.0488620     0.7112420     0.1011850
  C       -0.2952278     0.1347211    -0.0530749
  C        1.1480630    -0.2971330    -0.1085980
  C       -0.8491840     1.3674970    -0.1820640
  C       -2.2598870     1.3270920    -0.0933710
  C       -2.7341550     0.0450510     0.0925010
  C        3.4678020     0.4025420     0.1643440
  H       -0.2776640     2.2711280    -0.3728590
  H        1.7182220     1.5388600     0.5795510
  H       -2.9045110     2.1962980    -0.1738640
  H       -3.7641930    -0.2736150     0.1955190
  H        3.7134240    -0.2643480    -0.6614350
  H        3.7418120    -0.0946250     1.1012270
  H        4.0344840     1.3296500     0.0646150
units angstrom
no_reorient  #important for SAPT in psi4, default
symmetry c1  #important for SAPT in psi4, default
}

set PROPERTIES_ORIGIN ["COM"]
properties('MP2/aug-cc-pvtz', properties = ['dipole'])
--------------------------------------------------------------------------

    Molecular point group: c1
  Charge       = 0
  Multiplicity = 1
  Basis Set: AUG-CC-PVTZ
    Blend: AUG-CC-PVTZ
  Basis Set: (AUG-CC-PVTZ AUX)
    Blend: AUG-CC-PVTZ-JKFIT

    Orbital Energies [Eh]
    ---------------------

    Doubly Occupied:

       1A    -91.994409     2A    -20.525329     3A    -15.591653
       4A    -11.365192     5A    -11.277464     6A    -11.275725
       7A    -11.262167     8A    -11.258244     9A    -11.249662
      10A     -8.994329    11A     -6.675180    12A     -6.674587
      13A     -6.673897    14A     -1.378509    15A     -1.233914
      16A     -1.186843    17A     -1.018622    18A     -1.001370
      19A     -0.947287    20A     -0.828548    21A     -0.772358
      22A     -0.768328    23A     -0.723524    24A     -0.646180
      25A     -0.641657    26A     -0.625770    27A     -0.579815
      28A     -0.572084    29A     -0.557733    30A     -0.553156
      31A     -0.531936    32A     -0.512707    33A     -0.488391
      34A     -0.436004    35A     -0.401045    36A     -0.357808
      37A     -0.337120

  @DF-RHF Final Energy:  -758.26858521076349

   => Energetics <=

    Nuclear Repulsion Energy =            499.9577854423082499
    One-Electron Energy =               -2032.6156426667403139
    Two-Electron Energy =                 774.3892720136685739
    Total Energy =                       -758.2685852107634901
  Basis Set: (AUG-CC-PVTZ AUX)
    Blend: AUG-CC-PVTZ-RI
    Molecular point group: c1

    Geometry (in Angstrom), charge = 0, multiplicity = 1:

       Center              X                  Y                   Z               Mass
    ------------   -----------------  -----------------  -----------------  -----------------
         S           -1.422374860592    -1.063772584875     0.156184018059    31.972071174400
         O            1.531793139408    -1.416679584875    -0.342334981941    15.994914619570
         N            2.094484139408     0.756354415125     0.106449018059    14.003074004430
         C           -0.249605660592     0.179833515125    -0.047810881941    12.000000000000
         C            1.193685139408    -0.252020584875    -0.103333981941    12.000000000000
         C           -0.803561860592     1.412609415125    -0.176799981941    12.000000000000
         C           -2.214264860592     1.372204415125    -0.088106981941    12.000000000000
         C           -2.688532860592     0.090163415125     0.097765018059    12.000000000000
         C            3.513424139408     0.447654415125     0.169608018059    12.000000000000
         H           -0.232041860592     2.316240415125    -0.367594981941     1.007825032230
         H            1.763844139408     1.583972415125     0.584815018059     1.007825032230
         H           -2.858888860592     2.241410415125    -0.168599981941     1.007825032230
         H           -3.718570860592    -0.228502584875     0.200783018059     1.007825032230
         H            3.759046139408    -0.219235584875    -0.656170981941     1.007825032230
         H            3.787434139408    -0.049512584875     1.106491018059     1.007825032230
         H            4.080106139408     1.374762415125     0.069879018059     1.007825032230

  Basis Set: AUG-CC-PVTZ
    Blend: AUG-CC-PVTZ
  Basis Set: (AUG-CC-PVTZ AUX)
    Blend: AUG-CC-PVTZ-JKFIT
	 Reference Energy          =    -758.2685852107634901 [Eh]
	 Singles Energy            =      -0.0000000000000000 [Eh]
	 Same-Spin Energy          =      -0.4429509499543147 [Eh]
	 Opposite-Spin Energy      =      -1.3471754851022819 [Eh]
	 Correlation Energy        =      -1.7901264350565966 [Eh]
	 Total Energy              =    -760.0587116458200398 [Eh]

	 ================> DF-SCS-MP2 Energies <==================
	-----------------------------------------------------------
	 SCS Same-Spin Scale       =       0.3333333333333333 [-]
	 SCS Opposite-Spin Scale   =       1.2000000000000000 [-]
	 SCS Same-Spin Energy      =      -0.1476503166514382 [Eh]
	 SCS Opposite-Spin Energy  =      -1.6166105821227383 [Eh]
	 SCS Correlation Energy    =      -1.7642608987741766 [Eh]
	 SCS Total Energy          =    -760.0328461095376724 [Eh]
	-----------------------------------------------------------

  Dipole Moment: [D]
     X:    -0.2346      Y:     3.6071      Z:     1.0761     Total:     3.7715

*** Psi4 exiting successfully. Buy a developer a beer!
