                               Psi4 1.3.2 release

  ==> Input File <==

--------------------------------------------------------------------------
#psi4
#
memory 32 gb

molecule  {
0 1
  S       -1.4679970    -1.1088850     0.1509200
  O        1.4861710    -1.4617920    -0.3475990
  N        2.0488620     0.7112420     0.1011850
  C       -0.2734750     0.1140250    -0.0519740
  C        1.3400476    -0.3526616    -0.1162453
  C       -0.8491840     1.3674970    -0.1820640
  C       -2.2598870     1.3270920    -0.0933710
  C       -2.7341550     0.0450510     0.0925010
  C        3.4678020     0.4025420     0.1643440
  H       -0.2776640     2.2711280    -0.3728590
  H        1.7182220     1.5388600     0.5795510
  H       -2.9045110     2.1962980    -0.1738640
  H       -3.7641930    -0.2736150     0.1955190
  H        3.7134240    -0.2643480    -0.6614350
  H        3.7418120    -0.0946250     1.1012270
  H        4.0344840     1.3296500     0.0646150
units angstrom
no_reorient  #important for SAPT in psi4, default
symmetry c1  #important for SAPT in psi4, default
}

set PROPERTIES_ORIGIN ["COM"]
properties('MP2/aug-cc-pvtz', properties = ['dipole'])
--------------------------------------------------------------------------

    Molecular point group: c1
  Charge       = 0
  Multiplicity = 1
  Basis Set: AUG-CC-PVTZ
    Blend: AUG-CC-PVTZ
  Basis Set: (AUG-CC-PVTZ AUX)
    Blend: AUG-CC-PVTZ-JKFIT

    Orbital Energies [Eh]
    ---------------------

    Doubly Occupied:

       1A    -91.980323     2A    -20.544250     3A    -15.604820
       4A    -11.369706     5A    -11.272288     6A    -11.263335
       7A    -11.260151     8A    -11.240054     9A    -11.237234
      10A     -8.980316    11A     -6.661233    12A     -6.660685
      13A     -6.660041    14A     -1.451435    15A     -1.281716
      16A     -1.165219    17A     -0.995030    18A     -0.983986
      19A     -0.951663    20A     -0.832385    21A     -0.772254
      22A     -0.753494    23A     -0.708311    24A     -0.679013
      25A     -0.661708    26A     -0.639227    27A     -0.589430
      28A     -0.573158    29A     -0.569451    30A     -0.557196
      31A     -0.520667    32A     -0.514651    33A     -0.472188
      34A     -0.429589    35A     -0.413851    36A     -0.343596
      37A     -0.318556

  @DF-RHF Final Energy:  -758.23371537176945

   => Energetics <=

    Nuclear Repulsion Energy =            499.6077351726255529
    One-Electron Energy =               -2031.8584847575582444
    Two-Electron Energy =                 774.0170342131632424
    Total Energy =                       -758.2337153717694491
  Basis Set: (AUG-CC-PVTZ AUX)
    Blend: AUG-CC-PVTZ-RI
    Molecular point group: c1

    Geometry (in Angstrom), charge = 0, multiplicity = 1:

       Center              X                  Y                   Z               Mass
    ------------   -----------------  -----------------  -----------------  -----------------
         S           -1.440562074210    -1.057286518787     0.156741060370    31.972071174400
         O            1.513605925790    -1.410193518787    -0.341777939630    15.994914619570
         N            2.076296925790     0.762840481213     0.107006060370    14.003074004430
         C           -0.246040074210     0.165623481213    -0.046152939630    12.000000000000
         C            1.367482525790    -0.301063118787    -0.110424239630    12.000000000000
         C           -0.821749074210     1.419095481213    -0.176242939630    12.000000000000
         C           -2.232452074210     1.378690481213    -0.087549939630    12.000000000000
         C           -2.706720074210     0.096649481213     0.098322060370    12.000000000000
         C            3.495236925790     0.454140481213     0.170165060370    12.000000000000
         H           -0.250229074210     2.322726481213    -0.367037939630     1.007825032230
         H            1.745656925790     1.590458481213     0.585372060370     1.007825032230
         H           -2.877076074210     2.247896481213    -0.168042939630     1.007825032230
         H           -3.736758074210    -0.222016518787     0.201340060370     1.007825032230
         H            3.740858925790    -0.212749518787    -0.655613939630     1.007825032230
         H            3.769246925790    -0.043026518787     1.107048060370     1.007825032230
         H            4.061918925790     1.381248481213     0.070436060370     1.007825032230

  Basis Set: AUG-CC-PVTZ
    Blend: AUG-CC-PVTZ
  Basis Set: (AUG-CC-PVTZ AUX)
    Blend: AUG-CC-PVTZ-JKFIT
	 Reference Energy          =    -758.2337153717694491 [Eh]
	 Singles Energy            =      -0.0000000000000000 [Eh]
	 Same-Spin Energy          =      -0.4419216697927118 [Eh]
	 Opposite-Spin Energy      =      -1.3444475729913925 [Eh]
	 Correlation Energy        =      -1.7863692427841042 [Eh]
	 Total Energy              =    -760.0200846145535252 [Eh]

	 ================> DF-SCS-MP2 Energies <==================
	-----------------------------------------------------------
	 SCS Same-Spin Scale       =       0.3333333333333333 [-]
	 SCS Opposite-Spin Scale   =       1.2000000000000000 [-]
	 SCS Same-Spin Energy      =      -0.1473072232642373 [Eh]
	 SCS Opposite-Spin Energy  =      -1.6133370875896709 [Eh]
	 SCS Correlation Energy    =      -1.7606443108539080 [Eh]
	 SCS Total Energy          =    -759.9943596826233261 [Eh]
	-----------------------------------------------------------

  Dipole Moment: [D]
     X:     1.4317      Y:     3.2714      Z:     1.0413     Total:     3.7197

*** Psi4 exiting successfully. Buy a developer a beer!
