                               Psi4 1.3.2 release

  ==> Input File <==

--------------------------------------------------------------------------
#psi4
#
memory 32 gb

molecule  {
0 1
  S       -1.4679970    -1.1088850     0.1509200
  O        1.5682634    -1.4362322    -0.3404463
  N        2.0488620     0.7112420     0.1011850
  C       -0.2734750     0.1140250    -0.0519740
  C        1.1480630    -0.2971330    -0.1085980
  C       -0.8491840     1.3674970    -0.1820640
  C       -2.2598870     1.3270920    -0.0933710
  C       -2.7341550     0.0450510     0.0925010
  C        3.4678020     0.4025420     0.1643440
  H       -0.2776640     2.2711280    -0.3728590
  H        1.7182220     1.5388600     0.5795510
  H       -2.9045110     2.1962980    -0.1738640
  H       -3.7641930    -0.2736150     0.1955190
  H        3.7134240    -0.2643480    -0.6614350
  H        3.7418120    -0.0946250     1.1012270
  H        4.0344840     1.3296500     0.0646150
units angstrom
no_reorient  #important for SAPT in psi4, default
symmetry c1  #important for SAPT in psi4, default
}

set PROPERTIES_ORIGIN ["COM"]
properties('MP2/aug-cc-pvtz', properties = ['dipole'])
--------------------------------------------------------------------------

    Molecular point group: c1
  Charge       = 0
  Multiplicity = 1
  Basis Set: AUG-CC-PVTZ
    Blend: AUG-CC-PVTZ
  Basis Set: (AUG-CC-PVTZ AUX)
    Blend: AUG-CC-PVTZ-JKFIT

    Orbital Energies [Eh]
    ---------------------

    Doubly Occupied:

       1A    -91.998737     2A    -20.521451     3A    -15.586230
       4A    -11.361761     5A    -11.281777     6A    -11.280294
       7A    -11.265700     8A    -11.258279     9A    -11.253125
      10A     -8.998492    11A     -6.679331    12A     -6.678779
      13A     -6.678105    14A     -1.378338    15A     -1.227413
      16A     -1.186679    17A     -1.022673    18A     -1.003372
      19A     -0.944343    20A     -0.833339    21A     -0.773394
      22A     -0.766758    23A     -0.723933    24A     -0.644508
      25A     -0.641288    26A     -0.624331    27A     -0.579729
      28A     -0.575314    29A     -0.557078    30A     -0.549556
      31A     -0.534042    32A     -0.511900    33A     -0.488488
      34A     -0.436397    35A     -0.396505    36A     -0.359264
      37A     -0.338538

  @DF-RHF Final Energy:  -758.26696770204785

   => Energetics <=

    Nuclear Repulsion Energy =            499.6148368292582518
    One-Electron Energy =               -2031.8851224705572349
    Two-Electron Energy =                 774.0033179392510192
    Total Energy =                       -758.2669677020478503
  Basis Set: (AUG-CC-PVTZ AUX)
    Blend: AUG-CC-PVTZ-RI
    Molecular point group: c1

    Geometry (in Angstrom), charge = 0, multiplicity = 1:

       Center              X                  Y                   Z               Mass
    ------------   -----------------  -----------------  -----------------  -----------------
         S           -1.433536685590    -1.064910495220     0.155279087905    31.972071174400
         O            1.602723714410    -1.392257695220    -0.336087212095    15.994914619570
         N            2.083322314410     0.755216504780     0.105544087905    14.003074004430
         C           -0.239014685590     0.157999504780    -0.047614912095    12.000000000000
         C            1.182523314410    -0.253158495220    -0.104238912095    12.000000000000
         C           -0.814723685590     1.411471504780    -0.177704912095    12.000000000000
         C           -2.225426685590     1.371066504780    -0.089011912095    12.000000000000
         C           -2.699694685590     0.089025504780     0.096860087905    12.000000000000
         C            3.502262314410     0.446516504780     0.168703087905    12.000000000000
         H           -0.243203685590     2.315102504780    -0.368499912095     1.007825032230
         H            1.752682314410     1.582834504780     0.583910087905     1.007825032230
         H           -2.870050685590     2.240272504780    -0.169504912095     1.007825032230
         H           -3.729732685590    -0.229640495220     0.199878087905     1.007825032230
         H            3.747884314410    -0.220373495220    -0.657075912095     1.007825032230
         H            3.776272314410    -0.050650495220     1.105586087905     1.007825032230
         H            4.068944314410     1.373624504780     0.068974087905     1.007825032230

  Basis Set: AUG-CC-PVTZ
    Blend: AUG-CC-PVTZ
  Basis Set: (AUG-CC-PVTZ AUX)
    Blend: AUG-CC-PVTZ-JKFIT
	 Reference Energy          =    -758.2669677020478503 [Eh]
	 Singles Energy            =      -0.0000000000000000 [Eh]
	 Same-Spin Energy          =      -0.4436709294920401 [Eh]
	 Opposite-Spin Energy      =      -1.3479618800268032 [Eh]
	 Correlation Energy        =      -1.7916328095188434 [Eh]
	 Total Energy              =    -760.0586005115667376 [Eh]

	 ================> DF-SCS-MP2 Energies <==================
	-----------------------------------------------------------
	 SCS Same-Spin Scale       =       0.3333333333333333 [-]
	 SCS Opposite-Spin Scale   =       1.2000000000000000 [-]
	 SCS Same-Spin Energy      =      -0.1478903098306800 [Eh]
	 SCS Opposite-Spin Energy  =      -1.6175542560321639 [Eh]
	 SCS Correlation Energy    =      -1.7654445658628439 [Eh]
	 SCS Total Energy          =    -760.0324122679106722 [Eh]
	-----------------------------------------------------------

  Dipole Moment: [D]
     X:    -0.6493      Y:     3.5789      Z:     1.0655     Total:     3.7902

*** Psi4 exiting successfully. Buy a developer a beer!
