                               Psi4 1.3.2 release

  ==> Input File <==

--------------------------------------------------------------------------
#psi4
#
memory 32 gb

molecule  {
0 1
  S       -1.4679970    -1.1088850     0.1509200
  O        1.4861710    -1.4617920    -0.3475990
  N        2.0488620     0.7112420     0.1011850
  C       -0.2734750     0.1140250    -0.0519740
  C        1.1480630    -0.2971330    -0.1085980
  C       -0.8502862     1.3919755    -0.1850101
  C       -2.2598870     1.3270920    -0.0933710
  C       -2.7341550     0.0450510     0.0925010
  C        3.4678020     0.4025420     0.1643440
  H       -0.2776640     2.2711280    -0.3728590
  H        1.7182220     1.5388600     0.5795510
  H       -2.9045110     2.1962980    -0.1738640
  H       -3.7641930    -0.2736150     0.1955190
  H        3.7134240    -0.2643480    -0.6614350
  H        3.7418120    -0.0946250     1.1012270
  H        4.0344840     1.3296500     0.0646150
units angstrom
no_reorient  #important for SAPT in psi4, default
symmetry c1  #important for SAPT in psi4, default
}

set PROPERTIES_ORIGIN ["COM"]
properties('MP2/aug-cc-pvtz', properties = ['dipole'])
--------------------------------------------------------------------------

    Molecular point group: c1
  Charge       = 0
  Multiplicity = 1
  Basis Set: AUG-CC-PVTZ
    Blend: AUG-CC-PVTZ
  Basis Set: (AUG-CC-PVTZ AUX)
    Blend: AUG-CC-PVTZ-JKFIT

    Orbital Energies [Eh]
    ---------------------

    Doubly Occupied:

       1A    -91.997792     2A    -20.522991     3A    -15.590606
       4A    -11.362223     5A    -11.279301     6A    -11.279143
       7A    -11.263760     8A    -11.261563     9A    -11.251447
      10A     -8.997362    11A     -6.678190    12A     -6.677628
      13A     -6.676988    14A     -1.377755    15A     -1.232981
      16A     -1.181606    17A     -1.018773    18A     -1.002151
      19A     -0.945366    20A     -0.833494    21A     -0.771132
      22A     -0.769074    23A     -0.723087    24A     -0.645927
      25A     -0.640356    26A     -0.625395    27A     -0.581155
      28A     -0.574726    29A     -0.556878    30A     -0.552616
      31A     -0.532571    32A     -0.510879    33A     -0.487373
      34A     -0.436222    35A     -0.400153    36A     -0.357210
      37A     -0.333518

  @DF-RHF Final Energy:  -758.26671653436131

   => Energetics <=

    Nuclear Repulsion Energy =            499.4374918836852544
    One-Electron Energy =               -2031.5496303093509596
    Two-Electron Energy =                 773.8454218913044542
    Total Energy =                       -758.2667165343613078
  Basis Set: (AUG-CC-PVTZ AUX)
    Blend: AUG-CC-PVTZ-RI
    Molecular point group: c1

    Geometry (in Angstrom), charge = 0, multiplicity = 1:

       Center              X                  Y                   Z               Mass
    ------------   -----------------  -----------------  -----------------  -----------------
         S           -1.424132048962    -1.064094434569     0.156341028702    31.972071174400
         O            1.530035951038    -1.417001434569    -0.342177971298    15.994914619570
         N            2.092726951038     0.756032565431     0.106606028702    14.003074004430
         C           -0.229610048962     0.158815565431    -0.046552971298    12.000000000000
         C            1.191927951038    -0.252342434569    -0.103176971298    12.000000000000
         C           -0.806421248962     1.436766065431    -0.179589071298    12.000000000000
         C           -2.216022048962     1.371882565431    -0.087949971298    12.000000000000
         C           -2.690290048962     0.089841565431     0.097922028702    12.000000000000
         C            3.511666951038     0.447332565431     0.169765028702    12.000000000000
         H           -0.233799048962     2.315918565431    -0.367437971298     1.007825032230
         H            1.762086951038     1.583650565431     0.584972028702     1.007825032230
         H           -2.860646048962     2.241088565431    -0.168442971298     1.007825032230
         H           -3.720328048962    -0.228824434569     0.200940028702     1.007825032230
         H            3.757288951038    -0.219557434569    -0.656013971298     1.007825032230
         H            3.785676951038    -0.049834434569     1.106648028702     1.007825032230
         H            4.078348951038     1.374440565431     0.070036028702     1.007825032230

  Basis Set: AUG-CC-PVTZ
    Blend: AUG-CC-PVTZ
  Basis Set: (AUG-CC-PVTZ AUX)
    Blend: AUG-CC-PVTZ-JKFIT
	 Reference Energy          =    -758.2667165343613078 [Eh]
	 Singles Energy            =      -0.0000000000000000 [Eh]
	 Same-Spin Energy          =      -0.4438638709169512 [Eh]
	 Opposite-Spin Energy      =      -1.3483442298460693 [Eh]
	 Correlation Energy        =      -1.7922081007630206 [Eh]
	 Total Energy              =    -760.0589246351242991 [Eh]

	 ================> DF-SCS-MP2 Energies <==================
	-----------------------------------------------------------
	 SCS Same-Spin Scale       =       0.3333333333333333 [-]
	 SCS Opposite-Spin Scale   =       1.2000000000000000 [-]
	 SCS Same-Spin Energy      =      -0.1479546236389837 [Eh]
	 SCS Opposite-Spin Energy  =      -1.6180130758152831 [Eh]
	 SCS Correlation Energy    =      -1.7659676994542668 [Eh]
	 SCS Total Energy          =    -760.0326842338155302 [Eh]
	-----------------------------------------------------------

  Dipole Moment: [D]
     X:    -0.3428      Y:     3.5909      Z:     1.0841     Total:     3.7666

*** Psi4 exiting successfully. Buy a developer a beer!
