                               Psi4 1.3.2 release

  ==> Input File <==

--------------------------------------------------------------------------
#psi4
#
memory 32 gb

molecule  {
0 1
  S       -1.4679970    -1.1088850     0.1509200
  O        1.4861710    -1.4617920    -0.3475990
  N        2.0488620     0.7112420     0.1011850
  C       -0.2734750     0.1140250    -0.0519740
  C        1.1480630    -0.2971330    -0.1085980
  C       -0.8490737     1.2695345    -0.1700185
  C       -2.2598870     1.3270920    -0.0933710
  C       -2.7341550     0.0450510     0.0925010
  C        3.4678020     0.4025420     0.1643440
  H       -0.2776640     2.2711280    -0.3728590
  H        1.7182220     1.5388600     0.5795510
  H       -2.9045110     2.1962980    -0.1738640
  H       -3.7641930    -0.2736150     0.1955190
  H        3.7134240    -0.2643480    -0.6614350
  H        3.7418120    -0.0946250     1.1012270
  H        4.0344840     1.3296500     0.0646150
units angstrom
no_reorient  #important for SAPT in psi4, default
symmetry c1  #important for SAPT in psi4, default
}

set PROPERTIES_ORIGIN ["COM"]
properties('MP2/aug-cc-pvtz', properties = ['dipole'])
--------------------------------------------------------------------------

    Molecular point group: c1
  Charge       = 0
  Multiplicity = 1
  Basis Set: AUG-CC-PVTZ
    Blend: AUG-CC-PVTZ
  Basis Set: (AUG-CC-PVTZ AUX)
    Blend: AUG-CC-PVTZ-JKFIT

    Orbital Energies [Eh]
    ---------------------

    Doubly Occupied:

       1A    -91.990328     2A    -20.525412     3A    -15.591843
       4A    -11.364848     5A    -11.279631     6A    -11.266487
       7A    -11.262353     8A    -11.258732     9A    -11.249434
      10A     -8.990707    11A     -6.671543    12A     -6.671051
      13A     -6.670230    14A     -1.379839    15A     -1.234881
      16A     -1.196683    17A     -1.029273    18A     -0.995782
      19A     -0.950360    20A     -0.832782    21A     -0.776747
      22A     -0.769295    23A     -0.713188    24A     -0.651121
      25A     -0.645525    26A     -0.628138    27A     -0.588131
      28A     -0.564880    29A     -0.554112    30A     -0.553852
      31A     -0.529430    32A     -0.514490    33A     -0.479941
      34A     -0.438284    35A     -0.401082    36A     -0.359388
      37A     -0.343428

  @DF-RHF Final Energy:  -758.25840683089723

   => Energetics <=

    Nuclear Repulsion Energy =            502.0285850780965120
    One-Electron Energy =               -2036.7275167742984650
    Two-Electron Energy =                 776.4405248653047238
    Total Energy =                       -758.2584068308972292
  Basis Set: (AUG-CC-PVTZ AUX)
    Blend: AUG-CC-PVTZ-RI
    Molecular point group: c1

    Geometry (in Angstrom), charge = 0, multiplicity = 1:

       Center              X                  Y                   Z               Mass
    ------------   -----------------  -----------------  -----------------  -----------------
         S           -1.424235222279    -1.053675759023     0.155065372539    31.972071174400
         O            1.529932777721    -1.406582759023    -0.343453627461    15.994914619570
         N            2.092623777721     0.766451240977     0.105330372539    14.003074004430
         C           -0.229713222279     0.169234240977    -0.047828627461    12.000000000000
         C            1.191824777721    -0.241923759023    -0.104452627461    12.000000000000
         C           -0.805311922279     1.324743740977    -0.165873127461    12.000000000000
         C           -2.216125222279     1.382301240977    -0.089225627461    12.000000000000
         C           -2.690393222279     0.100260240977     0.096646372539    12.000000000000
         C            3.511563777721     0.457751240977     0.168489372539    12.000000000000
         H           -0.233902222279     2.326337240977    -0.368713627461     1.007825032230
         H            1.761983777721     1.594069240977     0.583696372539     1.007825032230
         H           -2.860749222279     2.251507240977    -0.169718627461     1.007825032230
         H           -3.720431222279    -0.218405759023     0.199664372539     1.007825032230
         H            3.757185777721    -0.209138759023    -0.657289627461     1.007825032230
         H            3.785573777721    -0.039415759023     1.105372372539     1.007825032230
         H            4.078245777721     1.384859240977     0.068760372539     1.007825032230

  Basis Set: AUG-CC-PVTZ
    Blend: AUG-CC-PVTZ
  Basis Set: (AUG-CC-PVTZ AUX)
    Blend: AUG-CC-PVTZ-JKFIT
	 Reference Energy          =    -758.2584068308972292 [Eh]
	 Singles Energy            =      -0.0000000000000000 [Eh]
	 Same-Spin Energy          =      -0.4424035314170831 [Eh]
	 Opposite-Spin Energy      =      -1.3463144523580262 [Eh]
	 Correlation Energy        =      -1.7887179837751093 [Eh]
	 Total Energy              =    -760.0471248146723156 [Eh]

	 ================> DF-SCS-MP2 Energies <==================
	-----------------------------------------------------------
	 SCS Same-Spin Scale       =       0.3333333333333333 [-]
	 SCS Opposite-Spin Scale   =       1.2000000000000000 [-]
	 SCS Same-Spin Energy      =      -0.1474678438056944 [Eh]
	 SCS Opposite-Spin Energy  =      -1.6155773428296314 [Eh]
	 SCS Correlation Energy    =      -1.7630451866353258 [Eh]
	 SCS Total Energy          =    -760.0214520175325106 [Eh]
	-----------------------------------------------------------

  Dipole Moment: [D]
     X:    -0.2765      Y:     3.6948      Z:     1.0772     Total:     3.8585

*** Psi4 exiting successfully. Buy a developer a beer!
