                               Psi4 1.3.2 release

  ==> Input File <==

--------------------------------------------------------------------------
#psi4
#
memory 32 gb

molecule  {
0 1
  S       -1.3546782    -0.9717898     0.1273702
  O        1.4861710    -1.4617920    -0.3475990
  N        2.0488620     0.7112420     0.1011850
  C       -0.2734750     0.1140250    -0.0519740
  C        1.1480630    -0.2971330    -0.1085980
  C       -0.8491840     1.3674970    -0.1820640
  C       -2.2598870     1.3270920    -0.0933710
  C       -2.7341550     0.0450510     0.0925010
  C        3.4678020     0.4025420     0.1643440
  H       -0.2776640     2.2711280    -0.3728590
  H        1.7182220     1.5388600     0.5795510
  H       -2.9045110     2.1962980    -0.1738640
  H       -3.7641930    -0.2736150     0.1955190
  H        3.7134240    -0.2643480    -0.6614350
  H        3.7418120    -0.0946250     1.1012270
  H        4.0344840     1.3296500     0.0646150
units angstrom
no_reorient  #important for SAPT in psi4, default
symmetry c1  #important for SAPT in psi4, default
}

set PROPERTIES_ORIGIN ["COM"]
properties('MP2/aug-cc-pvtz', properties = ['dipole'])
--------------------------------------------------------------------------

    Molecular point group: c1
  Charge       = 0
  Multiplicity = 1
  Basis Set: AUG-CC-PVTZ
    Blend: AUG-CC-PVTZ
  Basis Set: (AUG-CC-PVTZ AUX)
    Blend: AUG-CC-PVTZ-JKFIT

    Orbital Energies [Eh]
    ---------------------

    Doubly Occupied:

       1A    -91.988494     2A    -20.527318     3A    -15.593428
       4A    -11.367156     5A    -11.272286     6A    -11.263322
       7A    -11.262675     8A    -11.252481     9A    -11.250144
      10A     -8.993758    11A     -6.675170    12A     -6.673880
      13A     -6.673150    14A     -1.382839    15A     -1.236585
      16A     -1.214047    17A     -1.036376    18A     -0.998317
      19A     -0.950631    20A     -0.834403    21A     -0.778923
      22A     -0.769732    23A     -0.717523    24A     -0.654346
      25A     -0.645625    26A     -0.631210    27A     -0.583610
      28A     -0.572980    29A     -0.568038    30A     -0.559746
      31A     -0.546241    32A     -0.518542    33A     -0.471864
      34A     -0.440772    35A     -0.402506    36A     -0.359922
      37A     -0.333170

  @DF-RHF Final Energy:  -758.24496368266477

   => Energetics <=

    Nuclear Repulsion Energy =            508.4076808960952576
    One-Electron Energy =               -2049.3028684876062471
    Two-Electron Energy =                 782.6502239088461010
    Total Energy =                       -758.2449636826647748
  Basis Set: (AUG-CC-PVTZ AUX)
    Blend: AUG-CC-PVTZ-RI
    Molecular point group: c1

    Geometry (in Angstrom), charge = 0, multiplicity = 1:

       Center              X                  Y                   Z               Mass
    ------------   -----------------  -----------------  -----------------  -----------------
         S           -1.336597807677    -0.955997499246     0.137879571345    31.972071174400
         O            1.504251392323    -1.445999699246    -0.337089628655    15.994914619570
         N            2.066942392323     0.727034300754     0.111694371345    14.003074004430
         C           -0.255394607677     0.129817300754    -0.041464628655    12.000000000000
         C            1.166143392323    -0.281340699246    -0.098088628655    12.000000000000
         C           -0.831103607677     1.383289300754    -0.171554628655    12.000000000000
         C           -2.241806607677     1.342884300754    -0.082861628655    12.000000000000
         C           -2.716074607677     0.060843300754     0.103010371345    12.000000000000
         C            3.485882392323     0.418334300754     0.174853371345    12.000000000000
         H           -0.259583607677     2.286920300754    -0.362349628655     1.007825032230
         H            1.736302392323     1.554652300754     0.590060371345     1.007825032230
         H           -2.886430607677     2.212090300754    -0.163354628655     1.007825032230
         H           -3.746112607677    -0.257822699246     0.206028371345     1.007825032230
         H            3.731504392323    -0.248555699246    -0.650925628655     1.007825032230
         H            3.759892392323    -0.078832699246     1.111736371345     1.007825032230
         H            4.052564392323     1.345442300754     0.075124371345     1.007825032230

  Basis Set: AUG-CC-PVTZ
    Blend: AUG-CC-PVTZ
  Basis Set: (AUG-CC-PVTZ AUX)
    Blend: AUG-CC-PVTZ-JKFIT
	 Reference Energy          =    -758.2449636826647748 [Eh]
	 Singles Energy            =      -0.0000000000000000 [Eh]
	 Same-Spin Energy          =      -0.4459228243716319 [Eh]
	 Opposite-Spin Energy      =      -1.3478345753487797 [Eh]
	 Correlation Energy        =      -1.7937573997204117 [Eh]
	 Total Energy              =    -760.0387210823852229 [Eh]

	 ================> DF-SCS-MP2 Energies <==================
	-----------------------------------------------------------
	 SCS Same-Spin Scale       =       0.3333333333333333 [-]
	 SCS Opposite-Spin Scale   =       1.2000000000000000 [-]
	 SCS Same-Spin Energy      =      -0.1486409414572106 [Eh]
	 SCS Opposite-Spin Energy  =      -1.6174014904185356 [Eh]
	 SCS Correlation Energy    =      -1.7660424318757464 [Eh]
	 SCS Total Energy          =    -760.0110061145405780 [Eh]
	-----------------------------------------------------------

  Dipole Moment: [D]
     X:    -0.2063      Y:     3.5667      Z:     1.0853     Total:     3.7338

*** Psi4 exiting successfully. Buy a developer a beer!
