                               Psi4 1.3.2 release

  ==> Input File <==

--------------------------------------------------------------------------
#psi4
#
memory 32 gb

molecule  {
0 1
  S       -1.4679970    -1.1088850     0.1509200
  O        1.4861710    -1.4617920    -0.3475990
  N        2.0488620     0.7112420     0.1011850
  C       -0.2734750     0.1140250    -0.0519740
  C        1.1480630    -0.2971330    -0.1085980
  C       -0.8491840     1.3674970    -0.1820640
  C       -2.2602847     1.4243256    -0.1103191
  C       -2.7341550     0.0450510     0.0925010
  C        3.4678020     0.4025420     0.1643440
  H       -0.2776640     2.2711280    -0.3728590
  H        1.7182220     1.5388600     0.5795510
  H       -2.9045110     2.1962980    -0.1738640
  H       -3.7641930    -0.2736150     0.1955190
  H        3.7134240    -0.2643480    -0.6614350
  H        3.7418120    -0.0946250     1.1012270
  H        4.0344840     1.3296500     0.0646150
units angstrom
no_reorient  #important for SAPT in psi4, default
symmetry c1  #important for SAPT in psi4, default
}

set PROPERTIES_ORIGIN ["COM"]
properties('MP2/aug-cc-pvtz', properties = ['dipole'])
--------------------------------------------------------------------------

    Molecular point group: c1
  Charge       = 0
  Multiplicity = 1
  Basis Set: AUG-CC-PVTZ
    Blend: AUG-CC-PVTZ
  Basis Set: (AUG-CC-PVTZ AUX)
    Blend: AUG-CC-PVTZ-JKFIT

    Orbital Energies [Eh]
    ---------------------

    Doubly Occupied:

       1A    -92.003203     2A    -20.522129     3A    -15.589572
       4A    -11.362123     5A    -11.292381     6A    -11.274653
       7A    -11.264998     8A    -11.260928     9A    -11.255137
      10A     -9.002266    11A     -6.683062    12A     -6.682486
      13A     -6.681938    14A     -1.377139    15A     -1.232170
      16A     -1.175546    17A     -1.013097    18A     -1.006263
      19A     -0.942515    20A     -0.830264    21A     -0.783535
      22A     -0.767307    23A     -0.719182    24A     -0.652498
      25A     -0.644560    26A     -0.625134    27A     -0.588610
      28A     -0.559581    29A     -0.553515    30A     -0.550172
      31A     -0.534826    32A     -0.507625    33A     -0.490263
      34A     -0.436792    35A     -0.399653    36A     -0.360187
      37A     -0.325299

  @DF-RHF Final Energy:  -758.25218111669813

   => Energetics <=

    Nuclear Repulsion Energy =            498.2415387884892084
    One-Electron Energy =               -2029.0862214915134700
    Two-Electron Energy =                 772.5925015863261933
    Total Energy =                       -758.2521811166981252
  Basis Set: (AUG-CC-PVTZ AUX)
    Blend: AUG-CC-PVTZ-RI
    Molecular point group: c1

    Geometry (in Angstrom), charge = 0, multiplicity = 1:

       Center              X                  Y                   Z               Mass
    ------------   -----------------  -----------------  -----------------  -----------------
         S           -1.424191995850    -1.070285267551     0.157532478421    31.972071174400
         O            1.529976004150    -1.423192267551    -0.340986521579    15.994914619570
         N            2.092667004150     0.749841732449     0.107797478421    14.003074004430
         C           -0.229669995850     0.152624732449    -0.045361521579    12.000000000000
         C            1.191868004150    -0.258533267551    -0.101985521579    12.000000000000
         C           -0.805378995850     1.406096732449    -0.175451521579    12.000000000000
         C           -2.216479695850     1.462925332449    -0.103706621579    12.000000000000
         C           -2.690349995850     0.083650732449     0.099113478421    12.000000000000
         C            3.511607004150     0.441141732449     0.170956478421    12.000000000000
         H           -0.233858995850     2.309727732449    -0.366246521579     1.007825032230
         H            1.762027004150     1.577459732449     0.586163478421     1.007825032230
         H           -2.860705995850     2.234897732449    -0.167251521579     1.007825032230
         H           -3.720387995850    -0.235015267551     0.202131478421     1.007825032230
         H            3.757229004150    -0.225748267551    -0.654822521579     1.007825032230
         H            3.785617004150    -0.056025267551     1.107839478421     1.007825032230
         H            4.078289004150     1.368249732449     0.071227478421     1.007825032230

  Basis Set: AUG-CC-PVTZ
    Blend: AUG-CC-PVTZ
  Basis Set: (AUG-CC-PVTZ AUX)
    Blend: AUG-CC-PVTZ-JKFIT
	 Reference Energy          =    -758.2521811166981252 [Eh]
	 Singles Energy            =      -0.0000000000000000 [Eh]
	 Same-Spin Energy          =      -0.4449140577500226 [Eh]
	 Opposite-Spin Energy      =      -1.3503033098685768 [Eh]
	 Correlation Energy        =      -1.7952173676185994 [Eh]
	 Total Energy              =    -760.0473984843167727 [Eh]

	 ================> DF-SCS-MP2 Energies <==================
	-----------------------------------------------------------
	 SCS Same-Spin Scale       =       0.3333333333333333 [-]
	 SCS Opposite-Spin Scale   =       1.2000000000000000 [-]
	 SCS Same-Spin Energy      =      -0.1483046859166742 [Eh]
	 SCS Opposite-Spin Energy  =      -1.6203639718422922 [Eh]
	 SCS Correlation Energy    =      -1.7686686577589663 [Eh]
	 SCS Total Energy          =    -760.0208497744571332 [Eh]
	-----------------------------------------------------------

  Dipole Moment: [D]
     X:    -0.3288      Y:     3.5612      Z:     1.0919     Total:     3.7394

*** Psi4 exiting successfully. Buy a developer a beer!
