                               Psi4 1.3.2 release

  ==> Input File <==

--------------------------------------------------------------------------
#psi4
#
memory 32 gb

molecule  {
0 1
  S       -1.4679970    -1.1088850     0.1509200
  O        1.4861710    -1.4617920    -0.3475990
  N        2.0488620     0.7112420     0.1011850
  C       -0.2734750     0.1140250    -0.0519740
  C        1.1168381    -0.3943278    -0.0923997
  C       -0.8491840     1.3674970    -0.1820640
  C       -2.2598870     1.3270920    -0.0933710
  C       -2.7341550     0.0450510     0.0925010
  C        3.4678020     0.4025420     0.1643440
  H       -0.2776640     2.2711280    -0.3728590
  H        1.7182220     1.5388600     0.5795510
  H       -2.9045110     2.1962980    -0.1738640
  H       -3.7641930    -0.2736150     0.1955190
  H        3.7134240    -0.2643480    -0.6614350
  H        3.7418120    -0.0946250     1.1012270
  H        4.0344840     1.3296500     0.0646150
units angstrom
no_reorient  #important for SAPT in psi4, default
symmetry c1  #important for SAPT in psi4, default
}

set PROPERTIES_ORIGIN ["COM"]
properties('MP2/aug-cc-pvtz', properties = ['dipole'])
--------------------------------------------------------------------------

    Molecular point group: c1
  Charge       = 0
  Multiplicity = 1
  Basis Set: AUG-CC-PVTZ
    Blend: AUG-CC-PVTZ
  Basis Set: (AUG-CC-PVTZ AUX)
    Blend: AUG-CC-PVTZ-JKFIT

    Orbital Energies [Eh]
    ---------------------

    Doubly Occupied:

       1A    -91.996011     2A    -20.543310     3A    -15.572182
       4A    -11.363746     5A    -11.280189     6A    -11.277665
       7A    -11.264949     8A    -11.252330     9A    -11.252085
      10A     -8.996170    11A     -6.677049    12A     -6.676421
      13A     -6.675792    14A     -1.435370    15A     -1.208531
      16A     -1.183491    17A     -1.019719    18A     -1.002169
      19A     -0.928899    20A     -0.833615    21A     -0.773117
      22A     -0.751893    23A     -0.722861    24A     -0.665714
      25A     -0.634252    26A     -0.622206    27A     -0.594649
      28A     -0.574244    29A     -0.567227    30A     -0.546892
      31A     -0.530593    32A     -0.523107    33A     -0.490172
      34A     -0.441129    35A     -0.392967    36A     -0.358189
      37A     -0.336981

  @DF-RHF Final Energy:  -758.25857595091975

   => Energetics <=

    Nuclear Repulsion Energy =            500.2923538232833494
    One-Electron Energy =               -2033.1700867446188568
    Two-Electron Energy =                 774.6191569704158155
    Total Energy =                       -758.2585759509197487
  Basis Set: (AUG-CC-PVTZ AUX)
    Blend: AUG-CC-PVTZ-RI
    Molecular point group: c1

    Geometry (in Angstrom), charge = 0, multiplicity = 1:

       Center              X                  Y                   Z               Mass
    ------------   -----------------  -----------------  -----------------  -----------------
         S           -1.421568866385    -1.053741083687     0.154712004992    31.972071174400
         O            1.532599133615    -1.406648083687    -0.343806995008    15.994914619570
         N            2.095290133615     0.766385916313     0.104977004992    14.003074004430
         C           -0.227046866385     0.169168916313    -0.048181995008    12.000000000000
         C            1.163266233615    -0.339183883687    -0.088607695008    12.000000000000
         C           -0.802755866385     1.422640916313    -0.178271995008    12.000000000000
         C           -2.213458866385     1.382235916313    -0.089578995008    12.000000000000
         C           -2.687726866385     0.100194916313     0.096293004992    12.000000000000
         C            3.514230133615     0.457685916313     0.168136004992    12.000000000000
         H           -0.231235866385     2.326271916313    -0.369066995008     1.007825032230
         H            1.764650133615     1.594003916313     0.583343004992     1.007825032230
         H           -2.858082866385     2.251441916313    -0.170071995008     1.007825032230
         H           -3.717764866385    -0.218471083687     0.199311004992     1.007825032230
         H            3.759852133615    -0.209204083687    -0.657642995008     1.007825032230
         H            3.788240133615    -0.039481083687     1.105019004992     1.007825032230
         H            4.080912133615     1.384793916313     0.068407004992     1.007825032230

  Basis Set: AUG-CC-PVTZ
    Blend: AUG-CC-PVTZ
  Basis Set: (AUG-CC-PVTZ AUX)
    Blend: AUG-CC-PVTZ-JKFIT
	 Reference Energy          =    -758.2585759509197487 [Eh]
	 Singles Energy            =      -0.0000000000000000 [Eh]
	 Same-Spin Energy          =      -0.4424896340925696 [Eh]
	 Opposite-Spin Energy      =      -1.3457910913613416 [Eh]
	 Correlation Energy        =      -1.7882807254539113 [Eh]
	 Total Energy              =    -760.0468566763736362 [Eh]

	 ================> DF-SCS-MP2 Energies <==================
	-----------------------------------------------------------
	 SCS Same-Spin Scale       =       0.3333333333333333 [-]
	 SCS Opposite-Spin Scale   =       1.2000000000000000 [-]
	 SCS Same-Spin Energy      =      -0.1474965446975232 [Eh]
	 SCS Opposite-Spin Energy  =      -1.6149493096336098 [Eh]
	 SCS Correlation Energy    =      -1.7624458543311330 [Eh]
	 SCS Total Energy          =    -760.0210218052508253 [Eh]
	-----------------------------------------------------------

  Dipole Moment: [D]
     X:    -0.7472      Y:     2.9676      Z:     0.9560     Total:     3.2061

*** Psi4 exiting successfully. Buy a developer a beer!
