                               Psi4 1.3.2 release

  ==> Input File <==

--------------------------------------------------------------------------
#psi4
#
memory 32 gb

molecule  {
0 1
  S       -1.4679970    -1.1088850     0.1509200
  O        1.4024314    -1.4816777    -0.3535873
  N        2.0488620     0.7112420     0.1011850
  C       -0.2734750     0.1140250    -0.0519740
  C        1.1480630    -0.2971330    -0.1085980
  C       -0.8491840     1.3674970    -0.1820640
  C       -2.2598870     1.3270920    -0.0933710
  C       -2.7341550     0.0450510     0.0925010
  C        3.4678020     0.4025420     0.1643440
  H       -0.2776640     2.2711280    -0.3728590
  H        1.7182220     1.5388600     0.5795510
  H       -2.9045110     2.1962980    -0.1738640
  H       -3.7641930    -0.2736150     0.1955190
  H        3.7134240    -0.2643480    -0.6614350
  H        3.7418120    -0.0946250     1.1012270
  H        4.0344840     1.3296500     0.0646150
units angstrom
no_reorient  #important for SAPT in psi4, default
symmetry c1  #important for SAPT in psi4, default
}

set PROPERTIES_ORIGIN ["COM"]
properties('MP2/aug-cc-pvtz', properties = ['dipole'])
--------------------------------------------------------------------------

    Molecular point group: c1
  Charge       = 0
  Multiplicity = 1
  Basis Set: AUG-CC-PVTZ
    Blend: AUG-CC-PVTZ
  Basis Set: (AUG-CC-PVTZ AUX)
    Blend: AUG-CC-PVTZ-JKFIT

    Orbital Energies [Eh]
    ---------------------

    Doubly Occupied:

       1A    -91.993486     2A    -20.525193     3A    -15.595385
       4A    -11.363770     5A    -11.276452     6A    -11.273269
       7A    -11.265009     8A    -11.259600     9A    -11.248460
      10A     -8.993196    11A     -6.674025    12A     -6.673470
      13A     -6.672796    14A     -1.378633    15A     -1.238936
      16A     -1.181500    17A     -1.018358    18A     -0.998276
      19A     -0.948061    20A     -0.832896    21A     -0.771669
      22A     -0.768643    23A     -0.719847    24A     -0.648552
      25A     -0.642052    26A     -0.627601    27A     -0.579321
      28A     -0.571370    29A     -0.558769    30A     -0.556283
      31A     -0.531441    32A     -0.510795    33A     -0.483876
      34A     -0.436132    35A     -0.404116    36A     -0.354596
      37A     -0.333062

  @DF-RHF Final Energy:  -758.26725718515593

   => Energetics <=

    Nuclear Repulsion Energy =            500.4073387711017631
    One-Electron Energy =               -2033.5314023592518424
    Two-Electron Energy =                 774.8568064029940388
    Total Energy =                       -758.2672571851559269
  Basis Set: (AUG-CC-PVTZ AUX)
    Blend: AUG-CC-PVTZ-RI
    Molecular point group: c1

    Geometry (in Angstrom), charge = 0, multiplicity = 1:

       Center              X                  Y                   Z               Mass
    ------------   -----------------  -----------------  -----------------  -----------------
         S           -1.414728163809    -1.059756105979     0.156769528741    31.972071174400
         O            1.455700236191    -1.432548805979    -0.347737771259    15.994914619570
         N            2.102130836191     0.760370894021     0.107034528741    14.003074004430
         C           -0.220206163809     0.163153894021    -0.046124471259    12.000000000000
         C            1.201331836191    -0.248004105979    -0.102748471259    12.000000000000
         C           -0.795915163809     1.416625894021    -0.176214471259    12.000000000000
         C           -2.206618163809     1.376220894021    -0.087521471259    12.000000000000
         C           -2.680886163809     0.094179894021     0.098350528741    12.000000000000
         C            3.521070836191     0.451670894021     0.170193528741    12.000000000000
         H           -0.224395163809     2.320256894021    -0.367009471259     1.007825032230
         H            1.771490836191     1.587988894021     0.585400528741     1.007825032230
         H           -2.851242163809     2.245426894021    -0.168014471259     1.007825032230
         H           -3.710924163809    -0.224486105979     0.201368528741     1.007825032230
         H            3.766692836191    -0.215219105979    -0.655585471259     1.007825032230
         H            3.795080836191    -0.045496105979     1.107076528741     1.007825032230
         H            4.087752836191     1.378778894021     0.070464528741     1.007825032230

  Basis Set: AUG-CC-PVTZ
    Blend: AUG-CC-PVTZ
  Basis Set: (AUG-CC-PVTZ AUX)
    Blend: AUG-CC-PVTZ-JKFIT
	 Reference Energy          =    -758.2672571851559269 [Eh]
	 Singles Energy            =      -0.0000000000000000 [Eh]
	 Same-Spin Energy          =      -0.4434349143517927 [Eh]
	 Opposite-Spin Energy      =      -1.3478048171827433 [Eh]
	 Correlation Energy        =      -1.7912397315345361 [Eh]
	 Total Energy              =    -760.0584969166905012 [Eh]

	 ================> DF-SCS-MP2 Energies <==================
	-----------------------------------------------------------
	 SCS Same-Spin Scale       =       0.3333333333333333 [-]
	 SCS Opposite-Spin Scale   =       1.2000000000000000 [-]
	 SCS Same-Spin Energy      =      -0.1478116381172642 [Eh]
	 SCS Opposite-Spin Energy  =      -1.6173657806192918 [Eh]
	 SCS Correlation Energy    =      -1.7651774187365561 [Eh]
	 SCS Total Energy          =    -760.0324346038925114 [Eh]
	-----------------------------------------------------------

  Dipole Moment: [D]
     X:     0.0027      Y:     3.6335      Z:     1.0940     Total:     3.7946

*** Psi4 exiting successfully. Buy a developer a beer!
