                               Psi4 1.3.2 release

  ==> Input File <==

--------------------------------------------------------------------------
#psi4
#
memory 32 gb

molecule  {
0 1
  S       -1.4679970    -1.1088850     0.1509200
  O        1.4861710    -1.4617920    -0.3475990
  N        2.0488620     0.7112420     0.1011850
  C       -0.2734750     0.1140250    -0.0519740
  C        1.2440553    -0.3248973    -0.1124217
  C       -0.8491840     1.3674970    -0.1820640
  C       -2.2598870     1.3270920    -0.0933710
  C       -2.7341550     0.0450510     0.0925010
  C        3.4678020     0.4025420     0.1643440
  H       -0.2776640     2.2711280    -0.3728590
  H        1.7182220     1.5388600     0.5795510
  H       -2.9045110     2.1962980    -0.1738640
  H       -3.7641930    -0.2736150     0.1955190
  H        3.7134240    -0.2643480    -0.6614350
  H        3.7418120    -0.0946250     1.1012270
  H        4.0344840     1.3296500     0.0646150
units angstrom
no_reorient  #important for SAPT in psi4, default
symmetry c1  #important for SAPT in psi4, default
}

set PROPERTIES_ORIGIN ["COM"]
properties('MP2/aug-cc-pvtz', properties = ['dipole'])
--------------------------------------------------------------------------

    Molecular point group: c1
  Charge       = 0
  Multiplicity = 1
  Basis Set: AUG-CC-PVTZ
    Blend: AUG-CC-PVTZ
  Basis Set: (AUG-CC-PVTZ AUX)
    Blend: AUG-CC-PVTZ-JKFIT

    Orbital Energies [Eh]
    ---------------------

    Doubly Occupied:

       1A    -91.988667     2A    -20.532407     3A    -15.597018
       4A    -11.364208     5A    -11.273066     6A    -11.269660
       7A    -11.266502     8A    -11.251565     9A    -11.244320
      10A     -8.988514    11A     -6.669387    12A     -6.668848
      13A     -6.668182    14A     -1.414362    15A     -1.257096
      16A     -1.174984    17A     -1.005108    18A     -0.992757
      19A     -0.950373    20A     -0.822872    21A     -0.778596
      22A     -0.762464    23A     -0.714828    24A     -0.659715
      25A     -0.649740    26A     -0.634931    27A     -0.580975
      28A     -0.568295    29A     -0.561001    30A     -0.559898
      31A     -0.526564    32A     -0.517479    33A     -0.479937
      34A     -0.432764    35A     -0.413624    36A     -0.350637
      37A     -0.327940

  @DF-RHF Final Energy:  -758.26236072023687

   => Energetics <=

    Nuclear Repulsion Energy =            499.7451298160779061
    One-Electron Energy =               -2032.1764111063146174
    Two-Electron Energy =                 774.1689205699998411
    Total Energy =                       -758.2623607202368703
  Basis Set: (AUG-CC-PVTZ AUX)
    Blend: AUG-CC-PVTZ-RI
    Molecular point group: c1

    Geometry (in Angstrom), charge = 0, multiplicity = 1:

       Center              X                  Y                   Z               Mass
    ------------   -----------------  -----------------  -----------------  -----------------
         S           -1.432393955454    -1.059649021816     0.156415704911    31.972071174400
         O            1.521774044546    -1.412556021816    -0.342103295089    15.994914619570
         N            2.084465044546     0.760477978184     0.106680704911    14.003074004430
         C           -0.237871955454     0.163260978184    -0.046478295089    12.000000000000
         C            1.279658344546    -0.275661321816    -0.106925995089    12.000000000000
         C           -0.813580955454     1.416732978184    -0.176568295089    12.000000000000
         C           -2.224283955454     1.376327978184    -0.087875295089    12.000000000000
         C           -2.698551955454     0.094286978184     0.097996704911    12.000000000000
         C            3.503405044546     0.451777978184     0.169839704911    12.000000000000
         H           -0.242060955454     2.320363978184    -0.367363295089     1.007825032230
         H            1.753825044546     1.588095978184     0.585046704911     1.007825032230
         H           -2.868907955454     2.245533978184    -0.168368295089     1.007825032230
         H           -3.728589955454    -0.224379021816     0.201014704911     1.007825032230
         H            3.749027044546    -0.215112021816    -0.655939295089     1.007825032230
         H            3.777415044546    -0.045389021816     1.106722704911     1.007825032230
         H            4.070087044546     1.378885978184     0.070110704911     1.007825032230

  Basis Set: AUG-CC-PVTZ
    Blend: AUG-CC-PVTZ
  Basis Set: (AUG-CC-PVTZ AUX)
    Blend: AUG-CC-PVTZ-JKFIT
	 Reference Energy          =    -758.2623607202368703 [Eh]
	 Singles Energy            =      -0.0000000000000000 [Eh]
	 Same-Spin Energy          =      -0.4420945252549408 [Eh]
	 Opposite-Spin Energy      =      -1.3450868950569541 [Eh]
	 Correlation Energy        =      -1.7871814203118950 [Eh]
	 Total Energy              =    -760.0495421405487377 [Eh]

	 ================> DF-SCS-MP2 Energies <==================
	-----------------------------------------------------------
	 SCS Same-Spin Scale       =       0.3333333333333333 [-]
	 SCS Opposite-Spin Scale   =       1.2000000000000000 [-]
	 SCS Same-Spin Energy      =      -0.1473648417516469 [Eh]
	 SCS Opposite-Spin Energy  =      -1.6141042740683449 [Eh]
	 SCS Correlation Energy    =      -1.7614691158199918 [Eh]
	 SCS Total Energy          =    -760.0238298360568479 [Eh]
	-----------------------------------------------------------

  Dipole Moment: [D]
     X:     0.5020      Y:     3.4679      Z:     1.0660     Total:     3.6626

*** Psi4 exiting successfully. Buy a developer a beer!
