                               Psi4 1.3.2 release

  ==> Input File <==

--------------------------------------------------------------------------
#psi4
#
memory 32 gb

molecule  {
0 1
  S       -1.4679970    -1.1088850     0.1509200
  O        1.4861710    -1.4617920    -0.3475990
  N        2.0488620     0.7112420     0.1011850
  C       -0.2734750     0.1140250    -0.0519740
  C        1.1480630    -0.2971330    -0.1085980
  C       -0.8491840     1.3674970    -0.1820640
  C       -2.0603626     1.3328067    -0.1059154
  C       -2.7341550     0.0450510     0.0925010
  C        3.4678020     0.4025420     0.1643440
  H       -0.2776640     2.2711280    -0.3728590
  H        1.7182220     1.5388600     0.5795510
  H       -2.9045110     2.1962980    -0.1738640
  H       -3.7641930    -0.2736150     0.1955190
  H        3.7134240    -0.2643480    -0.6614350
  H        3.7418120    -0.0946250     1.1012270
  H        4.0344840     1.3296500     0.0646150
units angstrom
no_reorient  #important for SAPT in psi4, default
symmetry c1  #important for SAPT in psi4, default
}

set PROPERTIES_ORIGIN ["COM"]
properties('MP2/aug-cc-pvtz', properties = ['dipole'])
--------------------------------------------------------------------------

    Molecular point group: c1
  Charge       = 0
  Multiplicity = 1
  Basis Set: AUG-CC-PVTZ
    Blend: AUG-CC-PVTZ
  Basis Set: (AUG-CC-PVTZ AUX)
    Blend: AUG-CC-PVTZ-JKFIT

    Orbital Energies [Eh]
    ---------------------

    Doubly Occupied:

       1A    -92.009004     2A    -20.518081     3A    -15.588502
       4A    -11.358642     5A    -11.288686     6A    -11.271781
       7A    -11.260169     8A    -11.248788     9A    -11.237917
      10A     -9.007394    11A     -6.687950    12A     -6.687647
      13A     -6.687254    14A     -1.374034    15A     -1.231506
      16A     -1.206039    17A     -1.035262    18A     -1.008023
      19A     -0.938095    20A     -0.827569    21A     -0.774839
      22A     -0.758640    23A     -0.730567    24A     -0.644127
      25A     -0.637891    26A     -0.623230    27A     -0.605672
      28A     -0.566072    29A     -0.558681    30A     -0.550804
      31A     -0.520872    32A     -0.509424    33A     -0.475948
      34A     -0.430626    35A     -0.399001    36A     -0.383021
      37A     -0.314266

  @DF-RHF Final Energy:  -758.20097603180318

   => Energetics <=

    Nuclear Repulsion Energy =            502.9435138604096664
    One-Electron Energy =               -2038.3769327545796841
    Two-Electron Energy =                 777.2324428623668382
    Total Energy =                       -758.2009760318031795
  Basis Set: (AUG-CC-PVTZ AUX)
    Blend: AUG-CC-PVTZ-RI
    Molecular point group: c1

    Geometry (in Angstrom), charge = 0, multiplicity = 1:

       Center              X                  Y                   Z               Mass
    ------------   -----------------  -----------------  -----------------  -----------------
         S           -1.441203646313    -1.062497796643     0.157157761443    31.972071174400
         O            1.512964353687    -1.415404796643    -0.341361238557    15.994914619570
         N            2.075655353687     0.757629203357     0.107422761443    14.003074004430
         C           -0.246681646313     0.160412203357    -0.045736238557    12.000000000000
         C            1.174856353687    -0.250745796643    -0.102360238557    12.000000000000
         C           -0.822390646313     1.413884203357    -0.175826238557    12.000000000000
         C           -2.033569246313     1.379193903357    -0.099677638557    12.000000000000
         C           -2.707361646313     0.091438203357     0.098738761443    12.000000000000
         C            3.494595353687     0.448929203357     0.170581761443    12.000000000000
         H           -0.250870646313     2.317515203357    -0.366621238557     1.007825032230
         H            1.745015353687     1.585247203357     0.585788761443     1.007825032230
         H           -2.877717646313     2.242685203357    -0.167626238557     1.007825032230
         H           -3.737399646313    -0.227227796643     0.201756761443     1.007825032230
         H            3.740217353687    -0.217960796643    -0.655197238557     1.007825032230
         H            3.768605353687    -0.048237796643     1.107464761443     1.007825032230
         H            4.061277353687     1.376037203357     0.070852761443     1.007825032230

  Basis Set: AUG-CC-PVTZ
    Blend: AUG-CC-PVTZ
  Basis Set: (AUG-CC-PVTZ AUX)
    Blend: AUG-CC-PVTZ-JKFIT
	 Reference Energy          =    -758.2009760318031795 [Eh]
	 Singles Energy            =      -0.0000000000000000 [Eh]
	 Same-Spin Energy          =      -0.4489003865295306 [Eh]
	 Opposite-Spin Energy      =      -1.3544457556646403 [Eh]
	 Correlation Energy        =      -1.8033461421941710 [Eh]
	 Total Energy              =    -760.0043221739973660 [Eh]

	 ================> DF-SCS-MP2 Energies <==================
	-----------------------------------------------------------
	 SCS Same-Spin Scale       =       0.3333333333333333 [-]
	 SCS Opposite-Spin Scale   =       1.2000000000000000 [-]
	 SCS Same-Spin Energy      =      -0.1496334621765102 [Eh]
	 SCS Opposite-Spin Energy  =      -1.6253349067975684 [Eh]
	 SCS Correlation Energy    =      -1.7749683689740787 [Eh]
	 SCS Total Energy          =    -759.9759444007772800 [Eh]
	-----------------------------------------------------------

  Dipole Moment: [D]
     X:    -0.3789      Y:     3.5393      Z:     1.0994     Total:     3.7255

*** Psi4 exiting successfully. Buy a developer a beer!
