                               Psi4 1.3.2 release

  ==> Input File <==

--------------------------------------------------------------------------
#psi4
#
memory 32 gb

molecule  {
0 1
  S       -1.5513180    -1.1933174     0.1665109
  O        1.4861710    -1.4617920    -0.3475990
  N        2.0488620     0.7112420     0.1011850
  C       -0.2734750     0.1140250    -0.0519740
  C        1.1480630    -0.2971330    -0.1085980
  C       -0.8491840     1.3674970    -0.1820640
  C       -2.2598870     1.3270920    -0.0933710
  C       -2.7341550     0.0450510     0.0925010
  C        3.4678020     0.4025420     0.1643440
  H       -0.2776640     2.2711280    -0.3728590
  H        1.7182220     1.5388600     0.5795510
  H       -2.9045110     2.1962980    -0.1738640
  H       -3.7641930    -0.2736150     0.1955190
  H        3.7134240    -0.2643480    -0.6614350
  H        3.7418120    -0.0946250     1.1012270
  H        4.0344840     1.3296500     0.0646150
units angstrom
no_reorient  #important for SAPT in psi4, default
symmetry c1  #important for SAPT in psi4, default
}

set PROPERTIES_ORIGIN ["COM"]
properties('MP2/aug-cc-pvtz', properties = ['dipole'])
--------------------------------------------------------------------------

    Molecular point group: c1
  Charge       = 0
  Multiplicity = 1
  Basis Set: AUG-CC-PVTZ
    Blend: AUG-CC-PVTZ
  Basis Set: (AUG-CC-PVTZ AUX)
    Blend: AUG-CC-PVTZ-JKFIT

    Orbital Energies [Eh]
    ---------------------

    Doubly Occupied:

       1A    -91.999528     2A    -20.521543     3A    -15.590043
       4A    -11.361220     5A    -11.285284     6A    -11.282867
       7A    -11.269028     8A    -11.261210     9A    -11.251256
      10A     -8.997206    11A     -6.678033    12A     -6.677183
      13A     -6.676712    14A     -1.375907    15A     -1.232291
      16A     -1.171707    17A     -1.019412    18A     -0.996883
      19A     -0.942707    20A     -0.833709    21A     -0.770293
      22A     -0.765528    23A     -0.724129    24A     -0.643984
      25A     -0.639468    26A     -0.623342    27A     -0.579568
      28A     -0.575616    29A     -0.551960    30A     -0.551219
      31A     -0.520392    32A     -0.507855    33A     -0.486806
      34A     -0.434994    35A     -0.399452    36A     -0.363730
      37A     -0.330378

  @DF-RHF Final Energy:  -758.26016760779623

   => Energetics <=

    Nuclear Repulsion Energy =            494.8078254717502773
    One-Electron Energy =               -2022.3511005210909843
    Two-Electron Energy =                 769.2831074415445300
    Total Energy =                       -758.2601676077962338
  Basis Set: (AUG-CC-PVTZ AUX)
    Blend: AUG-CC-PVTZ-RI
    Molecular point group: c1

    Geometry (in Angstrom), charge = 0, multiplicity = 1:

       Center              X                  Y                   Z               Mass
    ------------   -----------------  -----------------  -----------------  -----------------
         S           -1.488656937327    -1.127302057375     0.168146591429    31.972071174400
         O            1.548832062673    -1.395776657375    -0.345963308571    15.994914619570
         N            2.111523062673     0.777257342625     0.102820691429    14.003074004430
         C           -0.210813937327     0.180040342625    -0.050338308571    12.000000000000
         C            1.210724062673    -0.231117657375    -0.106962308571    12.000000000000
         C           -0.786522937327     1.433512342625    -0.180428308571    12.000000000000
         C           -2.197225937327     1.393107342625    -0.091735308571    12.000000000000
         C           -2.671493937327     0.111066342625     0.094136691429    12.000000000000
         C            3.530463062673     0.468557342625     0.165979691429    12.000000000000
         H           -0.215002937327     2.337143342625    -0.371223308571     1.007825032230
         H            1.780883062673     1.604875342625     0.581186691429     1.007825032230
         H           -2.841849937327     2.262313342625    -0.172228308571     1.007825032230
         H           -3.701531937327    -0.207599657375     0.197154691429     1.007825032230
         H            3.776085062673    -0.198332657375    -0.659799308571     1.007825032230
         H            3.804473062673    -0.028609657375     1.102862691429     1.007825032230
         H            4.097145062673     1.395665342625     0.066250691429     1.007825032230

  Basis Set: AUG-CC-PVTZ
    Blend: AUG-CC-PVTZ
  Basis Set: (AUG-CC-PVTZ AUX)
    Blend: AUG-CC-PVTZ-JKFIT
	 Reference Energy          =    -758.2601676077962338 [Eh]
	 Singles Energy            =      -0.0000000000000000 [Eh]
	 Same-Spin Energy          =      -0.4424575880660864 [Eh]
	 Opposite-Spin Energy      =      -1.3487748622689644 [Eh]
	 Correlation Energy        =      -1.7912324503350507 [Eh]
	 Total Energy              =    -760.0514000581313212 [Eh]

	 ================> DF-SCS-MP2 Energies <==================
	-----------------------------------------------------------
	 SCS Same-Spin Scale       =       0.3333333333333333 [-]
	 SCS Opposite-Spin Scale   =       1.2000000000000000 [-]
	 SCS Same-Spin Energy      =      -0.1474858626886955 [Eh]
	 SCS Opposite-Spin Energy  =      -1.6185298347227572 [Eh]
	 SCS Correlation Energy    =      -1.7660156974114527 [Eh]
	 SCS Total Energy          =    -760.0261833052077236 [Eh]
	-----------------------------------------------------------

  Dipole Moment: [D]
     X:    -0.3416      Y:     3.6759      Z:     1.0741     Total:     3.8449

*** Psi4 exiting successfully. Buy a developer a beer!
