                               Psi4 1.4a3.dev225

  ==> Input File <==

--------------------------------------------------------------------------
#psi4
#
memory 32 gb

molecule  {
0 1
  S       -1.4679970    -1.1088850     0.1509200
  O        1.4861710    -1.4617920    -0.3475990
  N        2.0488620     0.7112420     0.1011850
  C       -0.2734750     0.1140250    -0.0519740
  C        1.1672615    -0.3026859    -0.1093627
  C       -0.8491840     1.3674970    -0.1820640
  C       -2.2598870     1.3270920    -0.0933710
  C       -2.7341550     0.0450510     0.0925010
  C        3.4678020     0.4025420     0.1643440
  H       -0.2776640     2.2711280    -0.3728590
  H        1.7182220     1.5388600     0.5795510
  H       -2.9045110     2.1962980    -0.1738640
  H       -3.7641930    -0.2736150     0.1955190
  H        3.7134240    -0.2643480    -0.6614350
  H        3.7418120    -0.0946250     1.1012270
  H        4.0344840     1.3296500     0.0646150
units angstrom
no_reorient  #important for SAPT in psi4, default
symmetry c1  #important for SAPT in psi4, default
}

set PROPERTIES_ORIGIN ["COM"]
properties('MP2/aug-cc-pvtz', properties = ['dipole'])
--------------------------------------------------------------------------

    Molecular point group: c1
  Charge       = 0
  Multiplicity = 1
  Basis Set: AUG-CC-PVTZ
    Blend: AUG-CC-PVTZ
  Basis Set: (AUG-CC-PVTZ AUX)
    Blend: AUG-CC-PVTZ-JKFIT

    Orbital Energies [Eh]
    ---------------------

    Doubly Occupied:

       1A    -91.994709     2A    -20.525124     3A    -15.592018
       4A    -11.362823     5A    -11.277228     6A    -11.276488
       7A    -11.262641     8A    -11.260478     9A    -11.249551
      10A     -8.994462    11A     -6.675303    12A     -6.674756
      13A     -6.674082    14A     -1.385322    15A     -1.238011
      16A     -1.182377    17A     -1.017020    18A     -0.999282
      19A     -0.947237    20A     -0.829752    21A     -0.772272
      22A     -0.769354    23A     -0.720483    24A     -0.647631
      25A     -0.644021    26A     -0.627898    27A     -0.579348
      28A     -0.572319    29A     -0.557746    30A     -0.554455
      31A     -0.531969    32A     -0.513369    33A     -0.485091
      34A     -0.436933    35A     -0.403009    36A     -0.355748
      37A     -0.334414

  @DF-RHF Final Energy:  -758.26935314012508

   => Energetics <=

    Nuclear Repulsion Energy =            499.8922722773907026
    One-Electron Energy =               -2032.4738028024009964
    Two-Electron Energy =                 774.3121773848852172
    Total Energy =                       -758.2693531401250766
  Basis Set: (AUG-CC-PVTZ AUX)
    Blend: AUG-CC-PVTZ-RI
    Molecular point group: c1

    Geometry (in Angstrom), charge = 0, multiplicity = 1:

       Center              X                  Y                   Z               Mass
    ------------   -----------------  -----------------  -----------------  -----------------
         S           -1.425859463853    -1.061539020836     0.156155410332    31.972071174400
         O            1.528308536147    -1.414446020836    -0.342363589668    15.994914619570
         N            2.090999536147     0.758587979164     0.106420410332    14.003074004430
         C           -0.231337463853     0.161370979164    -0.046738589668    12.000000000000
         C            1.209399036147    -0.255339920836    -0.104127289668    12.000000000000
         C           -0.807046463853     1.414842979164    -0.176828589668    12.000000000000
         C           -2.217749463853     1.374437979164    -0.088135589668    12.000000000000
         C           -2.692017463853     0.092396979164     0.097736410332    12.000000000000
         C            3.509939536147     0.449887979164     0.169579410332    12.000000000000
         H           -0.235526463853     2.318473979164    -0.367623589668     1.007825032230
         H            1.760359536147     1.586205979164     0.584786410332     1.007825032230
         H           -2.862373463853     2.243643979164    -0.168628589668     1.007825032230
         H           -3.722055463853    -0.226269020836     0.200754410332     1.007825032230
         H            3.755561536147    -0.217002020836    -0.656199589668     1.007825032230
         H            3.783949536147    -0.047279020836     1.106462410332     1.007825032230
         H            4.076621536147     1.376995979164     0.069850410332     1.007825032230

  Basis Set: AUG-CC-PVTZ
    Blend: AUG-CC-PVTZ
  Basis Set: (AUG-CC-PVTZ AUX)
    Blend: AUG-CC-PVTZ-JKFIT
	 Reference Energy          =    -758.2693531401250766 [Eh]
	 Singles Energy            =      -0.0000000000000000 [Eh]
	 Same-Spin Energy          =      -0.4431086181276704 [Eh]
	 Opposite-Spin Energy      =      -1.3470603214110335 [Eh]
	 Correlation Energy        =      -1.7901689395387039 [Eh]
	 Total Energy              =    -760.0595220796637932 [Eh]

	 ================> DF-SCS-MP2 Energies <==================
	-----------------------------------------------------------
	 SCS Same-Spin Scale       =       0.3333333333333333 [-]
	 SCS Opposite-Spin Scale   =       1.2000000000000000 [-]
	 SCS Same-Spin Energy      =      -0.1477028727092234 [Eh]
	 SCS Opposite-Spin Energy  =      -1.6164723856932401 [Eh]
	 SCS Correlation Energy    =      -1.7641752584024637 [Eh]
	 SCS Total Energy          =    -760.0335283985275510 [Eh]
	-----------------------------------------------------------

  Dipole Moment: [D]
     X:    -0.1671      Y:     3.5895      Z:     1.0794     Total:     3.7520

*** Psi4 exiting successfully. Buy a developer a beer!
