                               Psi4 1.3.2 release

  ==> Input File <==

--------------------------------------------------------------------------
#psi4
#
memory 32 gb

molecule  {
0 1
  S       -1.4679970    -1.1088850     0.1509200
  O        1.4861710    -1.4617920    -0.3475990
  N        2.0488620     0.7112420     0.1011850
  C       -0.2734750     0.1140250    -0.0519740
  C        1.1480630    -0.2971330    -0.1085980
  C       -0.8491840     1.3674970    -0.1820640
  C       -2.2598870     1.3270920    -0.0933710
  C       -2.6427458     0.0147870     0.0920540
  C        3.4678020     0.4025420     0.1643440
  H       -0.2776640     2.2711280    -0.3728590
  H        1.7182220     1.5388600     0.5795510
  H       -2.9045110     2.1962980    -0.1738640
  H       -3.7641930    -0.2736150     0.1955190
  H        3.7134240    -0.2643480    -0.6614350
  H        3.7418120    -0.0946250     1.1012270
  H        4.0344840     1.3296500     0.0646150
units angstrom
no_reorient  #important for SAPT in psi4, default
symmetry c1  #important for SAPT in psi4, default
}

set PROPERTIES_ORIGIN ["COM"]
properties('MP2/aug-cc-pvtz', properties = ['dipole'])
--------------------------------------------------------------------------

    Molecular point group: c1
  Charge       = 0
  Multiplicity = 1
  Basis Set: AUG-CC-PVTZ
    Blend: AUG-CC-PVTZ
  Basis Set: (AUG-CC-PVTZ AUX)
    Blend: AUG-CC-PVTZ-JKFIT

    Orbital Energies [Eh]
    ---------------------

    Doubly Occupied:

       1A    -91.998446     2A    -20.521045     3A    -15.588833
       4A    -11.360260     5A    -11.278983     6A    -11.271428
       7A    -11.262050     8A    -11.260471     9A    -11.247275
      10A     -9.000198    11A     -6.681246    12A     -6.680348
      13A     -6.679682    14A     -1.376139    15A     -1.231598
      16A     -1.196511    17A     -1.019341    18A     -1.011203
      19A     -0.942585    20A     -0.829974    21A     -0.769928
      22A     -0.759313    23A     -0.724701    24A     -0.643026
      25A     -0.640690    26A     -0.622914    27A     -0.578410
      28A     -0.562358    29A     -0.560197    30A     -0.548421
      31A     -0.535155    32A     -0.516090    33A     -0.496323
      34A     -0.435038    35A     -0.399111    36A     -0.361331
      37A     -0.332858

  @DF-RHF Final Energy:  -758.25794637615456

   => Energetics <=

    Nuclear Repulsion Energy =            502.2159114370335828
    One-Electron Energy =               -2037.1007557635537069
    Two-Electron Energy =                 776.6268979503655601
    Total Energy =                       -758.2579463761545639
  Basis Set: (AUG-CC-PVTZ AUX)
    Blend: AUG-CC-PVTZ-RI
    Molecular point group: c1

    Geometry (in Angstrom), charge = 0, multiplicity = 1:

       Center              X                  Y                   Z               Mass
    ------------   -----------------  -----------------  -----------------  -----------------
         S           -1.432003973079    -1.059436318855     0.156128376796    31.972071174400
         O            1.522164026921    -1.412343318855    -0.342390623204    15.994914619570
         N            2.084855026921     0.760690681145     0.106393376796    14.003074004430
         C           -0.237481973079     0.163473681145    -0.046765623204    12.000000000000
         C            1.184056026921    -0.247684318855    -0.103389623204    12.000000000000
         C           -0.813190973079     1.416945681145    -0.176855623204    12.000000000000
         C           -2.223893973079     1.376540681145    -0.088162623204    12.000000000000
         C           -2.606752773079     0.064235681145     0.097262376796    12.000000000000
         C            3.503795026921     0.451990681145     0.169552376796    12.000000000000
         H           -0.241670973079     2.320576681145    -0.367650623204     1.007825032230
         H            1.754215026921     1.588308681145     0.584759376796     1.007825032230
         H           -2.868517973079     2.245746681145    -0.168655623204     1.007825032230
         H           -3.728199973079    -0.224166318855     0.200727376796     1.007825032230
         H            3.749417026921    -0.214899318855    -0.656226623204     1.007825032230
         H            3.777805026921    -0.045176318855     1.106435376796     1.007825032230
         H            4.070477026921     1.379098681145     0.069823376796     1.007825032230

  Basis Set: AUG-CC-PVTZ
    Blend: AUG-CC-PVTZ
  Basis Set: (AUG-CC-PVTZ AUX)
    Blend: AUG-CC-PVTZ-JKFIT
	 Reference Energy          =    -758.2579463761545639 [Eh]
	 Singles Energy            =      -0.0000000000000000 [Eh]
	 Same-Spin Energy          =      -0.4444599429828971 [Eh]
	 Opposite-Spin Energy      =      -1.3478577202619602 [Eh]
	 Correlation Energy        =      -1.7923176632448574 [Eh]
	 Total Energy              =    -760.0502640393993943 [Eh]

	 ================> DF-SCS-MP2 Energies <==================
	-----------------------------------------------------------
	 SCS Same-Spin Scale       =       0.3333333333333333 [-]
	 SCS Opposite-Spin Scale   =       1.2000000000000000 [-]
	 SCS Same-Spin Energy      =      -0.1481533143276324 [Eh]
	 SCS Opposite-Spin Energy  =      -1.6174292643143522 [Eh]
	 SCS Correlation Energy    =      -1.7655825786419845 [Eh]
	 SCS Total Energy          =    -760.0235289547965749 [Eh]
	-----------------------------------------------------------

  Dipole Moment: [D]
     X:    -0.3915      Y:     3.5258      Z:     1.0932     Total:     3.7121

*** Psi4 exiting successfully. Buy a developer a beer!
