                               Psi4 1.3.2 release

  ==> Input File <==

--------------------------------------------------------------------------
#psi4
#
memory 32 gb

molecule  {
0 1
  S       -1.4679970    -1.1088850     0.1509200
  O        1.4861710    -1.4617920    -0.3475990
  N        2.0488620     0.7112420     0.1011850
  C       -0.2734750     0.1140250    -0.0519740
  C        1.1480630    -0.2971330    -0.1085980
  C       -0.8491840     1.3674970    -0.1820640
  C       -2.2598870     1.3270920    -0.0933710
  C       -2.7341550     0.0450510     0.0925010
  C        3.4678020     0.4025420     0.1643440
  H       -0.2250421     2.3543285    -0.3904262
  H        1.7182220     1.5388600     0.5795510
  H       -2.9045110     2.1962980    -0.1738640
  H       -3.7641930    -0.2736150     0.1955190
  H        3.7134240    -0.2643480    -0.6614350
  H        3.7418120    -0.0946250     1.1012270
  H        4.0344840     1.3296500     0.0646150
units angstrom
no_reorient  #important for SAPT in psi4, default
symmetry c1  #important for SAPT in psi4, default
}

set PROPERTIES_ORIGIN ["COM"]
properties('MP2/aug-cc-pvtz', properties = ['dipole'])
--------------------------------------------------------------------------

    Molecular point group: c1
  Charge       = 0
  Multiplicity = 1
  Basis Set: AUG-CC-PVTZ
    Blend: AUG-CC-PVTZ
  Basis Set: (AUG-CC-PVTZ AUX)
    Blend: AUG-CC-PVTZ-JKFIT

    Orbital Energies [Eh]
    ---------------------

    Doubly Occupied:

       1A    -91.996925     2A    -20.523411     3A    -15.590450
       4A    -11.362699     5A    -11.279919     6A    -11.277642
       7A    -11.273532     8A    -11.261509     9A    -11.251923
      10A     -8.996629    11A     -6.677459    12A     -6.676909
      13A     -6.676226    14A     -1.378091    15A     -1.233016
      16A     -1.184481    17A     -1.020553    18A     -0.998196
      19A     -0.945721    20A     -0.831877    21A     -0.770085
      22A     -0.767811    23A     -0.709740    24A     -0.646095
      25A     -0.641845    26A     -0.625864    27A     -0.578266
      28A     -0.566116    29A     -0.556935    30A     -0.552655
      31A     -0.531602    32A     -0.511848    33A     -0.485723
      34A     -0.436767    35A     -0.400032    36A     -0.357551
      37A     -0.336464

  @DF-RHF Final Energy:  -758.26106111113131

   => Energetics <=

    Nuclear Repulsion Energy =            499.4581350259709325
    One-Electron Energy =               -2031.6132553856543836
    Two-Electron Energy =                 773.8940592485521393
    Total Energy =                       -758.2610611111313119
  Basis Set: (AUG-CC-PVTZ AUX)
    Blend: AUG-CC-PVTZ-RI
    Molecular point group: c1

    Geometry (in Angstrom), charge = 0, multiplicity = 1:

       Center              X                  Y                   Z               Mass
    ------------   -----------------  -----------------  -----------------  -----------------
         S           -1.424601895766    -1.062606111938     0.156215883822    31.972071174400
         O            1.529566104234    -1.415513111938    -0.342303116178    15.994914619570
         N            2.092257104234     0.757520888062     0.106480883822    14.003074004430
         C           -0.230079895766     0.160303888062    -0.046678116178    12.000000000000
         C            1.191458104234    -0.250854111938    -0.103302116178    12.000000000000
         C           -0.805788895766     1.413775888062    -0.176768116178    12.000000000000
         C           -2.216491895766     1.373370888062    -0.088075116178    12.000000000000
         C           -2.690759895766     0.091329888062     0.097796883822    12.000000000000
         C            3.511197104234     0.448820888062     0.169639883822    12.000000000000
         H           -0.181646995766     2.400607388062    -0.385130316178     1.007825032230
         H            1.761617104234     1.585138888062     0.584846883822     1.007825032230
         H           -2.861115895766     2.242576888062    -0.168568116178     1.007825032230
         H           -3.720797895766    -0.227336111938     0.200814883822     1.007825032230
         H            3.756819104234    -0.218069111938    -0.656139116178     1.007825032230
         H            3.785207104234    -0.048346111938     1.106522883822     1.007825032230
         H            4.077879104234     1.375928888062     0.069910883822     1.007825032230

  Basis Set: AUG-CC-PVTZ
    Blend: AUG-CC-PVTZ
  Basis Set: (AUG-CC-PVTZ AUX)
    Blend: AUG-CC-PVTZ-JKFIT
	 Reference Energy          =    -758.2610611111313119 [Eh]
	 Singles Energy            =      -0.0000000000000000 [Eh]
	 Same-Spin Energy          =      -0.4437667101161658 [Eh]
	 Opposite-Spin Energy      =      -1.3486484273776642 [Eh]
	 Correlation Energy        =      -1.7924151374938300 [Eh]
	 Total Energy              =    -760.0534762486250884 [Eh]

	 ================> DF-SCS-MP2 Energies <==================
	-----------------------------------------------------------
	 SCS Same-Spin Scale       =       0.3333333333333333 [-]
	 SCS Opposite-Spin Scale   =       1.2000000000000000 [-]
	 SCS Same-Spin Energy      =      -0.1479222367053886 [Eh]
	 SCS Opposite-Spin Energy  =      -1.6183781128531971 [Eh]
	 SCS Correlation Energy    =      -1.7663003495585856 [Eh]
	 SCS Total Energy          =    -760.0273614606899173 [Eh]
	-----------------------------------------------------------

  Dipole Moment: [D]
     X:    -0.3540      Y:     3.5954      Z:     1.0824     Total:     3.7714

*** Psi4 exiting successfully. Buy a developer a beer!
