                               Psi4 1.3.2 release

  ==> Input File <==

--------------------------------------------------------------------------
#psi4
#
memory 32 gb

molecule  {
0 1
  S       -1.4679970    -1.1088850     0.1509200
  O        1.4861710    -1.4617920    -0.3475990
  N        2.0488620     0.7112420     0.1011850
  C       -0.2955107     0.1044034    -0.0494114
  C        1.1480630    -0.2971330    -0.1085980
  C       -0.8491840     1.3674970    -0.1820640
  C       -2.2598870     1.3270920    -0.0933710
  C       -2.7341550     0.0450510     0.0925010
  C        3.4678020     0.4025420     0.1643440
  H       -0.2776640     2.2711280    -0.3728590
  H        1.7182220     1.5388600     0.5795510
  H       -2.9045110     2.1962980    -0.1738640
  H       -3.7641930    -0.2736150     0.1955190
  H        3.7134240    -0.2643480    -0.6614350
  H        3.7418120    -0.0946250     1.1012270
  H        4.0344840     1.3296500     0.0646150
units angstrom
no_reorient  #important for SAPT in psi4, default
symmetry c1  #important for SAPT in psi4, default
}

set PROPERTIES_ORIGIN ["COM"]
properties('MP2/aug-cc-pvtz', properties = ['dipole'])
--------------------------------------------------------------------------

    Molecular point group: c1
  Charge       = 0
  Multiplicity = 1
  Basis Set: AUG-CC-PVTZ
    Blend: AUG-CC-PVTZ
  Basis Set: (AUG-CC-PVTZ AUX)
    Blend: AUG-CC-PVTZ-JKFIT

    Orbital Energies [Eh]
    ---------------------

    Doubly Occupied:

       1A    -91.996451     2A    -20.523676     3A    -15.591459
       4A    -11.363842     5A    -11.277240     6A    -11.276470
       7A    -11.262110     8A    -11.260723     9A    -11.250320
      10A     -8.996609    11A     -6.677465    12A     -6.676912
      13A     -6.676204    14A     -1.377959    15A     -1.233231
      16A     -1.186518    17A     -1.017740    18A     -1.002589
      19A     -0.946410    20A     -0.829603    21A     -0.770943
      22A     -0.768857    23A     -0.722302    24A     -0.646178
      25A     -0.641290    26A     -0.625619    27A     -0.578167
      28A     -0.571464    29A     -0.558122    30A     -0.553149
      31A     -0.535559    32A     -0.512520    33A     -0.488867
      34A     -0.435826    35A     -0.400458    36A     -0.357031
      37A     -0.335384

  @DF-RHF Final Energy:  -758.26819141261501

   => Energetics <=

    Nuclear Repulsion Energy =            500.1012727085500842
    One-Electron Energy =               -2032.8883974591244623
    Two-Electron Energy =                 774.5189333379593108
    Total Energy =                       -758.2681914126150104
  Basis Set: (AUG-CC-PVTZ AUX)
    Blend: AUG-CC-PVTZ-RI
    Molecular point group: c1

    Geometry (in Angstrom), charge = 0, multiplicity = 1:

       Center              X                  Y                   Z               Mass
    ------------   -----------------  -----------------  -----------------  -----------------
         S           -1.422350788236    -1.061192809476     0.155872285732    31.972071174400
         O            1.531817211764    -1.414099809476    -0.342646714268    15.994914619570
         N            2.094508211764     0.758934190524     0.106137285732    14.003074004430
         C           -0.249864488236     0.152095590524    -0.044459114268    12.000000000000
         C            1.193709211764    -0.249440809476    -0.103645714268    12.000000000000
         C           -0.803537788236     1.415189190524    -0.177111714268    12.000000000000
         C           -2.214240788236     1.374784190524    -0.088418714268    12.000000000000
         C           -2.688508788236     0.092743190524     0.097453285732    12.000000000000
         C            3.513448211764     0.450234190524     0.169296285732    12.000000000000
         H           -0.232017788236     2.318820190524    -0.367906714268     1.007825032230
         H            1.763868211764     1.586552190524     0.584503285732     1.007825032230
         H           -2.858864788236     2.243990190524    -0.168911714268     1.007825032230
         H           -3.718546788236    -0.225922809476     0.200471285732     1.007825032230
         H            3.759070211764    -0.216655809476    -0.656482714268     1.007825032230
         H            3.787458211764    -0.046932809476     1.106179285732     1.007825032230
         H            4.080130211764     1.377342190524     0.069567285732     1.007825032230

  Basis Set: AUG-CC-PVTZ
    Blend: AUG-CC-PVTZ
  Basis Set: (AUG-CC-PVTZ AUX)
    Blend: AUG-CC-PVTZ-JKFIT
	 Reference Energy          =    -758.2681914126150104 [Eh]
	 Singles Energy            =      -0.0000000000000000 [Eh]
	 Same-Spin Energy          =      -0.4434855465115756 [Eh]
	 Opposite-Spin Energy      =      -1.3475721388016322 [Eh]
	 Correlation Energy        =      -1.7910576853132079 [Eh]
	 Total Energy              =    -760.0592490979282729 [Eh]

	 ================> DF-SCS-MP2 Energies <==================
	-----------------------------------------------------------
	 SCS Same-Spin Scale       =       0.3333333333333333 [-]
	 SCS Opposite-Spin Scale   =       1.2000000000000000 [-]
	 SCS Same-Spin Energy      =      -0.1478285155038585 [Eh]
	 SCS Opposite-Spin Energy  =      -1.6170865665619585 [Eh]
	 SCS Correlation Energy    =      -1.7649150820658170 [Eh]
	 SCS Total Energy          =    -760.0331064946808510 [Eh]
	-----------------------------------------------------------

  Dipole Moment: [D]
     X:    -0.2917      Y:     3.5810      Z:     1.0864     Total:     3.7535

*** Psi4 exiting successfully. Buy a developer a beer!
