                               Psi4 1.4a3.dev225

  ==> Input File <==

--------------------------------------------------------------------------
#psi4
#
memory 32 gb

molecule  {
0 1
  S       -1.4679970    -1.1088850     0.1509200
  O        1.4861710    -1.4617920    -0.3475990
  N        2.0488620     0.7112420     0.1011850
  C       -0.2595973     0.1282325    -0.0543312
  C        1.1480630    -0.2971330    -0.1085980
  C       -0.8491840     1.3674970    -0.1820640
  C       -2.2598870     1.3270920    -0.0933710
  C       -2.7341550     0.0450510     0.0925010
  C        3.4678020     0.4025420     0.1643440
  H       -0.2776640     2.2711280    -0.3728590
  H        1.7182220     1.5388600     0.5795510
  H       -2.9045110     2.1962980    -0.1738640
  H       -3.7641930    -0.2736150     0.1955190
  H        3.7134240    -0.2643480    -0.6614350
  H        3.7418120    -0.0946250     1.1012270
  H        4.0344840     1.3296500     0.0646150
units angstrom
no_reorient  #important for SAPT in psi4, default
symmetry c1  #important for SAPT in psi4, default
}

set PROPERTIES_ORIGIN ["COM"]
properties('MP2/aug-cc-pvtz', properties = ['dipole'])
--------------------------------------------------------------------------

    Molecular point group: c1
  Charge       = 0
  Multiplicity = 1
  Basis Set: AUG-CC-PVTZ
    Blend: AUG-CC-PVTZ
  Basis Set: (AUG-CC-PVTZ AUX)
    Blend: AUG-CC-PVTZ-JKFIT

    Orbital Energies [Eh]
    ---------------------

    Doubly Occupied:

       1A    -91.995416     2A    -20.523713     3A    -15.590507
       4A    -11.362346     5A    -11.280449     6A    -11.276896
       7A    -11.263427     8A    -11.261482     9A    -11.251022
      10A     -8.994858    11A     -6.675684    12A     -6.675106
      13A     -6.674462    14A     -1.378376    15A     -1.233594
      16A     -1.182965    17A     -1.022606    18A     -0.999537
      19A     -0.946378    20A     -0.835008    21A     -0.771608
      22A     -0.769421    23A     -0.722034    24A     -0.646397
      25A     -0.642050    26A     -0.626187    27A     -0.580900
      28A     -0.574542    29A     -0.557521    30A     -0.552738
      31A     -0.530746    32A     -0.510981    33A     -0.484234
      34A     -0.437295    35A     -0.400436    36A     -0.357332
      37A     -0.336550

  @DF-RHF Final Energy:  -758.26828963312767

   => Energetics <=

    Nuclear Repulsion Energy =            499.8043770818133567
    One-Electron Energy =               -2032.2957282903369105
    Two-Electron Energy =                 774.2230615753959455
    Total Energy =                       -758.2682896331276652
  Basis Set: (AUG-CC-PVTZ AUX)
    Blend: AUG-CC-PVTZ-RI
    Molecular point group: c1

    Geometry (in Angstrom), charge = 0, multiplicity = 1:

       Center              X                  Y                   Z               Mass
    ------------   -----------------  -----------------  -----------------  -----------------
         S           -1.425406709556    -1.063220460846     0.156290918380    31.972071174400
         O            1.528761290444    -1.416127460846    -0.342228081620    15.994914619570
         N            2.091452290444     0.756906539154     0.106555918380    14.003074004430
         C           -0.217007009556     0.173897039154    -0.048960281620    12.000000000000
         C            1.190653290444    -0.251468460846    -0.103227081620    12.000000000000
         C           -0.806593709556     1.413161539154    -0.176693081620    12.000000000000
         C           -2.217296709556     1.372756539154    -0.088000081620    12.000000000000
         C           -2.691564709556     0.090715539154     0.097871918380    12.000000000000
         C            3.510392290444     0.448206539154     0.169714918380    12.000000000000
         H           -0.235073709556     2.316792539154    -0.367488081620     1.007825032230
         H            1.760812290444     1.584524539154     0.584921918380     1.007825032230
         H           -2.861920709556     2.241962539154    -0.168493081620     1.007825032230
         H           -3.721602709556    -0.227950460846     0.200889918380     1.007825032230
         H            3.756014290444    -0.218683460846    -0.656064081620     1.007825032230
         H            3.784402290444    -0.048960460846     1.106597918380     1.007825032230
         H            4.077074290444     1.375314539154     0.069985918380     1.007825032230

  Basis Set: AUG-CC-PVTZ
    Blend: AUG-CC-PVTZ
  Basis Set: (AUG-CC-PVTZ AUX)
    Blend: AUG-CC-PVTZ-JKFIT
	 Reference Energy          =    -758.2682896331276652 [Eh]
	 Singles Energy            =      -0.0000000000000000 [Eh]
	 Same-Spin Energy          =      -0.4433812909292502 [Eh]
	 Opposite-Spin Energy      =      -1.3478259021302659 [Eh]
	 Correlation Energy        =      -1.7912071930595161 [Eh]
	 Total Energy              =    -760.0594968261872282 [Eh]

	 ================> DF-SCS-MP2 Energies <==================
	-----------------------------------------------------------
	 SCS Same-Spin Scale       =       0.3333333333333333 [-]
	 SCS Opposite-Spin Scale   =       1.2000000000000000 [-]
	 SCS Same-Spin Energy      =      -0.1477937636430834 [Eh]
	 SCS Opposite-Spin Energy  =      -1.6173910825563189 [Eh]
	 SCS Correlation Energy    =      -1.7651848461994024 [Eh]
	 SCS Total Energy          =    -760.0334744793270829 [Eh]
	-----------------------------------------------------------

  Dipole Moment: [D]
     X:    -0.3345      Y:     3.6439      Z:     1.0763     Total:     3.8142

*** Psi4 exiting successfully. Buy a developer a beer!
