                               Psi4 1.3.2 release

  ==> Input File <==

--------------------------------------------------------------------------
#psi4
#
memory 32 gb

molecule  {
0 1
  S       -1.4679970    -1.1088850     0.1509200
  O        1.6085665    -1.4213624    -0.3364440
  N        2.0488620     0.7112420     0.1011850
  C       -0.2734750     0.1140250    -0.0519740
  C        1.1480630    -0.2971330    -0.1085980
  C       -0.8491840     1.3674970    -0.1820640
  C       -2.2598870     1.3270920    -0.0933710
  C       -2.7341550     0.0450510     0.0925010
  C        3.4678020     0.4025420     0.1643440
  H       -0.2776640     2.2711280    -0.3728590
  H        1.7182220     1.5388600     0.5795510
  H       -2.9045110     2.1962980    -0.1738640
  H       -3.7641930    -0.2736150     0.1955190
  H        3.7134240    -0.2643480    -0.6614350
  H        3.7418120    -0.0946250     1.1012270
  H        4.0344840     1.3296500     0.0646150
units angstrom
no_reorient  #important for SAPT in psi4, default
symmetry c1  #important for SAPT in psi4, default
}

set PROPERTIES_ORIGIN ["COM"]
properties('MP2/aug-cc-pvtz', properties = ['dipole'])
--------------------------------------------------------------------------

    Molecular point group: c1
  Charge       = 0
  Multiplicity = 1
  Basis Set: AUG-CC-PVTZ
    Blend: AUG-CC-PVTZ
  Basis Set: (AUG-CC-PVTZ AUX)
    Blend: AUG-CC-PVTZ-JKFIT

    Orbital Energies [Eh]
    ---------------------

    Doubly Occupied:

       1A    -91.999948     2A    -20.520391     3A    -15.583916
       4A    -11.361369     5A    -11.283010     6A    -11.282013
       7A    -11.267110     8A    -11.256520     9A    -11.254206
      10A     -8.999717    11A     -6.680559    12A     -6.680005
      13A     -6.679332    14A     -1.378731    15A     -1.224373
      16A     -1.187800    17A     -1.023737    18A     -1.004552
      19A     -0.943374    20A     -0.833470    21A     -0.774505
      22A     -0.765410    23A     -0.724885    24A     -0.644048
      25A     -0.640824    26A     -0.623600    27A     -0.579929
      28A     -0.576201    29A     -0.556803    30A     -0.548135
      31A     -0.534016    32A     -0.511945    33A     -0.489536
      34A     -0.435843    35A     -0.394579    36A     -0.360342
      37A     -0.339757

  @DF-RHF Final Energy:  -758.26503514479066

   => Energetics <=

    Nuclear Repulsion Energy =            499.5065090554409721
    One-Electron Energy =               -2031.6541080211811732
    Two-Electron Energy =                 773.8825638209494855
    Total Energy =                       -758.2650351447906587
  Basis Set: (AUG-CC-PVTZ AUX)
    Blend: AUG-CC-PVTZ-RI
    Molecular point group: c1

    Geometry (in Angstrom), charge = 0, multiplicity = 1:

       Center              X                  Y                   Z               Mass
    ------------   -----------------  -----------------  -----------------  -----------------
         S           -1.438107828277    -1.066597015054     0.154825150506    31.972071174400
         O            1.638455671723    -1.379074415054    -0.332538849494    15.994914619570
         N            2.078751171723     0.753529984946     0.105090150506    14.003074004430
         C           -0.243585828277     0.156312984946    -0.048068849494    12.000000000000
         C            1.177952171723    -0.254845015054    -0.104692849494    12.000000000000
         C           -0.819294828277     1.409784984946    -0.178158849494    12.000000000000
         C           -2.229997828277     1.369379984946    -0.089465849494    12.000000000000
         C           -2.704265828277     0.087338984946     0.096406150506    12.000000000000
         C            3.497691171723     0.444829984946     0.168249150506    12.000000000000
         H           -0.247774828277     2.313415984946    -0.368953849494     1.007825032230
         H            1.748111171723     1.581147984946     0.583456150506     1.007825032230
         H           -2.874621828277     2.238585984946    -0.169958849494     1.007825032230
         H           -3.734303828277    -0.231327015054     0.199424150506     1.007825032230
         H            3.743313171723    -0.222060015054    -0.657529849494     1.007825032230
         H            3.771701171723    -0.052337015054     1.105132150506     1.007825032230
         H            4.064373171723     1.371937984946     0.068520150506     1.007825032230

  Basis Set: AUG-CC-PVTZ
    Blend: AUG-CC-PVTZ
  Basis Set: (AUG-CC-PVTZ AUX)
    Blend: AUG-CC-PVTZ-JKFIT
	 Reference Energy          =    -758.2650351447906587 [Eh]
	 Singles Energy            =      -0.0000000000000000 [Eh]
	 Same-Spin Energy          =      -0.4438138465785516 [Eh]
	 Opposite-Spin Energy      =      -1.3481515667267097 [Eh]
	 Correlation Energy        =      -1.7919654133052614 [Eh]
	 Total Energy              =    -760.0570005580958650 [Eh]

	 ================> DF-SCS-MP2 Energies <==================
	-----------------------------------------------------------
	 SCS Same-Spin Scale       =       0.3333333333333333 [-]
	 SCS Opposite-Spin Scale   =       1.2000000000000000 [-]
	 SCS Same-Spin Energy      =      -0.1479379488595172 [Eh]
	 SCS Opposite-Spin Energy  =      -1.6177818800720516 [Eh]
	 SCS Correlation Energy    =      -1.7657198289315688 [Eh]
	 SCS Total Energy          =    -760.0307549737221962 [Eh]
	-----------------------------------------------------------

  Dipole Moment: [D]
     X:    -0.8057      Y:     3.5537      Z:     1.0556     Total:     3.7937

*** Psi4 exiting successfully. Buy a developer a beer!
