                               Psi4 1.3.2 release

  ==> Input File <==

--------------------------------------------------------------------------
#psi4
#
memory 32 gb

molecule  {
0 1
  S       -1.4679970    -1.1088850     0.1509200
  O        1.4861710    -1.4617920    -0.3475990
  N        2.0488620     0.7112420     0.1011850
  C       -0.4092143     0.2323976    -0.0576413
  C        1.1480630    -0.2971330    -0.1085980
  C       -0.8491840     1.3674970    -0.1820640
  C       -2.2598870     1.3270920    -0.0933710
  C       -2.7341550     0.0450510     0.0925010
  C        3.4678020     0.4025420     0.1643440
  H       -0.2776640     2.2711280    -0.3728590
  H        1.7182220     1.5388600     0.5795510
  H       -2.9045110     2.1962980    -0.1738640
  H       -3.7641930    -0.2736150     0.1955190
  H        3.7134240    -0.2643480    -0.6614350
  H        3.7418120    -0.0946250     1.1012270
  H        4.0344840     1.3296500     0.0646150
units angstrom
no_reorient  #important for SAPT in psi4, default
symmetry c1  #important for SAPT in psi4, default
}

set PROPERTIES_ORIGIN ["COM"]
properties('MP2/aug-cc-pvtz', properties = ['dipole'])
--------------------------------------------------------------------------

    Molecular point group: c1
  Charge       = 0
  Multiplicity = 1
  Basis Set: AUG-CC-PVTZ
    Blend: AUG-CC-PVTZ
  Basis Set: (AUG-CC-PVTZ AUX)
    Blend: AUG-CC-PVTZ-JKFIT

    Orbital Energies [Eh]
    ---------------------

    Doubly Occupied:

       1A    -91.987351     2A    -20.532091     3A    -15.594114
       4A    -11.372426     5A    -11.270655     6A    -11.268168
       7A    -11.263389     8A    -11.245752     9A    -11.235173
      10A     -8.988038    11A     -6.668951    12A     -6.668175
      13A     -6.667395    14A     -1.379148    15A     -1.235396
      16A     -1.205547    17A     -1.025631    18A     -0.994162
      19A     -0.950029    20A     -0.810022    21A     -0.779317
      22A     -0.757231    23A     -0.731686    24A     -0.645314
      25A     -0.641293    26A     -0.624534    27A     -0.583893
      28A     -0.567472    29A     -0.560917    30A     -0.553780
      31A     -0.525462    32A     -0.516808    33A     -0.495997
      34A     -0.423502    35A     -0.403058    36A     -0.370755
      37A     -0.336492

  @DF-RHF Final Energy:  -758.22869673134176

   => Energetics <=

    Nuclear Repulsion Energy =            500.3403051378624582
    One-Electron Energy =               -2033.3797595689502486
    Two-Electron Energy =                 774.8107576997459773
    Total Energy =                       -758.2286967313417563
  Basis Set: (AUG-CC-PVTZ AUX)
    Blend: AUG-CC-PVTZ-RI
    Molecular point group: c1

    Geometry (in Angstrom), charge = 0, multiplicity = 1:

       Center              X                  Y                   Z               Mass
    ------------   -----------------  -----------------  -----------------  -----------------
         S           -1.412675590249    -1.072084014559     0.156572579407    31.972071174400
         O            1.541492409751    -1.424991014559    -0.341946420593    15.994914619570
         N            2.104183409751     0.748042985441     0.106837579407    14.003074004430
         C           -0.353892890249     0.269198585441    -0.051988720593    12.000000000000
         C            1.203384409751    -0.260332014559    -0.102945420593    12.000000000000
         C           -0.793862590249     1.404297985441    -0.176411420593    12.000000000000
         C           -2.204565590249     1.363892985441    -0.087718420593    12.000000000000
         C           -2.678833590249     0.081851985441     0.098153579407    12.000000000000
         C            3.523123409751     0.439342985441     0.169996579407    12.000000000000
         H           -0.222342590249     2.307928985441    -0.367206420593     1.007825032230
         H            1.773543409751     1.575660985441     0.585203579407     1.007825032230
         H           -2.849189590249     2.233098985441    -0.168211420593     1.007825032230
         H           -3.708871590249    -0.236814014559     0.201171579407     1.007825032230
         H            3.768745409751    -0.227547014559    -0.655782420593     1.007825032230
         H            3.797133409751    -0.057824014559     1.106879579407     1.007825032230
         H            4.089805409751     1.366450985441     0.070267579407     1.007825032230

  Basis Set: AUG-CC-PVTZ
    Blend: AUG-CC-PVTZ
  Basis Set: (AUG-CC-PVTZ AUX)
    Blend: AUG-CC-PVTZ-JKFIT
	 Reference Energy          =    -758.2286967313417563 [Eh]
	 Singles Energy            =      -0.0000000000000000 [Eh]
	 Same-Spin Energy          =      -0.4414462367916193 [Eh]
	 Opposite-Spin Energy      =      -1.3463771910801869 [Eh]
	 Correlation Energy        =      -1.7878234278718064 [Eh]
	 Total Energy              =    -760.0165201592135418 [Eh]

	 ================> DF-SCS-MP2 Energies <==================
	-----------------------------------------------------------
	 SCS Same-Spin Scale       =       0.3333333333333333 [-]
	 SCS Opposite-Spin Scale   =       1.2000000000000000 [-]
	 SCS Same-Spin Energy      =      -0.1471487455972064 [Eh]
	 SCS Opposite-Spin Energy  =      -1.6156526292962243 [Eh]
	 SCS Correlation Energy    =      -1.7628013748934308 [Eh]
	 SCS Total Energy          =    -759.9914981062352126 [Eh]
	-----------------------------------------------------------

  Dipole Moment: [D]
     X:     0.1820      Y:     3.5848      Z:     1.0458     Total:     3.7386

*** Psi4 exiting successfully. Buy a developer a beer!
