                               Psi4 1.3.2 release

  ==> Input File <==

--------------------------------------------------------------------------
#psi4
#
memory 32 gb

molecule  {
0 1
  S       -1.4679970    -1.1088850     0.1509200
  O        1.4861710    -1.4617920    -0.3475990
  N        2.0488620     0.7112420     0.1011850
  C       -0.2734750     0.1140250    -0.0519740
  C        1.1480630    -0.2971330    -0.1085980
  C       -0.8491840     1.3674970    -0.1820640
  C       -2.2598870     1.3270920    -0.0933710
  C       -2.8232536     0.0815610     0.0920424
  C        3.4678020     0.4025420     0.1643440
  H       -0.2776640     2.2711280    -0.3728590
  H        1.7182220     1.5388600     0.5795510
  H       -2.9045110     2.1962980    -0.1738640
  H       -3.7641930    -0.2736150     0.1955190
  H        3.7134240    -0.2643480    -0.6614350
  H        3.7418120    -0.0946250     1.1012270
  H        4.0344840     1.3296500     0.0646150
units angstrom
no_reorient  #important for SAPT in psi4, default
symmetry c1  #important for SAPT in psi4, default
}

set PROPERTIES_ORIGIN ["COM"]
properties('MP2/aug-cc-pvtz', properties = ['dipole'])
--------------------------------------------------------------------------

    Molecular point group: c1
  Charge       = 0
  Multiplicity = 1
  Basis Set: AUG-CC-PVTZ
    Blend: AUG-CC-PVTZ
  Basis Set: (AUG-CC-PVTZ AUX)
    Blend: AUG-CC-PVTZ-JKFIT

    Orbital Energies [Eh]
    ---------------------

    Doubly Occupied:

       1A    -91.992791     2A    -20.525670     3A    -15.592743
       4A    -11.364918     5A    -11.282127     6A    -11.280686
       7A    -11.263616     8A    -11.262885     9A    -11.255924
      10A     -8.991220    11A     -6.671991    12A     -6.671441
      13A     -6.670842    14A     -1.379987    15A     -1.235014
      16A     -1.175209    17A     -1.024104    18A     -0.990796
      19A     -0.950044    20A     -0.836594    21A     -0.785242
      22A     -0.769720    23A     -0.720187    24A     -0.649355
      25A     -0.642186    26A     -0.628864    27A     -0.593327
      28A     -0.579670    29A     -0.555913    30A     -0.554167
      31A     -0.525981    32A     -0.507617    33A     -0.470655
      34A     -0.437773    35A     -0.401507    36A     -0.355369
      37A     -0.337116

  @DF-RHF Final Energy:  -758.25905488413957

   => Energetics <=

    Nuclear Repulsion Energy =            497.8458861549542576
    One-Electron Energy =               -2028.3433759663716955
    Two-Electron Energy =                 772.2384349272778081
    Total Energy =                       -758.2590548841395730
  Basis Set: (AUG-CC-PVTZ AUX)
    Blend: AUG-CC-PVTZ-RI
    Molecular point group: c1

    Geometry (in Angstrom), charge = 0, multiplicity = 1:

       Center              X                  Y                   Z               Mass
    ------------   -----------------  -----------------  -----------------  -----------------
         S           -1.416644312495    -1.065118211693     0.156129363856    31.972071174400
         O            1.537523687505    -1.418025211693    -0.342389636144    15.994914619570
         N            2.100214687505     0.755008788307     0.106394363856    14.003074004430
         C           -0.222122312495     0.157791788307    -0.046764636144    12.000000000000
         C            1.199415687505    -0.253366211693    -0.103388636144    12.000000000000
         C           -0.797831312495     1.411263788307    -0.176854636144    12.000000000000
         C           -2.208534312495     1.370858788307    -0.088161636144    12.000000000000
         C           -2.771900912495     0.125327788307     0.097251763856    12.000000000000
         C            3.519154687505     0.446308788307     0.169553363856    12.000000000000
         H           -0.226311312495     2.314894788307    -0.367649636144     1.007825032230
         H            1.769574687505     1.582626788307     0.584760363856     1.007825032230
         H           -2.853158312495     2.240064788307    -0.168654636144     1.007825032230
         H           -3.712840312495    -0.229848211693     0.200728363856     1.007825032230
         H            3.764776687505    -0.220581211693    -0.656225636144     1.007825032230
         H            3.793164687505    -0.050858211693     1.106436363856     1.007825032230
         H            4.085836687505     1.373416788307     0.069824363856     1.007825032230

  Basis Set: AUG-CC-PVTZ
    Blend: AUG-CC-PVTZ
  Basis Set: (AUG-CC-PVTZ AUX)
    Blend: AUG-CC-PVTZ-JKFIT
	 Reference Energy          =    -758.2590548841395730 [Eh]
	 Singles Energy            =      -0.0000000000000000 [Eh]
	 Same-Spin Energy          =      -0.4430085252431885 [Eh]
	 Opposite-Spin Energy      =      -1.3487660651827897 [Eh]
	 Correlation Energy        =      -1.7917745904259781 [Eh]
	 Total Energy              =    -760.0508294745656030 [Eh]

	 ================> DF-SCS-MP2 Energies <==================
	-----------------------------------------------------------
	 SCS Same-Spin Scale       =       0.3333333333333333 [-]
	 SCS Opposite-Spin Scale   =       1.2000000000000000 [-]
	 SCS Same-Spin Energy      =      -0.1476695084143961 [Eh]
	 SCS Opposite-Spin Energy  =      -1.6185192782193476 [Eh]
	 SCS Correlation Energy    =      -1.7661887866337438 [Eh]
	 SCS Total Energy          =    -760.0252436707733068 [Eh]
	-----------------------------------------------------------

  Dipole Moment: [D]
     X:    -0.2726      Y:     3.7167      Z:     1.0691     Total:     3.8770

*** Psi4 exiting successfully. Buy a developer a beer!
