                               Psi4 1.3.2 release

  ==> Input File <==

--------------------------------------------------------------------------
#psi4
#
memory 32 gb

molecule  {
0 1
  S       -1.4286255    -1.0645338     0.1430130
  O        1.4861710    -1.4617920    -0.3475990
  N        2.0488620     0.7112420     0.1011850
  C       -0.2734750     0.1140250    -0.0519740
  C        1.1480630    -0.2971330    -0.1085980
  C       -0.8491840     1.3674970    -0.1820640
  C       -2.2598870     1.3270920    -0.0933710
  C       -2.7341550     0.0450510     0.0925010
  C        3.4678020     0.4025420     0.1643440
  H       -0.2776640     2.2711280    -0.3728590
  H        1.7182220     1.5388600     0.5795510
  H       -2.9045110     2.1962980    -0.1738640
  H       -3.7641930    -0.2736150     0.1955190
  H        3.7134240    -0.2643480    -0.6614350
  H        3.7418120    -0.0946250     1.1012270
  H        4.0344840     1.3296500     0.0646150
units angstrom
no_reorient  #important for SAPT in psi4, default
symmetry c1  #important for SAPT in psi4, default
}

set PROPERTIES_ORIGIN ["COM"]
properties('MP2/aug-cc-pvtz', properties = ['dipole'])
--------------------------------------------------------------------------

    Molecular point group: c1
  Charge       = 0
  Multiplicity = 1
  Basis Set: AUG-CC-PVTZ
    Blend: AUG-CC-PVTZ
  Basis Set: (AUG-CC-PVTZ AUX)
    Blend: AUG-CC-PVTZ-JKFIT

    Orbital Energies [Eh]
    ---------------------

    Doubly Occupied:

       1A    -91.994024     2A    -20.524560     3A    -15.591496
       4A    -11.363844     5A    -11.277110     6A    -11.272278
       7A    -11.262124     8A    -11.259399     9A    -11.250650
      10A     -8.995208    11A     -6.676101    12A     -6.675583
      13A     -6.674811    14A     -1.379493    15A     -1.234099
      16A     -1.192519    17A     -1.024185    18A     -1.001040
      19A     -0.947876    20A     -0.833173    21A     -0.773648
      22A     -0.769316    23A     -0.720651    24A     -0.648301
      25A     -0.642943    26A     -0.627511    27A     -0.580168
      28A     -0.572272    29A     -0.561416    30A     -0.554523
      31A     -0.539108    32A     -0.513741    33A     -0.482850
      34A     -0.437875    35A     -0.400937    36A     -0.355408
      37A     -0.337277

  @DF-RHF Final Energy:  -758.26678798973069

   => Energetics <=

    Nuclear Repulsion Energy =            502.6551184616020578
    One-Electron Energy =               -2037.9487734966496646
    Two-Electron Energy =                 777.0268670453168625
    Total Energy =                       -758.2667879897306875
  Basis Set: (AUG-CC-PVTZ AUX)
    Blend: AUG-CC-PVTZ-RI
    Molecular point group: c1

    Geometry (in Angstrom), charge = 0, multiplicity = 1:

       Center              X                  Y                   Z               Mass
    ------------   -----------------  -----------------  -----------------  -----------------
         S           -1.393780341823    -1.027715289440     0.149975955461    31.972071174400
         O            1.521016158177    -1.424973489440    -0.340636044539    15.994914619570
         N            2.083707158177     0.748060510560     0.108147955461    14.003074004430
         C           -0.238629841823     0.150843510560    -0.045011044539    12.000000000000
         C            1.182908158177    -0.260314489440    -0.101635044539    12.000000000000
         C           -0.814338841823     1.404315510560    -0.175101044539    12.000000000000
         C           -2.225041841823     1.363910510560    -0.086408044539    12.000000000000
         C           -2.699309841823     0.081869510560     0.099463955461    12.000000000000
         C            3.502647158177     0.439360510560     0.171306955461    12.000000000000
         H           -0.242818841823     2.307946510560    -0.365896044539     1.007825032230
         H            1.753067158177     1.575678510560     0.586513955461     1.007825032230
         H           -2.869665841823     2.233116510560    -0.166901044539     1.007825032230
         H           -3.729347841823    -0.236796489440     0.202481955461     1.007825032230
         H            3.748269158177    -0.227529489440    -0.654472044539     1.007825032230
         H            3.776657158177    -0.057806489440     1.108189955461     1.007825032230
         H            4.069329158177     1.366468510560     0.071577955461     1.007825032230

  Basis Set: AUG-CC-PVTZ
    Blend: AUG-CC-PVTZ
  Basis Set: (AUG-CC-PVTZ AUX)
    Blend: AUG-CC-PVTZ-JKFIT
	 Reference Energy          =    -758.2667879897306875 [Eh]
	 Singles Energy            =      -0.0000000000000000 [Eh]
	 Same-Spin Energy          =      -0.4441933739562389 [Eh]
	 Opposite-Spin Energy      =      -1.3475749285877625 [Eh]
	 Correlation Energy        =      -1.7917683025440014 [Eh]
	 Total Energy              =    -760.0585562922747158 [Eh]

	 ================> DF-SCS-MP2 Energies <==================
	-----------------------------------------------------------
	 SCS Same-Spin Scale       =       0.3333333333333333 [-]
	 SCS Opposite-Spin Scale   =       1.2000000000000000 [-]
	 SCS Same-Spin Energy      =      -0.1480644579854130 [Eh]
	 SCS Opposite-Spin Energy  =      -1.6170899143053150 [Eh]
	 SCS Correlation Energy    =      -1.7651543722907279 [Eh]
	 SCS Total Energy          =    -760.0319423620213684 [Eh]
	-----------------------------------------------------------

  Dipole Moment: [D]
     X:    -0.3033      Y:     3.5928      Z:     1.0844     Total:     3.7651

*** Psi4 exiting successfully. Buy a developer a beer!
