                               Psi4 1.3.2 release

  ==> Input File <==

--------------------------------------------------------------------------
#psi4
#
memory 32 gb

molecule  {
0 1
  S       -1.5907995    -0.9774723     0.1399830
  O        1.4861710    -1.4617920    -0.3475990
  N        2.0488620     0.7112420     0.1011850
  C       -0.2734750     0.1140250    -0.0519740
  C        1.1480630    -0.2971330    -0.1085980
  C       -0.8491840     1.3674970    -0.1820640
  C       -2.2598870     1.3270920    -0.0933710
  C       -2.7341550     0.0450510     0.0925010
  C        3.4678020     0.4025420     0.1643440
  H       -0.2776640     2.2711280    -0.3728590
  H        1.7182220     1.5388600     0.5795510
  H       -2.9045110     2.1962980    -0.1738640
  H       -3.7641930    -0.2736150     0.1955190
  H        3.7134240    -0.2643480    -0.6614350
  H        3.7418120    -0.0946250     1.1012270
  H        4.0344840     1.3296500     0.0646150
units angstrom
no_reorient  #important for SAPT in psi4, default
symmetry c1  #important for SAPT in psi4, default
}

set PROPERTIES_ORIGIN ["COM"]
properties('MP2/aug-cc-pvtz', properties = ['dipole'])
--------------------------------------------------------------------------

    Molecular point group: c1
  Charge       = 0
  Multiplicity = 1
  Basis Set: AUG-CC-PVTZ
    Blend: AUG-CC-PVTZ
  Basis Set: (AUG-CC-PVTZ AUX)
    Blend: AUG-CC-PVTZ-JKFIT

    Orbital Energies [Eh]
    ---------------------

    Doubly Occupied:

       1A    -91.991156     2A    -20.521116     3A    -15.590549
       4A    -11.363571     5A    -11.271200     6A    -11.264978
       7A    -11.261522     8A    -11.260861     9A    -11.243686
      10A     -8.996636    11A     -6.678159    12A     -6.676666
      13A     -6.676071    14A     -1.375980    15A     -1.233362
      16A     -1.215137    17A     -1.038309    18A     -1.002163
      19A     -0.946826    20A     -0.832552    21A     -0.776163
      22A     -0.768037    23A     -0.723053    24A     -0.653427
      25A     -0.641900    26A     -0.627590    27A     -0.581257
      28A     -0.574368    29A     -0.566294    30A     -0.556226
      31A     -0.546463    32A     -0.522623    33A     -0.473508
      34A     -0.435271    35A     -0.399498    36A     -0.364820
      37A     -0.331230

  @DF-RHF Final Energy:  -758.24588562456927

   => Energetics <=

    Nuclear Repulsion Energy =            503.9573982358370472
    One-Electron Energy =               -2040.4421123440715746
    Two-Electron Energy =                 778.2388284836653156
    Total Energy =                       -758.2458856245692687
  Basis Set: (AUG-CC-PVTZ AUX)
    Blend: AUG-CC-PVTZ-RI
    Molecular point group: c1

    Geometry (in Angstrom), charge = 0, multiplicity = 1:

       Center              X                  Y                   Z               Mass
    ------------   -----------------  -----------------  -----------------  -----------------
         S           -1.519187493844    -0.960391706340     0.147632893869    31.972071174400
         O            1.557783006156    -1.444711406340    -0.339949106131    15.994914619570
         N            2.120474006156     0.728322593660     0.108834893869    14.003074004430
         C           -0.201862993844     0.131105593660    -0.044324106131    12.000000000000
         C            1.219675006156    -0.280052406340    -0.100948106131    12.000000000000
         C           -0.777571993844     1.384577593660    -0.174414106131    12.000000000000
         C           -2.188274993844     1.344172593660    -0.085721106131    12.000000000000
         C           -2.662542993844     0.062131593660     0.100150893869    12.000000000000
         C            3.539414006156     0.419622593660     0.171993893869    12.000000000000
         H           -0.206051993844     2.288208593660    -0.365209106131     1.007825032230
         H            1.789834006156     1.555940593660     0.587200893869     1.007825032230
         H           -2.832898993844     2.213378593660    -0.166214106131     1.007825032230
         H           -3.692580993844    -0.256534406340     0.203168893869     1.007825032230
         H            3.785036006156    -0.247267406340    -0.653785106131     1.007825032230
         H            3.813424006156    -0.077544406340     1.108876893869     1.007825032230
         H            4.106096006156     1.346730593660     0.072264893869     1.007825032230

  Basis Set: AUG-CC-PVTZ
    Blend: AUG-CC-PVTZ
  Basis Set: (AUG-CC-PVTZ AUX)
    Blend: AUG-CC-PVTZ-JKFIT
	 Reference Energy          =    -758.2458856245692687 [Eh]
	 Singles Energy            =      -0.0000000000000000 [Eh]
	 Same-Spin Energy          =      -0.4450722998280301 [Eh]
	 Opposite-Spin Energy      =      -1.3462158598433773 [Eh]
	 Correlation Energy        =      -1.7912881596714074 [Eh]
	 Total Energy              =    -760.0371737842406219 [Eh]

	 ================> DF-SCS-MP2 Energies <==================
	-----------------------------------------------------------
	 SCS Same-Spin Scale       =       0.3333333333333333 [-]
	 SCS Opposite-Spin Scale   =       1.2000000000000000 [-]
	 SCS Same-Spin Energy      =      -0.1483574332760100 [Eh]
	 SCS Opposite-Spin Energy  =      -1.6154590318120527 [Eh]
	 SCS Correlation Energy    =      -1.7638164650880628 [Eh]
	 SCS Total Energy          =    -760.0097020896573667 [Eh]
	-----------------------------------------------------------

  Dipole Moment: [D]
     X:    -0.4968      Y:     3.5610      Z:     1.1038     Total:     3.7611

*** Psi4 exiting successfully. Buy a developer a beer!
