                               Psi4 1.3.2 release

  ==> Input File <==

--------------------------------------------------------------------------
#psi4
#
memory 32 gb

molecule  {
0 1
  S       -1.5103384    -1.0662693     0.1495993
  O        1.4861710    -1.4617920    -0.3475990
  N        2.0488620     0.7112420     0.1011850
  C       -0.2734750     0.1140250    -0.0519740
  C        1.1480630    -0.2971330    -0.1085980
  C       -0.8491840     1.3674970    -0.1820640
  C       -2.2598870     1.3270920    -0.0933710
  C       -2.7341550     0.0450510     0.0925010
  C        3.4678020     0.4025420     0.1643440
  H       -0.2776640     2.2711280    -0.3728590
  H        1.7182220     1.5388600     0.5795510
  H       -2.9045110     2.1962980    -0.1738640
  H       -3.7641930    -0.2736150     0.1955190
  H        3.7134240    -0.2643480    -0.6614350
  H        3.7418120    -0.0946250     1.1012270
  H        4.0344840     1.3296500     0.0646150
units angstrom
no_reorient  #important for SAPT in psi4, default
symmetry c1  #important for SAPT in psi4, default
}

set PROPERTIES_ORIGIN ["COM"]
properties('MP2/aug-cc-pvtz', properties = ['dipole'])
--------------------------------------------------------------------------

    Molecular point group: c1
  Charge       = 0
  Multiplicity = 1
  Basis Set: AUG-CC-PVTZ
    Blend: AUG-CC-PVTZ
  Basis Set: (AUG-CC-PVTZ AUX)
    Blend: AUG-CC-PVTZ-JKFIT

    Orbital Energies [Eh]
    ---------------------

    Doubly Occupied:

       1A    -91.994921     2A    -20.522716     3A    -15.590780
       4A    -11.363024     5A    -11.275134     6A    -11.274740
       7A    -11.262149     8A    -11.261681     9A    -11.248485
      10A     -8.996169    11A     -6.677122    12A     -6.676499
      13A     -6.675794    14A     -1.377431    15A     -1.233234
      16A     -1.192746    17A     -1.023900    18A     -1.003536
      19A     -0.946577    20A     -0.833040    21A     -0.772025
      22A     -0.768955    23A     -0.722861    24A     -0.647592
      25A     -0.642033    26A     -0.626566    27A     -0.579495
      28A     -0.573511    29A     -0.559783    30A     -0.553379
      31A     -0.539158    32A     -0.515323    33A     -0.483464
      34A     -0.436373    35A     -0.400068    36A     -0.357730
      37A     -0.336020

  @DF-RHF Final Energy:  -758.26724735877235

   => Energetics <=

    Nuclear Repulsion Energy =            501.1226580232320202
    One-Electron Energy =               -2034.8917849215956721
    Two-Electron Energy =                 775.5018795395911866
    Total Energy =                       -758.2672473587723516
  Basis Set: (AUG-CC-PVTZ AUX)
    Blend: AUG-CC-PVTZ-RI
    Molecular point group: c1

    Geometry (in Angstrom), charge = 0, multiplicity = 1:

       Center              X                  Y                   Z               Mass
    ------------   -----------------  -----------------  -----------------  -----------------
         S           -1.456967918576    -1.029057330164     0.155069059937    31.972071174400
         O            1.539541481424    -1.424580030164    -0.342129240063    15.994914619570
         N            2.102232481424     0.748453969836     0.106654759937    14.003074004430
         C           -0.220104518576     0.151236969836    -0.046504240063    12.000000000000
         C            1.201433481424    -0.259921030164    -0.103128240063    12.000000000000
         C           -0.795813518576     1.404708969836    -0.176594240063    12.000000000000
         C           -2.206516518576     1.364303969836    -0.087901240063    12.000000000000
         C           -2.680784518576     0.082262969836     0.097970759937    12.000000000000
         C            3.521172481424     0.439753969836     0.169813759937    12.000000000000
         H           -0.224293518576     2.308339969836    -0.367389240063     1.007825032230
         H            1.771592481424     1.576071969836     0.585020759937     1.007825032230
         H           -2.851140518576     2.233509969836    -0.168394240063     1.007825032230
         H           -3.710822518576    -0.236403030164     0.200988759937     1.007825032230
         H            3.766794481424    -0.227136030164    -0.655965240063     1.007825032230
         H            3.795182481424    -0.057413030164     1.106696759937     1.007825032230
         H            4.087854481424     1.366861969836     0.070084759937     1.007825032230

  Basis Set: AUG-CC-PVTZ
    Blend: AUG-CC-PVTZ
  Basis Set: (AUG-CC-PVTZ AUX)
    Blend: AUG-CC-PVTZ-JKFIT
	 Reference Energy          =    -758.2672473587723516 [Eh]
	 Singles Energy            =      -0.0000000000000000 [Eh]
	 Same-Spin Energy          =      -0.4439126459873808 [Eh]
	 Opposite-Spin Energy      =      -1.3470373507958406 [Eh]
	 Correlation Energy        =      -1.7909499967832214 [Eh]
	 Total Energy              =    -760.0581973555555351 [Eh]

	 ================> DF-SCS-MP2 Energies <==================
	-----------------------------------------------------------
	 SCS Same-Spin Scale       =       0.3333333333333333 [-]
	 SCS Opposite-Spin Scale   =       1.2000000000000000 [-]
	 SCS Same-Spin Energy      =      -0.1479708819957936 [Eh]
	 SCS Opposite-Spin Energy  =      -1.6164448209550086 [Eh]
	 SCS Correlation Energy    =      -1.7644157029508023 [Eh]
	 SCS Total Energy          =    -760.0316630617231795 [Eh]
	-----------------------------------------------------------

  Dipole Moment: [D]
     X:    -0.3744      Y:     3.5921      Z:     1.0915     Total:     3.7729

*** Psi4 exiting successfully. Buy a developer a beer!
