                               Psi4 1.3.2 release

  ==> Input File <==

--------------------------------------------------------------------------
#psi4
#
memory 32 gb

molecule  {
0 1
  S       -1.4893529    -1.0877602     0.1502904
  O        1.4861710    -1.4617920    -0.3475990
  N        2.0488620     0.7112420     0.1011850
  C       -0.2734750     0.1140250    -0.0519740
  C        1.1480630    -0.2971330    -0.1085980
  C       -0.8491840     1.3674970    -0.1820640
  C       -2.2598870     1.3270920    -0.0933710
  C       -2.7341550     0.0450510     0.0925010
  C        3.4678020     0.4025420     0.1643440
  H       -0.2776640     2.2711280    -0.3728590
  H        1.7182220     1.5388600     0.5795510
  H       -2.9045110     2.1962980    -0.1738640
  H       -3.7641930    -0.2736150     0.1955190
  H        3.7134240    -0.2643480    -0.6614350
  H        3.7418120    -0.0946250     1.1012270
  H        4.0344840     1.3296500     0.0646150
units angstrom
no_reorient  #important for SAPT in psi4, default
symmetry c1  #important for SAPT in psi4, default
}

set PROPERTIES_ORIGIN ["COM"]
properties('MP2/aug-cc-pvtz', properties = ['dipole'])
--------------------------------------------------------------------------

    Molecular point group: c1
  Charge       = 0
  Multiplicity = 1
  Basis Set: AUG-CC-PVTZ
    Blend: AUG-CC-PVTZ
  Basis Set: (AUG-CC-PVTZ AUX)
    Blend: AUG-CC-PVTZ-JKFIT

    Orbital Energies [Eh]
    ---------------------

    Doubly Occupied:

       1A    -91.995601     2A    -20.523072     3A    -15.590809
       4A    -11.362854     5A    -11.277009     6A    -11.275992
       7A    -11.262452     8A    -11.261698     9A    -11.249681
      10A     -8.996048    11A     -6.676928    12A     -6.676370
      13A     -6.675672    14A     -1.377776    15A     -1.233270
      16A     -1.188274    17A     -1.021769    18A     -1.002593
      19A     -0.946430    20A     -0.833080    21A     -0.771398
      22A     -0.769215    23A     -0.722456    24A     -0.646824
      25A     -0.641895    26A     -0.626246    27A     -0.579424
      28A     -0.573435    29A     -0.558699    30A     -0.553079
      31A     -0.536257    32A     -0.513418    33A     -0.485073
      34A     -0.436573    35A     -0.400201    36A     -0.357091
      37A     -0.336219

  @DF-RHF Final Energy:  -758.26853288285429

   => Energetics <=

    Nuclear Repulsion Energy =            500.5122278423062880
    One-Electron Energy =               -2033.6917605071628259
    Two-Electron Energy =                 774.9109997820023636
    Total Energy =                       -758.2685328828542879
  Basis Set: (AUG-CC-PVTZ AUX)
    Blend: AUG-CC-PVTZ-RI
    Molecular point group: c1

    Geometry (in Angstrom), charge = 0, multiplicity = 1:

       Center              X                  Y                   Z               Mass
    ------------   -----------------  -----------------  -----------------  -----------------
         S           -1.440740090511    -1.045675977810     0.155603479035    31.972071174400
         O            1.534783809489    -1.419707777810    -0.342285920965    15.994914619570
         N            2.097474809489     0.753326222190     0.106498079035    14.003074004430
         C           -0.224862190511     0.156109222190    -0.046660920965    12.000000000000
         C            1.196675809489    -0.255048777810    -0.103284920965    12.000000000000
         C           -0.800571190511     1.409581222190    -0.176750920965    12.000000000000
         C           -2.211274190511     1.369176222190    -0.088057920965    12.000000000000
         C           -2.685542190511     0.087135222190     0.097814079035    12.000000000000
         C            3.516414809489     0.444626222190     0.169657079035    12.000000000000
         H           -0.229051190511     2.313212222190    -0.367545920965     1.007825032230
         H            1.766834809489     1.580944222190     0.584864079035     1.007825032230
         H           -2.855898190511     2.238382222190    -0.168550920965     1.007825032230
         H           -3.715580190511    -0.231530777810     0.200832079035     1.007825032230
         H            3.762036809489    -0.222263777810    -0.656121920965     1.007825032230
         H            3.790424809489    -0.052540777810     1.106540079035     1.007825032230
         H            4.083096809489     1.371734222190     0.069928079035     1.007825032230

  Basis Set: AUG-CC-PVTZ
    Blend: AUG-CC-PVTZ
  Basis Set: (AUG-CC-PVTZ AUX)
    Blend: AUG-CC-PVTZ-JKFIT
	 Reference Energy          =    -758.2685328828542879 [Eh]
	 Singles Energy            =      -0.0000000000000000 [Eh]
	 Same-Spin Energy          =      -0.4436855392785899 [Eh]
	 Opposite-Spin Energy      =      -1.3473754423188891 [Eh]
	 Correlation Energy        =      -1.7910609815974790 [Eh]
	 Total Energy              =    -760.0595938644518128 [Eh]

	 ================> DF-SCS-MP2 Energies <==================
	-----------------------------------------------------------
	 SCS Same-Spin Scale       =       0.3333333333333333 [-]
	 SCS Opposite-Spin Scale   =       1.2000000000000000 [-]
	 SCS Same-Spin Energy      =      -0.1478951797595300 [Eh]
	 SCS Opposite-Spin Energy  =      -1.6168505307826668 [Eh]
	 SCS Correlation Energy    =      -1.7647457105421969 [Eh]
	 SCS Total Energy          =    -760.0332785933965170 [Eh]
	-----------------------------------------------------------

  Dipole Moment: [D]
     X:    -0.3504      Y:     3.6032      Z:     1.0868     Total:     3.7798

*** Psi4 exiting successfully. Buy a developer a beer!
