                               Psi4 1.3.2 release

  ==> Input File <==

--------------------------------------------------------------------------
#psi4
#
memory 32 gb

molecule  {
0 1
  S       -1.4679970    -1.1088850     0.1509200
  O        1.4861710    -1.4617920    -0.3475990
  N        2.0488620     0.7112420     0.1011850
  C       -0.2734750     0.1140250    -0.0519740
  C        1.1480630    -0.2971330    -0.1085980
  C       -0.8491840     1.3674970    -0.1820640
  C       -2.2598870     1.3270920    -0.0933710
  C       -2.7341550     0.0450510     0.0925010
  C        3.4678020     0.4025420     0.1643440
  H       -0.3829078     2.1047269    -0.3377246
  H        1.7182220     1.5388600     0.5795510
  H       -2.9045110     2.1962980    -0.1738640
  H       -3.7641930    -0.2736150     0.1955190
  H        3.7134240    -0.2643480    -0.6614350
  H        3.7418120    -0.0946250     1.1012270
  H        4.0344840     1.3296500     0.0646150
units angstrom
no_reorient  #important for SAPT in psi4, default
symmetry c1  #important for SAPT in psi4, default
}

set PROPERTIES_ORIGIN ["COM"]
properties('MP2/aug-cc-pvtz', properties = ['dipole'])
--------------------------------------------------------------------------

    Molecular point group: c1
  Charge       = 0
  Multiplicity = 1
  Basis Set: AUG-CC-PVTZ
    Blend: AUG-CC-PVTZ
  Basis Set: (AUG-CC-PVTZ AUX)
    Blend: AUG-CC-PVTZ-JKFIT

    Orbital Energies [Eh]
    ---------------------

    Doubly Occupied:

       1A    -91.995328     2A    -20.523612     3A    -15.591534
       4A    -11.362831     5A    -11.278125     6A    -11.276151
       7A    -11.262073     8A    -11.249536     9A    -11.239442
      10A     -8.995090    11A     -6.675928    12A     -6.675374
      13A     -6.674716    14A     -1.378342    15A     -1.233923
      16A     -1.185099    17A     -1.023323    18A     -1.010289
      19A     -0.948024    20A     -0.839533    21A     -0.786368
      22A     -0.769563    23A     -0.743406    24A     -0.646898
      25A     -0.641561    26A     -0.626088    27A     -0.592361
      28A     -0.576001    29A     -0.558035    30A     -0.553226
      31A     -0.534350    32A     -0.511196    33A     -0.486778
      34A     -0.436878    35A     -0.400861    36A     -0.356554
      37A     -0.335276

  @DF-RHF Final Energy:  -758.23360750866766

   => Energetics <=

    Nuclear Repulsion Energy =            501.0949148423828206
    One-Electron Energy =               -2034.7097002801137933
    Two-Electron Energy =                 775.3811779290632558
    Total Energy =                       -758.2336075086676601
  Basis Set: (AUG-CC-PVTZ AUX)
    Blend: AUG-CC-PVTZ-RI
    Molecular point group: c1

    Geometry (in Angstrom), charge = 0, multiplicity = 1:

       Center              X                  Y                   Z               Mass
    ------------   -----------------  -----------------  -----------------  -----------------
         S           -1.423473718561    -1.060822349947     0.155839255183    31.972071174400
         O            1.530694281439    -1.413729349947    -0.342679744817    15.994914619570
         N            2.093385281439     0.759304650053     0.106104255183    14.003074004430
         C           -0.228951718561     0.162087650053    -0.047054744817    12.000000000000
         C            1.192586281439    -0.249070349947    -0.103678744817    12.000000000000
         C           -0.804660718561     1.415559650053    -0.177144744817    12.000000000000
         C           -2.215363718561     1.375154650053    -0.088451744817    12.000000000000
         C           -2.689631718561     0.093113650053     0.097420255183    12.000000000000
         C            3.512325281439     0.450604650053     0.169263255183    12.000000000000
         H           -0.338384518561     2.152789550053    -0.332805344817     1.007825032230
         H            1.762745281439     1.586922650053     0.584470255183     1.007825032230
         H           -2.859987718561     2.244360650053    -0.168944744817     1.007825032230
         H           -3.719669718561    -0.225552349947     0.200438255183     1.007825032230
         H            3.757947281439    -0.216285349947    -0.656515744817     1.007825032230
         H            3.786335281439    -0.046562349947     1.106146255183     1.007825032230
         H            4.079007281439     1.377712650053     0.069534255183     1.007825032230

  Basis Set: AUG-CC-PVTZ
    Blend: AUG-CC-PVTZ
  Basis Set: (AUG-CC-PVTZ AUX)
    Blend: AUG-CC-PVTZ-JKFIT
	 Reference Energy          =    -758.2336075086676601 [Eh]
	 Singles Energy            =      -0.0000000000000000 [Eh]
	 Same-Spin Energy          =      -0.4432111204507544 [Eh]
	 Opposite-Spin Energy      =      -1.3473817337513025 [Eh]
	 Correlation Energy        =      -1.7905928542020568 [Eh]
	 Total Energy              =    -760.0242003628696921 [Eh]

	 ================> DF-SCS-MP2 Energies <==================
	-----------------------------------------------------------
	 SCS Same-Spin Scale       =       0.3333333333333333 [-]
	 SCS Opposite-Spin Scale   =       1.2000000000000000 [-]
	 SCS Same-Spin Energy      =      -0.1477370401502515 [Eh]
	 SCS Opposite-Spin Energy  =      -1.6168580805015631 [Eh]
	 SCS Correlation Energy    =      -1.7645951206518147 [Eh]
	 SCS Total Energy          =    -759.9982026293195077 [Eh]
	-----------------------------------------------------------

  Dipole Moment: [D]
     X:    -0.2956      Y:     3.6231      Z:     1.0869     Total:     3.7941

*** Psi4 exiting successfully. Buy a developer a beer!
