                               Psi4 1.3.2 release

  ==> Input File <==

--------------------------------------------------------------------------
#psi4
#
memory 32 gb

molecule  {
0 1
  S       -1.4894111    -1.0878762     0.1492486
  O        1.4861710    -1.4617920    -0.3475990
  N        2.0488620     0.7112420     0.1011850
  C       -0.2734750     0.1140250    -0.0519740
  C        1.1480630    -0.2971330    -0.1085980
  C       -0.8491840     1.3674970    -0.1820640
  C       -2.2598870     1.3270920    -0.0933710
  C       -2.7341550     0.0450510     0.0925010
  C        3.4678020     0.4025420     0.1643440
  H       -0.2776640     2.2711280    -0.3728590
  H        1.7182220     1.5388600     0.5795510
  H       -2.9045110     2.1962980    -0.1738640
  H       -3.7641930    -0.2736150     0.1955190
  H        3.7134240    -0.2643480    -0.6614350
  H        3.7418120    -0.0946250     1.1012270
  H        4.0344840     1.3296500     0.0646150
units angstrom
no_reorient  #important for SAPT in psi4, default
symmetry c1  #important for SAPT in psi4, default
}

set PROPERTIES_ORIGIN ["COM"]
properties('MP2/aug-cc-pvtz', properties = ['dipole'])
--------------------------------------------------------------------------

    Molecular point group: c1
  Charge       = 0
  Multiplicity = 1
  Basis Set: AUG-CC-PVTZ
    Blend: AUG-CC-PVTZ
  Basis Set: (AUG-CC-PVTZ AUX)
    Blend: AUG-CC-PVTZ-JKFIT

    Orbital Energies [Eh]
    ---------------------

    Doubly Occupied:

       1A    -91.995599     2A    -20.523069     3A    -15.590808
       4A    -11.362853     5A    -11.277010     6A    -11.275990
       7A    -11.262455     8A    -11.261697     9A    -11.249680
      10A     -8.996046    11A     -6.676926    12A     -6.676368
      13A     -6.675670    14A     -1.377775    15A     -1.233269
      16A     -1.188274    17A     -1.021769    18A     -1.002592
      19A     -0.946430    20A     -0.833080    21A     -0.771398
      22A     -0.769214    23A     -0.722457    24A     -0.646826
      25A     -0.641892    26A     -0.626244    27A     -0.579423
      28A     -0.573439    29A     -0.558696    30A     -0.553079
      31A     -0.536257    32A     -0.513419    33A     -0.485073
      34A     -0.436570    35A     -0.400201    36A     -0.357089
      37A     -0.336219

  @DF-RHF Final Energy:  -758.26853249439887

   => Energetics <=

    Nuclear Repulsion Energy =            500.5126730424879042
    One-Electron Energy =               -2033.6926984777446705
    Two-Electron Energy =                 774.9114929408578973
    Total Energy =                       -758.2685324943988689
  Basis Set: (AUG-CC-PVTZ AUX)
    Blend: AUG-CC-PVTZ-RI
    Molecular point group: c1

    Geometry (in Angstrom), charge = 0, multiplicity = 1:

       Center              X                  Y                   Z               Mass
    ------------   -----------------  -----------------  -----------------  -----------------
         S           -1.440785095852    -1.045765679178     0.154797867957    31.972071174400
         O            1.534797004148    -1.419681479178    -0.342049732043    15.994914619570
         N            2.097488004148     0.753352520822     0.106734267957    14.003074004430
         C           -0.224848995852     0.156135520822    -0.046424732043    12.000000000000
         C            1.196689004148    -0.255022479178    -0.103048732043    12.000000000000
         C           -0.800557995852     1.409607520822    -0.176514732043    12.000000000000
         C           -2.211260995852     1.369202520822    -0.087821732043    12.000000000000
         C           -2.685528995852     0.087161520822     0.098050267957    12.000000000000
         C            3.516428004148     0.444652520822     0.169893267957    12.000000000000
         H           -0.229037995852     2.313238520822    -0.367309732043     1.007825032230
         H            1.766848004148     1.580970520822     0.585100267957     1.007825032230
         H           -2.855884995852     2.238408520822    -0.168314732043     1.007825032230
         H           -3.715566995852    -0.231504479178     0.201068267957     1.007825032230
         H            3.762050004148    -0.222237479178    -0.655885732043     1.007825032230
         H            3.790438004148    -0.052514479178     1.106776267957     1.007825032230
         H            4.083110004148     1.371760520822     0.070164267957     1.007825032230

  Basis Set: AUG-CC-PVTZ
    Blend: AUG-CC-PVTZ
  Basis Set: (AUG-CC-PVTZ AUX)
    Blend: AUG-CC-PVTZ-JKFIT
	 Reference Energy          =    -758.2685324943988689 [Eh]
	 Singles Energy            =      -0.0000000000000000 [Eh]
	 Same-Spin Energy          =      -0.4436856827797306 [Eh]
	 Opposite-Spin Energy      =      -1.3473753817685399 [Eh]
	 Correlation Energy        =      -1.7910610645482705 [Eh]
	 Total Energy              =    -760.0595935589470855 [Eh]

	 ================> DF-SCS-MP2 Energies <==================
	-----------------------------------------------------------
	 SCS Same-Spin Scale       =       0.3333333333333333 [-]
	 SCS Opposite-Spin Scale   =       1.2000000000000000 [-]
	 SCS Same-Spin Energy      =      -0.1478952275932435 [Eh]
	 SCS Opposite-Spin Energy  =      -1.6168504581222478 [Eh]
	 SCS Correlation Energy    =      -1.7647456857154913 [Eh]
	 SCS Total Energy          =    -760.0332781801143938 [Eh]
	-----------------------------------------------------------

  Dipole Moment: [D]
     X:    -0.3505      Y:     3.6031      Z:     1.0860     Total:     3.7795

*** Psi4 exiting successfully. Buy a developer a beer!
