                               Psi4 1.3.2 release

  ==> Input File <==

--------------------------------------------------------------------------
#psi4
#
memory 32 gb

molecule  {
0 1
  S       -1.4679970    -1.1088850     0.1509200
  O        1.4861710    -1.4617920    -0.3475990
  N        2.0488620     0.7112420     0.1011850
  C       -0.2734750     0.1140250    -0.0519740
  C        1.1480630    -0.2971330    -0.1085980
  C       -0.8484926     1.3430476    -0.1787714
  C       -2.2598870     1.3270920    -0.0933710
  C       -2.7341550     0.0450510     0.0925010
  C        3.4678020     0.4025420     0.1643440
  H       -0.2776640     2.2711280    -0.3728590
  H        1.7182220     1.5388600     0.5795510
  H       -2.9045110     2.1962980    -0.1738640
  H       -3.7641930    -0.2736150     0.1955190
  H        3.7134240    -0.2643480    -0.6614350
  H        3.7418120    -0.0946250     1.1012270
  H        4.0344840     1.3296500     0.0646150
units angstrom
no_reorient  #important for SAPT in psi4, default
symmetry c1  #important for SAPT in psi4, default
}

set PROPERTIES_ORIGIN ["COM"]
properties('MP2/aug-cc-pvtz', properties = ['dipole'])
--------------------------------------------------------------------------

    Molecular point group: c1
  Charge       = 0
  Multiplicity = 1
  Basis Set: AUG-CC-PVTZ
    Blend: AUG-CC-PVTZ
  Basis Set: (AUG-CC-PVTZ AUX)
    Blend: AUG-CC-PVTZ-JKFIT

    Orbital Energies [Eh]
    ---------------------

    Doubly Occupied:

       1A    -91.994642     2A    -20.523871     3A    -15.591065
       4A    -11.363165     5A    -11.279267     6A    -11.274263
       7A    -11.261859     8A    -11.261729     9A    -11.250366
      10A     -8.994535    11A     -6.675372    12A     -6.674832
      13A     -6.674123    14A     -1.378510    15A     -1.233659
      16A     -1.187023    17A     -1.022460    18A     -0.999627
      19A     -0.947200    20A     -0.832819    21A     -0.771959
      22A     -0.769205    23A     -0.720284    24A     -0.646871
      25A     -0.643005    26A     -0.626456    27A     -0.581375
      28A     -0.568933    29A     -0.558428    30A     -0.553169
      31A     -0.533248    32A     -0.512225    33A     -0.485005
      34A     -0.437227    35A     -0.400515    36A     -0.357031
      37A     -0.338199

  @DF-RHF Final Energy:  -758.26872641903424

   => Energetics <=

    Nuclear Repulsion Energy =            500.4490456442836148
    One-Electron Energy =               -2033.5884965601596832
    Two-Electron Energy =                 774.8707244968418308
    Total Energy =                       -758.2687264190342376
  Basis Set: (AUG-CC-PVTZ AUX)
    Blend: AUG-CC-PVTZ-RI
    Molecular point group: c1

    Geometry (in Angstrom), charge = 0, multiplicity = 1:

       Center              X                  Y                   Z               Mass
    ------------   -----------------  -----------------  -----------------  -----------------
         S           -1.424284668889    -1.059931091283     0.155810169014    31.972071174400
         O            1.529883331111    -1.412838091283    -0.342708830986    15.994914619570
         N            2.092574331111     0.760195908717     0.106075169014    14.003074004430
         C           -0.229762668889     0.162978908717    -0.047083830986    12.000000000000
         C            1.191775331111    -0.248179091283    -0.103707830986    12.000000000000
         C           -0.804780268889     1.392001508717    -0.173881230986    12.000000000000
         C           -2.216174668889     1.376045908717    -0.088480830986    12.000000000000
         C           -2.690442668889     0.094004908717     0.097391169014    12.000000000000
         C            3.511514331111     0.451495908717     0.169234169014    12.000000000000
         H           -0.233951668889     2.320081908717    -0.367968830986     1.007825032230
         H            1.761934331111     1.587813908717     0.584441169014     1.007825032230
         H           -2.860798668889     2.245251908717    -0.168973830986     1.007825032230
         H           -3.720480668889    -0.224661091283     0.200409169014     1.007825032230
         H            3.757136331111    -0.215394091283    -0.656544830986     1.007825032230
         H            3.785524331111    -0.045671091283     1.106117169014     1.007825032230
         H            4.078196331111     1.378603908717     0.069505169014     1.007825032230

  Basis Set: AUG-CC-PVTZ
    Blend: AUG-CC-PVTZ
  Basis Set: (AUG-CC-PVTZ AUX)
    Blend: AUG-CC-PVTZ-JKFIT
	 Reference Energy          =    -758.2687264190342376 [Eh]
	 Singles Energy            =      -0.0000000000000000 [Eh]
	 Same-Spin Energy          =      -0.4431516281861874 [Eh]
	 Opposite-Spin Energy      =      -1.3472727458888316 [Eh]
	 Correlation Energy        =      -1.7904243740750190 [Eh]
	 Total Energy              =    -760.0591507931092110 [Eh]

	 ================> DF-SCS-MP2 Energies <==================
	-----------------------------------------------------------
	 SCS Same-Spin Scale       =       0.3333333333333333 [-]
	 SCS Opposite-Spin Scale   =       1.2000000000000000 [-]
	 SCS Same-Spin Energy      =      -0.1477172093953958 [Eh]
	 SCS Opposite-Spin Energy  =      -1.6167272950665978 [Eh]
	 SCS Correlation Energy    =      -1.7644445044619936 [Eh]
	 SCS Total Energy          =    -760.0331709234961863 [Eh]
	-----------------------------------------------------------

  Dipole Moment: [D]
     X:    -0.3148      Y:     3.6386      Z:     1.0800     Total:     3.8085

*** Psi4 exiting successfully. Buy a developer a beer!
