                               Psi4 1.3.2 release

  ==> Input File <==

--------------------------------------------------------------------------
#psi4
#
memory 32 gb

molecule  {
0 1
  S       -1.4679970    -1.1088850     0.1509200
  O        1.4861710    -1.4617920    -0.3475990
  N        2.0488620     0.7112420     0.1011850
  C       -0.2954314     0.1045445    -0.0484028
  C        1.1480630    -0.2971330    -0.1085980
  C       -0.8491840     1.3674970    -0.1820640
  C       -2.2598870     1.3270920    -0.0933710
  C       -2.7341550     0.0450510     0.0925010
  C        3.4678020     0.4025420     0.1643440
  H       -0.2776640     2.2711280    -0.3728590
  H        1.7182220     1.5388600     0.5795510
  H       -2.9045110     2.1962980    -0.1738640
  H       -3.7641930    -0.2736150     0.1955190
  H        3.7134240    -0.2643480    -0.6614350
  H        3.7418120    -0.0946250     1.1012270
  H        4.0344840     1.3296500     0.0646150
units angstrom
no_reorient  #important for SAPT in psi4, default
symmetry c1  #important for SAPT in psi4, default
}

set PROPERTIES_ORIGIN ["COM"]
properties('MP2/aug-cc-pvtz', properties = ['dipole'])
--------------------------------------------------------------------------

    Molecular point group: c1
  Charge       = 0
  Multiplicity = 1
  Basis Set: AUG-CC-PVTZ
    Blend: AUG-CC-PVTZ
  Basis Set: (AUG-CC-PVTZ AUX)
    Blend: AUG-CC-PVTZ-JKFIT

    Orbital Energies [Eh]
    ---------------------

    Doubly Occupied:

       1A    -91.996449     2A    -20.523682     3A    -15.591449
       4A    -11.363845     5A    -11.277247     6A    -11.276471
       7A    -11.262106     8A    -11.260737     9A    -11.250321
      10A     -8.996606    11A     -6.677463    12A     -6.676909
      13A     -6.676201    14A     -1.377958    15A     -1.233230
      16A     -1.186516    17A     -1.017746    18A     -1.002589
      19A     -0.946407    20A     -0.829601    21A     -0.770944
      22A     -0.768854    23A     -0.722304    24A     -0.646170
      25A     -0.641291    26A     -0.625618    27A     -0.578175
      28A     -0.571472    29A     -0.558123    30A     -0.553142
      31A     -0.535543    32A     -0.512527    33A     -0.488867
      34A     -0.435832    35A     -0.400454    36A     -0.357028
      37A     -0.335388

  @DF-RHF Final Energy:  -758.26818825034820

   => Energetics <=

    Nuclear Repulsion Energy =            500.1008787180525701
    One-Electron Energy =               -2032.8876023613954658
    Two-Electron Energy =                 774.5185353929946359
    Total Energy =                       -758.2681882503482029
  Basis Set: (AUG-CC-PVTZ AUX)
    Blend: AUG-CC-PVTZ-RI
    Molecular point group: c1

    Geometry (in Angstrom), charge = 0, multiplicity = 1:

       Center              X                  Y                   Z               Mass
    ------------   -----------------  -----------------  -----------------  -----------------
         S           -1.422357535984    -1.061204815872     0.155786462551    31.972071174400
         O            1.531810464016    -1.414111815872    -0.342732537449    15.994914619570
         N            2.094501464016     0.758922184128     0.106051462551    14.003074004430
         C           -0.249791935984     0.152224684128    -0.043536337449    12.000000000000
         C            1.193702464016    -0.249452815872    -0.103731537449    12.000000000000
         C           -0.803544535984     1.415177184128    -0.177197537449    12.000000000000
         C           -2.214247535984     1.374772184128    -0.088504537449    12.000000000000
         C           -2.688515535984     0.092731184128     0.097367462551    12.000000000000
         C            3.513441464016     0.450222184128     0.169210462551    12.000000000000
         H           -0.232024535984     2.318808184128    -0.367992537449     1.007825032230
         H            1.763861464016     1.586540184128     0.584417462551     1.007825032230
         H           -2.858871535984     2.243978184128    -0.168997537449     1.007825032230
         H           -3.718553535984    -0.225934815872     0.200385462551     1.007825032230
         H            3.759063464016    -0.216667815872    -0.656568537449     1.007825032230
         H            3.787451464016    -0.046944815872     1.106093462551     1.007825032230
         H            4.080123464016     1.377330184128     0.069481462551     1.007825032230

  Basis Set: AUG-CC-PVTZ
    Blend: AUG-CC-PVTZ
  Basis Set: (AUG-CC-PVTZ AUX)
    Blend: AUG-CC-PVTZ-JKFIT
	 Reference Energy          =    -758.2681882503482029 [Eh]
	 Singles Energy            =      -0.0000000000000000 [Eh]
	 Same-Spin Energy          =      -0.4434862046825265 [Eh]
	 Opposite-Spin Energy      =      -1.3475733141610244 [Eh]
	 Correlation Energy        =      -1.7910595188435510 [Eh]
	 Total Energy              =    -760.0592477691917566 [Eh]

	 ================> DF-SCS-MP2 Energies <==================
	-----------------------------------------------------------
	 SCS Same-Spin Scale       =       0.3333333333333333 [-]
	 SCS Opposite-Spin Scale   =       1.2000000000000000 [-]
	 SCS Same-Spin Energy      =      -0.1478287348941755 [Eh]
	 SCS Opposite-Spin Energy  =      -1.6170879769932294 [Eh]
	 SCS Correlation Energy    =      -1.7649167118874050 [Eh]
	 SCS Total Energy          =    -760.0331049622355977 [Eh]
	-----------------------------------------------------------

  Dipole Moment: [D]
     X:    -0.2919      Y:     3.5809      Z:     1.0857     Total:     3.7533

*** Psi4 exiting successfully. Buy a developer a beer!
