                               Psi4 1.4a3.dev225

  ==> Input File <==

--------------------------------------------------------------------------
#psi4
#
memory 32 gb

molecule  {
0 1
  S       -1.4679970    -1.1088850     0.1509200
  O        1.4861710    -1.4617920    -0.3475990
  N        2.0488620     0.7112420     0.1011850
  C       -0.2734750     0.1140250    -0.0519740
  C        1.1480630    -0.2971330    -0.1085980
  C       -0.8491840     1.3674970    -0.1820640
  C       -2.2598870     1.3270920    -0.0933710
  C       -2.7193816     0.0315870     0.0931826
  C        3.4678020     0.4025420     0.1643440
  H       -0.2776640     2.2711280    -0.3728590
  H        1.7182220     1.5388600     0.5795510
  H       -2.9045110     2.1962980    -0.1738640
  H       -3.7641930    -0.2736150     0.1955190
  H        3.7134240    -0.2643480    -0.6614350
  H        3.7418120    -0.0946250     1.1012270
  H        4.0344840     1.3296500     0.0646150
units angstrom
no_reorient  #important for SAPT in psi4, default
symmetry c1  #important for SAPT in psi4, default
}

set PROPERTIES_ORIGIN ["COM"]
properties('MP2/aug-cc-pvtz', properties = ['dipole'])
--------------------------------------------------------------------------

    Molecular point group: c1
  Charge       = 0
  Multiplicity = 1
  Basis Set: AUG-CC-PVTZ
    Blend: AUG-CC-PVTZ
  Basis Set: (AUG-CC-PVTZ AUX)
    Blend: AUG-CC-PVTZ-JKFIT

    Orbital Energies [Eh]
    ---------------------

    Doubly Occupied:

       1A    -91.997208     2A    -20.522877     3A    -15.590441
       4A    -11.362219     5A    -11.279510     6A    -11.275664
       7A    -11.262621     8A    -11.261468     9A    -11.250853
      10A     -8.997272    11A     -6.678135    12A     -6.677551
      13A     -6.676876    14A     -1.377694    15A     -1.232955
      16A     -1.185839    17A     -1.019465    18A     -1.003336
      19A     -0.945346    20A     -0.832178    21A     -0.770244
      22A     -0.768561    23A     -0.722106    24A     -0.645806
      25A     -0.641395    26A     -0.625459    27A     -0.578769
      28A     -0.569821    29A     -0.558267    30A     -0.552567
      31A     -0.535397    32A     -0.512217    33A     -0.488591
      34A     -0.436368    35A     -0.400095    36A     -0.357819
      37A     -0.334570

  @DF-RHF Final Energy:  -758.26788453471386

   => Energetics <=

    Nuclear Repulsion Energy =            500.3025188312602722
    One-Electron Energy =               -2033.2856847255998218
    Two-Electron Energy =                 774.7152813596255783
    Total Energy =                       -758.2678845347138576
  Basis Set: (AUG-CC-PVTZ AUX)
    Blend: AUG-CC-PVTZ-RI
    Molecular point group: c1

    Geometry (in Angstrom), charge = 0, multiplicity = 1:

       Center              X                  Y                   Z               Mass
    ------------   -----------------  -----------------  -----------------  -----------------
         S           -1.425482925919    -1.060865854298     0.156032342647    31.972071174400
         O            1.528685074081    -1.413772854298    -0.342486657353    15.994914619570
         N            2.091376074081     0.759261145702     0.106297342647    14.003074004430
         C           -0.230960925919     0.162044145702    -0.046861657353    12.000000000000
         C            1.190577074081    -0.249113854298    -0.103485657353    12.000000000000
         C           -0.806669925919     1.415516145702    -0.176951657353    12.000000000000
         C           -2.217372925919     1.375111145702    -0.088258657353    12.000000000000
         C           -2.676867525919     0.079606145702     0.098294942647    12.000000000000
         C            3.510316074081     0.450561145702     0.169456342647    12.000000000000
         H           -0.235149925919     2.319147145702    -0.367746657353     1.007825032230
         H            1.760736074081     1.586879145702     0.584663342647     1.007825032230
         H           -2.861996925919     2.244317145702    -0.168751657353     1.007825032230
         H           -3.721678925919    -0.225595854298     0.200631342647     1.007825032230
         H            3.755938074081    -0.216328854298    -0.656322657353     1.007825032230
         H            3.784326074081    -0.046605854298     1.106339342647     1.007825032230
         H            4.076998074081     1.377669145702     0.069727342647     1.007825032230

  Basis Set: AUG-CC-PVTZ
    Blend: AUG-CC-PVTZ
  Basis Set: (AUG-CC-PVTZ AUX)
    Blend: AUG-CC-PVTZ-JKFIT
	 Reference Energy          =    -758.2678845347138576 [Eh]
	 Singles Energy            =      -0.0000000000000000 [Eh]
	 Same-Spin Energy          =      -0.4437621535961483 [Eh]
	 Opposite-Spin Energy      =      -1.3478236444612781 [Eh]
	 Correlation Energy        =      -1.7915857980574263 [Eh]
	 Total Energy              =    -760.0594703327712978 [Eh]

	 ================> DF-SCS-MP2 Energies <==================
	-----------------------------------------------------------
	 SCS Same-Spin Scale       =       0.3333333333333333 [-]
	 SCS Opposite-Spin Scale   =       1.2000000000000000 [-]
	 SCS Same-Spin Energy      =      -0.1479207178653827 [Eh]
	 SCS Opposite-Spin Energy  =      -1.6173883733535337 [Eh]
	 SCS Correlation Energy    =      -1.7653090912189164 [Eh]
	 SCS Total Energy          =    -760.0331936259327676 [Eh]
	-----------------------------------------------------------

  Dipole Moment: [D]
     X:    -0.3384      Y:     3.5928      Z:     1.0852     Total:     3.7683

*** Psi4 exiting successfully. Buy a developer a beer!
