                               Psi4 1.3.2 release

  ==> Input File <==

--------------------------------------------------------------------------
#psi4
#
memory 32 gb

molecule  {
0 1
  S       -1.4679970    -1.1088850     0.1509200
  O        1.4861710    -1.4617920    -0.3475990
  N        2.0488620     0.7112420     0.1011850
  C       -0.2734750     0.1140250    -0.0519740
  C        1.1480630    -0.2971330    -0.1085980
  C       -0.8491840     1.3674970    -0.1820640
  C       -2.2464137     1.1817586    -0.0687842
  C       -2.7341550     0.0450510     0.0925010
  C        3.4678020     0.4025420     0.1643440
  H       -0.2776640     2.2711280    -0.3728590
  H        1.7182220     1.5388600     0.5795510
  H       -2.9045110     2.1962980    -0.1738640
  H       -3.7641930    -0.2736150     0.1955190
  H        3.7134240    -0.2643480    -0.6614350
  H        3.7418120    -0.0946250     1.1012270
  H        4.0344840     1.3296500     0.0646150
units angstrom
no_reorient  #important for SAPT in psi4, default
symmetry c1  #important for SAPT in psi4, default
}

set PROPERTIES_ORIGIN ["COM"]
properties('MP2/aug-cc-pvtz', properties = ['dipole'])
--------------------------------------------------------------------------

    Molecular point group: c1
  Charge       = 0
  Multiplicity = 1
  Basis Set: AUG-CC-PVTZ
    Blend: AUG-CC-PVTZ
  Basis Set: (AUG-CC-PVTZ AUX)
    Blend: AUG-CC-PVTZ-JKFIT

    Orbital Energies [Eh]
    ---------------------

    Doubly Occupied:

       1A    -91.987261     2A    -20.525501     3A    -15.592862
       4A    -11.363684     5A    -11.280539     6A    -11.263000
       7A    -11.261973     8A    -11.258818     9A    -11.245169
      10A     -8.988025    11A     -6.668868    12A     -6.668394
      13A     -6.667503    14A     -1.379789    15A     -1.235316
      16A     -1.203424    17A     -1.036695    18A     -0.993439
      19A     -0.953109    20A     -0.840360    21A     -0.772927
      22A     -0.760510    23A     -0.718935    24A     -0.648352
      25A     -0.634370    26A     -0.628136    27A     -0.607197
      28A     -0.568546    29A     -0.561836    30A     -0.553292
      31A     -0.524218    32A     -0.511441    33A     -0.473273
      34A     -0.434238    35A     -0.401546    36A     -0.359405
      37A     -0.348749

  @DF-RHF Final Energy:  -758.24025180251863

   => Energetics <=

    Nuclear Repulsion Energy =            502.8774940985053377
    One-Electron Energy =               -2038.3940891552163066
    Two-Electron Energy =                 777.2763432541922839
    Total Energy =                       -758.2402518025186282
  Basis Set: (AUG-CC-PVTZ AUX)
    Blend: AUG-CC-PVTZ-RI
    Molecular point group: c1

    Geometry (in Angstrom), charge = 0, multiplicity = 1:

       Center              X                  Y                   Z               Mass
    ------------   -----------------  -----------------  -----------------  -----------------
         S           -1.425372298596    -1.049644903040     0.153998215822    31.972071174400
         O            1.528795701404    -1.402551903040    -0.344520784178    15.994914619570
         N            2.091486701404     0.770482096960     0.104263215822    14.003074004430
         C           -0.230850298596     0.173265096960    -0.048895784178    12.000000000000
         C            1.190687701404    -0.237892903040    -0.105519784178    12.000000000000
         C           -0.806559298596     1.426737096960    -0.178985784178    12.000000000000
         C           -2.203788998596     1.240998696960    -0.065705984178    12.000000000000
         C           -2.691530298596     0.104291096960     0.095579215822    12.000000000000
         C            3.510426701404     0.461782096960     0.167422215822    12.000000000000
         H           -0.235039298596     2.330368096960    -0.369780784178     1.007825032230
         H            1.760846701404     1.598100096960     0.582629215822     1.007825032230
         H           -2.861886298596     2.255538096960    -0.170785784178     1.007825032230
         H           -3.721568298596    -0.214374903040     0.198597215822     1.007825032230
         H            3.756048701404    -0.205107903040    -0.658356784178     1.007825032230
         H            3.784436701404    -0.035384903040     1.104305215822     1.007825032230
         H            4.077108701404     1.388890096960     0.067693215822     1.007825032230

  Basis Set: AUG-CC-PVTZ
    Blend: AUG-CC-PVTZ
  Basis Set: (AUG-CC-PVTZ AUX)
    Blend: AUG-CC-PVTZ-JKFIT
	 Reference Energy          =    -758.2402518025186282 [Eh]
	 Singles Energy            =      -0.0000000000000000 [Eh]
	 Same-Spin Energy          =      -0.4422878761223373 [Eh]
	 Opposite-Spin Energy      =      -1.3461771035352945 [Eh]
	 Correlation Energy        =      -1.7884649796576317 [Eh]
	 Total Energy              =    -760.0287167821762750 [Eh]

	 ================> DF-SCS-MP2 Energies <==================
	-----------------------------------------------------------
	 SCS Same-Spin Scale       =       0.3333333333333333 [-]
	 SCS Opposite-Spin Scale   =       1.2000000000000000 [-]
	 SCS Same-Spin Energy      =      -0.1474292920407791 [Eh]
	 SCS Opposite-Spin Energy  =      -1.6154125242423534 [Eh]
	 SCS Correlation Energy    =      -1.7628418162831325 [Eh]
	 SCS Total Energy          =    -760.0030936188018131 [Eh]
	-----------------------------------------------------------

  Dipole Moment: [D]
     X:    -0.2443      Y:     3.6465      Z:     1.0698     Total:     3.8080

*** Psi4 exiting successfully. Buy a developer a beer!
