                               Psi4 1.4a3.dev225

  ==> Input File <==

--------------------------------------------------------------------------
#psi4
#
memory 32 gb

molecule  {
0 1
  S       -1.4679970    -1.1088850     0.1509200
  O        1.4861710    -1.4617920    -0.3475990
  N        2.0488620     0.7112420     0.1011850
  C       -0.2734750     0.1140250    -0.0519740
  C        1.1480630    -0.2971330    -0.1085980
  C       -0.8699605     1.4127330    -0.1867588
  C       -2.2598870     1.3270920    -0.0933710
  C       -2.7341550     0.0450510     0.0925010
  C        3.4678020     0.4025420     0.1643440
  H       -0.2776640     2.2711280    -0.3728590
  H        1.7182220     1.5388600     0.5795510
  H       -2.9045110     2.1962980    -0.1738640
  H       -3.7641930    -0.2736150     0.1955190
  H        3.7134240    -0.2643480    -0.6614350
  H        3.7418120    -0.0946250     1.1012270
  H        4.0344840     1.3296500     0.0646150
units angstrom
no_reorient  #important for SAPT in psi4, default
symmetry c1  #important for SAPT in psi4, default
}

set PROPERTIES_ORIGIN ["COM"]
properties('MP2/aug-cc-pvtz', properties = ['dipole'])
--------------------------------------------------------------------------

    Molecular point group: c1
  Charge       = 0
  Multiplicity = 1
  Basis Set: AUG-CC-PVTZ
    Blend: AUG-CC-PVTZ
  Basis Set: (AUG-CC-PVTZ AUX)
    Blend: AUG-CC-PVTZ-JKFIT

    Orbital Energies [Eh]
    ---------------------

    Doubly Occupied:

       1A    -92.000023     2A    -20.522432     3A    -15.590318
       4A    -11.361988     5A    -11.281125     6A    -11.279347
       7A    -11.264414     8A    -11.261347     9A    -11.250401
      10A     -8.999353    11A     -6.680154    12A     -6.679605
      13A     -6.679016    14A     -1.377294    15A     -1.232543
      16A     -1.180924    17A     -1.017244    18A     -1.004545
      19A     -0.944282    20A     -0.833752    21A     -0.770958
      22A     -0.769082    23A     -0.722467    24A     -0.645768
      25A     -0.639702    26A     -0.624996    27A     -0.585522
      28A     -0.573780    29A     -0.555958    30A     -0.552347
      31A     -0.530812    32A     -0.510955    33A     -0.487780
      34A     -0.435856    35A     -0.399932    36A     -0.359403
      37A     -0.329480

  @DF-RHF Final Energy:  -758.26304129720779

   => Energetics <=

    Nuclear Repulsion Energy =            499.0619882944567394
    One-Electron Energy =               -2030.7802502036361147
    Two-Electron Energy =                 773.4552206119715265
    Total Energy =                       -758.2630412972077920
  Basis Set: (AUG-CC-PVTZ AUX)
    Blend: AUG-CC-PVTZ-RI
    Molecular point group: c1

    Geometry (in Angstrom), charge = 0, multiplicity = 1:

       Center              X                  Y                   Z               Mass
    ------------   -----------------  -----------------  -----------------  -----------------
         S           -1.422457935321    -1.065860719209     0.156489828025    31.972071174400
         O            1.531710064679    -1.418767719209    -0.342029171975    15.994914619570
         N            2.094401064679     0.754266280791     0.106754828025    14.003074004430
         C           -0.227935935321     0.157049280791    -0.046404171975    12.000000000000
         C            1.193602064679    -0.254108719209    -0.103028171975    12.000000000000
         C           -0.824421435321     1.455757280791    -0.181188971975    12.000000000000
         C           -2.214347935321     1.370116280791    -0.087801171975    12.000000000000
         C           -2.688615935321     0.088075280791     0.098070828025    12.000000000000
         C            3.513341064679     0.445566280791     0.169913828025    12.000000000000
         H           -0.232124935321     2.314152280791    -0.367289171975     1.007825032230
         H            1.763761064679     1.581884280791     0.585120828025     1.007825032230
         H           -2.858971935321     2.239322280791    -0.168294171975     1.007825032230
         H           -3.718653935321    -0.230590719209     0.201088828025     1.007825032230
         H            3.758963064679    -0.221323719209    -0.655865171975     1.007825032230
         H            3.787351064679    -0.051600719209     1.106796828025     1.007825032230
         H            4.080023064679     1.372674280791     0.070184828025     1.007825032230

  Basis Set: AUG-CC-PVTZ
    Blend: AUG-CC-PVTZ
  Basis Set: (AUG-CC-PVTZ AUX)
    Blend: AUG-CC-PVTZ-JKFIT
	 Reference Energy          =    -758.2630412972077920 [Eh]
	 Singles Energy            =      -0.0000000000000000 [Eh]
	 Same-Spin Energy          =      -0.4446619302009137 [Eh]
	 Opposite-Spin Energy      =      -1.3492744012412554 [Eh]
	 Correlation Energy        =      -1.7939363314421692 [Eh]
	 Total Energy              =    -760.0569776286499746 [Eh]

	 ================> DF-SCS-MP2 Energies <==================
	-----------------------------------------------------------
	 SCS Same-Spin Scale       =       0.3333333333333333 [-]
	 SCS Opposite-Spin Scale   =       1.2000000000000000 [-]
	 SCS Same-Spin Energy      =      -0.1482206434003046 [Eh]
	 SCS Opposite-Spin Energy  =      -1.6191292814895064 [Eh]
	 SCS Correlation Energy    =      -1.7673499248898110 [Eh]
	 SCS Total Energy          =    -760.0303912220975917 [Eh]
	-----------------------------------------------------------

  Dipole Moment: [D]
     X:    -0.3580      Y:     3.5655      Z:     1.0880     Total:     3.7449

*** Psi4 exiting successfully. Buy a developer a beer!
