                               Psi4 1.3.2 release

  ==> Input File <==

--------------------------------------------------------------------------
#psi4
#
memory 32 gb

molecule  {
0 1
  S       -1.5951660    -1.2332958     0.1741758
  O        1.4861710    -1.4617920    -0.3475990
  N        2.0488620     0.7112420     0.1011850
  C       -0.2734750     0.1140250    -0.0519740
  C        1.1480630    -0.2971330    -0.1085980
  C       -0.8491840     1.3674970    -0.1820640
  C       -2.2598870     1.3270920    -0.0933710
  C       -2.7341550     0.0450510     0.0925010
  C        3.4678020     0.4025420     0.1643440
  H       -0.2776640     2.2711280    -0.3728590
  H        1.7182220     1.5388600     0.5795510
  H       -2.9045110     2.1962980    -0.1738640
  H       -3.7641930    -0.2736150     0.1955190
  H        3.7134240    -0.2643480    -0.6614350
  H        3.7418120    -0.0946250     1.1012270
  H        4.0344840     1.3296500     0.0646150
units angstrom
no_reorient  #important for SAPT in psi4, default
symmetry c1  #important for SAPT in psi4, default
}

set PROPERTIES_ORIGIN ["COM"]
properties('MP2/aug-cc-pvtz', properties = ['dipole'])
--------------------------------------------------------------------------

    Molecular point group: c1
  Charge       = 0
  Multiplicity = 1
  Basis Set: AUG-CC-PVTZ
    Blend: AUG-CC-PVTZ
  Basis Set: (AUG-CC-PVTZ AUX)
    Blend: AUG-CC-PVTZ-JKFIT

    Orbital Energies [Eh]
    ---------------------

    Doubly Occupied:

       1A    -92.000725     2A    -20.520799     3A    -15.589895
       4A    -11.360885     5A    -11.289255     6A    -11.284510
       7A    -11.271978     8A    -11.261114     9A    -11.251445
      10A     -8.997713    11A     -6.678526    12A     -6.677552
      13A     -6.677136    14A     -1.375048    15A     -1.232019
      16A     -1.167094    17A     -1.020672    18A     -0.994314
      19A     -0.940908    20A     -0.834321    21A     -0.770801
      22A     -0.763036    23A     -0.725080    24A     -0.643374
      25A     -0.638632    26A     -0.622393    27A     -0.580225
      28A     -0.576523    29A     -0.550983    30A     -0.549659
      31A     -0.516004    32A     -0.506533    33A     -0.482458
      34A     -0.434305    35A     -0.399167    36A     -0.367455
      37A     -0.327538

  @DF-RHF Final Energy:  -758.25174822366751

   => Energetics <=

    Nuclear Repulsion Energy =            492.3856275965019904
    One-Electron Energy =               -2017.5146014592264692
    Two-Electron Energy =                 766.8772256390569737
    Total Energy =                       -758.2517482236675050
  Basis Set: (AUG-CC-PVTZ AUX)
    Blend: AUG-CC-PVTZ-RI
    Molecular point group: c1

    Geometry (in Angstrom), charge = 0, multiplicity = 1:

       Center              X                  Y                   Z               Mass
    ------------   -----------------  -----------------  -----------------  -----------------
         S           -1.522564054386    -1.158216860526     0.174073763969    31.972071174400
         O            1.558772945614    -1.386713060526    -0.347701036031    15.994914619570
         N            2.121463945614     0.786320939474     0.101082963969    14.003074004430
         C           -0.200873054386     0.189103939474    -0.052076036031    12.000000000000
         C            1.220664945614    -0.222054060526    -0.108700036031    12.000000000000
         C           -0.776582054386     1.442575939474    -0.182166036031    12.000000000000
         C           -2.187285054386     1.402170939474    -0.093473036031    12.000000000000
         C           -2.661553054386     0.120129939474     0.092398963969    12.000000000000
         C            3.540403945614     0.477620939474     0.164241963969    12.000000000000
         H           -0.205062054386     2.346206939474    -0.372961036031     1.007825032230
         H            1.790823945614     1.613938939474     0.579448963969     1.007825032230
         H           -2.831909054386     2.271376939474    -0.173966036031     1.007825032230
         H           -3.691591054386    -0.198536060526     0.195416963969     1.007825032230
         H            3.786025945614    -0.189269060526    -0.661537036031     1.007825032230
         H            3.814413945614    -0.019546060526     1.101124963969     1.007825032230
         H            4.107085945614     1.404728939474     0.064512963969     1.007825032230

  Basis Set: AUG-CC-PVTZ
    Blend: AUG-CC-PVTZ
  Basis Set: (AUG-CC-PVTZ AUX)
    Blend: AUG-CC-PVTZ-JKFIT
	 Reference Energy          =    -758.2517482236675050 [Eh]
	 Singles Energy            =      -0.0000000000000000 [Eh]
	 Same-Spin Energy          =      -0.4421426974278230 [Eh]
	 Opposite-Spin Energy      =      -1.3495828466730877 [Eh]
	 Correlation Energy        =      -1.7917255441009106 [Eh]
	 Total Energy              =    -760.0434737677684325 [Eh]

	 ================> DF-SCS-MP2 Energies <==================
	-----------------------------------------------------------
	 SCS Same-Spin Scale       =       0.3333333333333333 [-]
	 SCS Opposite-Spin Scale   =       1.2000000000000000 [-]
	 SCS Same-Spin Energy      =      -0.1473808991426077 [Eh]
	 SCS Opposite-Spin Energy  =      -1.6194994160077052 [Eh]
	 SCS Correlation Energy    =      -1.7668803151503130 [Eh]
	 SCS Total Energy          =    -760.0186285388177794 [Eh]
	-----------------------------------------------------------

  Dipole Moment: [D]
     X:    -0.3332      Y:     3.7116      Z:     1.0690     Total:     3.8769

*** Psi4 exiting successfully. Buy a developer a beer!
