                               Psi4 1.3.2 release

  ==> Input File <==

--------------------------------------------------------------------------
#psi4
#
memory 32 gb

molecule  {
0 1
  S       -1.4679970    -1.1088850     0.1509200
  O        1.4861710    -1.4617920    -0.3475990
  N        2.0488620     0.7112420     0.1011850
  C       -0.2734750     0.1140250    -0.0519740
  C        1.1480630    -0.2971330    -0.1085980
  C       -0.8491840     1.3674970    -0.1820640
  C       -2.2598870     1.3270920    -0.0933710
  C       -2.7341550     0.0450510     0.0925010
  C        3.4678020     0.4025420     0.1643440
  H       -0.2776640     2.2711280    -0.3728590
  H        1.7182220     1.5388600     0.5795510
  H       -2.9045110     2.1962980    -0.1738640
  H       -3.7641930    -0.2736150     0.1955190
  H        3.7134240    -0.2643480    -0.6614350
  H        3.7418120    -0.0946250     1.1012270
  H        4.0344840     1.3296500     0.0646150
units angstrom
no_reorient  #important for SAPT in psi4, default
symmetry c1  #important for SAPT in psi4, default
}

set PROPERTIES_ORIGIN ["COM"]
properties('MP2/aug-cc-pvtz', properties = ['dipole'])
--------------------------------------------------------------------------

    Molecular point group: c1
  Charge       = 0
  Multiplicity = 1
  Basis Set: AUG-CC-PVTZ
    Blend: AUG-CC-PVTZ
  Basis Set: (AUG-CC-PVTZ AUX)
    Blend: AUG-CC-PVTZ-JKFIT

    Orbital Energies [Eh]
    ---------------------

    Doubly Occupied:

       1A    -91.996194     2A    -20.523416     3A    -15.590830
       4A    -11.362677     5A    -11.279197     6A    -11.276807
       7A    -11.262743     8A    -11.261708     9A    -11.250861
      10A     -8.995925    11A     -6.676759    12A     -6.676207
      13A     -6.675533    14A     -1.378120    15A     -1.233309
      16A     -1.184214    17A     -1.020524    18A     -1.000900
      19A     -0.946251    20A     -0.833089    21A     -0.771092
      22A     -0.769298    23A     -0.721947    24A     -0.646300
      25A     -0.641686    26A     -0.625917    27A     -0.579465
      28A     -0.573406    29A     -0.557764    30A     -0.552887
      31A     -0.533131    32A     -0.511531    33A     -0.486268
      34A     -0.436745    35A     -0.400332    36A     -0.357000
      37A     -0.335920

  @DF-RHF Final Energy:  -758.26857217287306

   => Energetics <=

    Nuclear Repulsion Energy =            499.9390648300364433
    One-Electron Energy =               -2032.5633587682734742
    Two-Electron Energy =                 774.3557217653640237
    Total Energy =                       -758.2685721728730641
  Basis Set: (AUG-CC-PVTZ AUX)
    Blend: AUG-CC-PVTZ-RI
    Molecular point group: c1

    Geometry (in Angstrom), charge = 0, multiplicity = 1:

       Center              X                  Y                   Z               Mass
    ------------   -----------------  -----------------  -----------------  -----------------
         S           -1.424225836698    -1.062011524846     0.156090340942    31.972071174400
         O            1.529942163302    -1.414918524846    -0.342428659058    15.994914619570
         N            2.092633163302     0.758115475154     0.106355340942    14.003074004430
         C           -0.229703836698     0.160898475154    -0.046803659058    12.000000000000
         C            1.191834163302    -0.250259524846    -0.103427659058    12.000000000000
         C           -0.805412836698     1.414370475154    -0.176893659058    12.000000000000
         C           -2.216115836698     1.373965475154    -0.088200659058    12.000000000000
         C           -2.690383836698     0.091924475154     0.097671340942    12.000000000000
         C            3.511573163302     0.449415475154     0.169514340942    12.000000000000
         H           -0.233892836698     2.318001475154    -0.367688659058     1.007825032230
         H            1.761993163302     1.585733475154     0.584721340942     1.007825032230
         H           -2.860739836698     2.243171475154    -0.168693659058     1.007825032230
         H           -3.720421836698    -0.226741524846     0.200689340942     1.007825032230
         H            3.757195163302    -0.217474524846    -0.656264659058     1.007825032230
         H            3.785583163302    -0.047751524846     1.106397340942     1.007825032230
         H            4.078255163302     1.376523475154     0.069785340942     1.007825032230

  Basis Set: AUG-CC-PVTZ
    Blend: AUG-CC-PVTZ
  Basis Set: (AUG-CC-PVTZ AUX)
    Blend: AUG-CC-PVTZ-JKFIT
	 Reference Energy          =    -758.2685721728730641 [Eh]
	 Singles Energy            =      -0.0000000000000000 [Eh]
	 Same-Spin Energy          =      -0.4434872105434148 [Eh]
	 Opposite-Spin Energy      =      -1.3477645347979073 [Eh]
	 Correlation Energy        =      -1.7912517453413221 [Eh]
	 Total Energy              =    -760.0598239182144198 [Eh]

	 ================> DF-SCS-MP2 Energies <==================
	-----------------------------------------------------------
	 SCS Same-Spin Scale       =       0.3333333333333333 [-]
	 SCS Opposite-Spin Scale   =       1.2000000000000000 [-]
	 SCS Same-Spin Energy      =      -0.1478290701811383 [Eh]
	 SCS Opposite-Spin Energy  =      -1.6173174417574887 [Eh]
	 SCS Correlation Energy    =      -1.7651465119386269 [Eh]
	 SCS Total Energy          =    -760.0337186848116744 [Eh]
	-----------------------------------------------------------

  Dipole Moment: [D]
     X:    -0.3285      Y:     3.6155      Z:     1.0820     Total:     3.7882

*** Psi4 exiting successfully. Buy a developer a beer!
