                               Psi4 1.3.2 release

  ==> Input File <==

--------------------------------------------------------------------------
#psi4
#
memory 32 gb

molecule  {
0 1
  S       -1.4679970    -1.1088850     0.1509200
  O        1.4861710    -1.4617920    -0.3475990
  N        2.0488620     0.7112420     0.1011850
  C       -0.2734750     0.1140250    -0.0519740
  C        1.1480630    -0.2971330    -0.1085980
  C       -0.8503051     1.3919341    -0.1853296
  C       -2.2598870     1.3270920    -0.0933710
  C       -2.7341550     0.0450510     0.0925010
  C        3.4678020     0.4025420     0.1643440
  H       -0.2776640     2.2711280    -0.3728590
  H        1.7182220     1.5388600     0.5795510
  H       -2.9045110     2.1962980    -0.1738640
  H       -3.7641930    -0.2736150     0.1955190
  H        3.7134240    -0.2643480    -0.6614350
  H        3.7418120    -0.0946250     1.1012270
  H        4.0344840     1.3296500     0.0646150
units angstrom
no_reorient  #important for SAPT in psi4, default
symmetry c1  #important for SAPT in psi4, default
}

set PROPERTIES_ORIGIN ["COM"]
properties('MP2/aug-cc-pvtz', properties = ['dipole'])
--------------------------------------------------------------------------

    Molecular point group: c1
  Charge       = 0
  Multiplicity = 1
  Basis Set: AUG-CC-PVTZ
    Blend: AUG-CC-PVTZ
  Basis Set: (AUG-CC-PVTZ AUX)
    Blend: AUG-CC-PVTZ-JKFIT

    Orbital Energies [Eh]
    ---------------------

    Doubly Occupied:

       1A    -91.997791     2A    -20.522991     3A    -15.590607
       4A    -11.362223     5A    -11.279299     6A    -11.279143
       7A    -11.263760     8A    -11.261563     9A    -11.251446
      10A     -8.997360    11A     -6.678189    12A     -6.677627
      13A     -6.676987    14A     -1.377755    15A     -1.232982
      16A     -1.181605    17A     -1.018772    18A     -1.002150
      19A     -0.945367    20A     -0.833494    21A     -0.771133
      22A     -0.769074    23A     -0.723089    24A     -0.645928
      25A     -0.640356    26A     -0.625394    27A     -0.581156
      28A     -0.574725    29A     -0.556880    30A     -0.552617
      31A     -0.532570    32A     -0.510878    33A     -0.487372
      34A     -0.436223    35A     -0.400153    36A     -0.357209
      37A     -0.333518

  @DF-RHF Final Energy:  -758.26671635882735

   => Energetics <=

    Nuclear Repulsion Energy =            499.4374284455896600
    One-Electron Energy =               -2031.5495201618330157
    Two-Electron Energy =                 773.8453753574160601
    Total Energy =                       -758.2667163588273525
  Basis Set: (AUG-CC-PVTZ AUX)
    Blend: AUG-CC-PVTZ-RI
    Molecular point group: c1

    Geometry (in Angstrom), charge = 0, multiplicity = 1:

       Center              X                  Y                   Z               Mass
    ------------   -----------------  -----------------  -----------------  -----------------
         S           -1.424130440734    -1.064090911785     0.156368215403    31.972071174400
         O            1.530037559266    -1.416997911785    -0.342150784597    15.994914619570
         N            2.092728559266     0.756036088215     0.106633215403    14.003074004430
         C           -0.229608440734     0.158819088215    -0.046525784597    12.000000000000
         C            1.191929559266    -0.252338911785    -0.103149784597    12.000000000000
         C           -0.806438540734     1.436728188215    -0.179881384597    12.000000000000
         C           -2.216020440734     1.371886088215    -0.087922784597    12.000000000000
         C           -2.690288440734     0.089845088215     0.097949215403    12.000000000000
         C            3.511668559266     0.447336088215     0.169792215403    12.000000000000
         H           -0.233797440734     2.315922088215    -0.367410784597     1.007825032230
         H            1.762088559266     1.583654088215     0.584999215403     1.007825032230
         H           -2.860644440734     2.241092088215    -0.168415784597     1.007825032230
         H           -3.720326440734    -0.228820911785     0.200967215403     1.007825032230
         H            3.757290559266    -0.219553911785    -0.655986784597     1.007825032230
         H            3.785678559266    -0.049830911785     1.106675215403     1.007825032230
         H            4.078350559266     1.374444088215     0.070063215403     1.007825032230

  Basis Set: AUG-CC-PVTZ
    Blend: AUG-CC-PVTZ
  Basis Set: (AUG-CC-PVTZ AUX)
    Blend: AUG-CC-PVTZ-JKFIT
	 Reference Energy          =    -758.2667163588273525 [Eh]
	 Singles Energy            =      -0.0000000000000000 [Eh]
	 Same-Spin Energy          =      -0.4438636282926354 [Eh]
	 Opposite-Spin Energy      =      -1.3483439633352767 [Eh]
	 Correlation Energy        =      -1.7922075916279121 [Eh]
	 Total Energy              =    -760.0589239504552097 [Eh]

	 ================> DF-SCS-MP2 Energies <==================
	-----------------------------------------------------------
	 SCS Same-Spin Scale       =       0.3333333333333333 [-]
	 SCS Opposite-Spin Scale   =       1.2000000000000000 [-]
	 SCS Same-Spin Energy      =      -0.1479545427642118 [Eh]
	 SCS Opposite-Spin Energy  =      -1.6180127560023321 [Eh]
	 SCS Correlation Energy    =      -1.7659672987665438 [Eh]
	 SCS Total Energy          =    -760.0326836575939069 [Eh]
	-----------------------------------------------------------

  Dipole Moment: [D]
     X:    -0.3427      Y:     3.5909      Z:     1.0843     Total:     3.7667

*** Psi4 exiting successfully. Buy a developer a beer!
