                               Psi4 1.4a3.dev225

  ==> Input File <==

--------------------------------------------------------------------------
#psi4
#
memory 32 gb

molecule  {
0 1
  S       -1.4679970    -1.1088850     0.1509200
  O        1.4861710    -1.4617920    -0.3475990
  N        2.0488620     0.7112420     0.1011850
  C       -0.2734750     0.1140250    -0.0519740
  C        1.1480630    -0.2971330    -0.1085980
  C       -0.8491840     1.3674970    -0.1820640
  C       -2.2798394     1.3265205    -0.0921166
  C       -2.7341550     0.0450510     0.0925010
  C        3.4678020     0.4025420     0.1643440
  H       -0.2776640     2.2711280    -0.3728590
  H        1.7182220     1.5388600     0.5795510
  H       -2.9045110     2.1962980    -0.1738640
  H       -3.7641930    -0.2736150     0.1955190
  H        3.7134240    -0.2643480    -0.6614350
  H        3.7418120    -0.0946250     1.1012270
  H        4.0344840     1.3296500     0.0646150
units angstrom
no_reorient  #important for SAPT in psi4, default
symmetry c1  #important for SAPT in psi4, default
}

set PROPERTIES_ORIGIN ["COM"]
properties('MP2/aug-cc-pvtz', properties = ['dipole'])
--------------------------------------------------------------------------

    Molecular point group: c1
  Charge       = 0
  Multiplicity = 1
  Basis Set: AUG-CC-PVTZ
    Blend: AUG-CC-PVTZ
  Basis Set: (AUG-CC-PVTZ AUX)
    Blend: AUG-CC-PVTZ-JKFIT

    Orbital Energies [Eh]
    ---------------------

    Doubly Occupied:

       1A    -91.995272     2A    -20.523842     3A    -15.591001
       4A    -11.363004     5A    -11.278377     6A    -11.277230
       7A    -11.264583     8A    -11.261824     9A    -11.251001
      10A     -8.995101    11A     -6.675958    12A     -6.675381
      13A     -6.674686    14A     -1.378447    15A     -1.233475
      16A     -1.182689    17A     -1.021824    18A     -0.998312
      19A     -0.946791    20A     -0.833556    21A     -0.771953
      22A     -0.769170    23A     -0.721647    24A     -0.646507
      25A     -0.642509    26A     -0.626144    27A     -0.581742
      28A     -0.569342    29A     -0.557724    30A     -0.552767
      31A     -0.533915    32A     -0.511234    33A     -0.486484
      34A     -0.437062    35A     -0.400467    36A     -0.355114
      37A     -0.338093

  @DF-RHF Final Energy:  -758.26881629681043

   => Energetics <=

    Nuclear Repulsion Energy =            499.6688260804903621
    One-Electron Energy =               -2032.0268305998831693
    Two-Electron Energy =                 774.0891882225823792
    Total Energy =                       -758.2688162968104280
  Basis Set: (AUG-CC-PVTZ AUX)
    Blend: AUG-CC-PVTZ-RI
    Molecular point group: c1

    Geometry (in Angstrom), charge = 0, multiplicity = 1:

       Center              X                  Y                   Z               Mass
    ------------   -----------------  -----------------  -----------------  -----------------
         S           -1.422528059140    -1.061962895114     0.155983602296    31.972071174400
         O            1.531639940860    -1.414869895114    -0.342535397704    15.994914619570
         N            2.094330940860     0.758164104886     0.106248602296    14.003074004430
         C           -0.228006059140     0.160947104886    -0.046910397704    12.000000000000
         C            1.193531940860    -0.250210895114    -0.103534397704    12.000000000000
         C           -0.803715059140     1.414419104886    -0.177000397704    12.000000000000
         C           -2.234370459140     1.373442604886    -0.087052997704    12.000000000000
         C           -2.688686059140     0.091973104886     0.097564602296    12.000000000000
         C            3.513270940860     0.449464104886     0.169407602296    12.000000000000
         H           -0.232195059140     2.318050104886    -0.367795397704     1.007825032230
         H            1.763690940860     1.585782104886     0.584614602296     1.007825032230
         H           -2.859042059140     2.243220104886    -0.168800397704     1.007825032230
         H           -3.718724059140    -0.226692895114     0.200582602296     1.007825032230
         H            3.758892940860    -0.217425895114    -0.656371397704     1.007825032230
         H            3.787280940860    -0.047702895114     1.106290602296     1.007825032230
         H            4.079952940860     1.376572104886     0.069678602296     1.007825032230

  Basis Set: AUG-CC-PVTZ
    Blend: AUG-CC-PVTZ
  Basis Set: (AUG-CC-PVTZ AUX)
    Blend: AUG-CC-PVTZ-JKFIT
	 Reference Energy          =    -758.2688162968104280 [Eh]
	 Singles Energy            =      -0.0000000000000000 [Eh]
	 Same-Spin Energy          =      -0.4430077535763710 [Eh]
	 Opposite-Spin Energy      =      -1.3473815395324580 [Eh]
	 Correlation Energy        =      -1.7903892931088290 [Eh]
	 Total Energy              =    -760.0592055899192019 [Eh]

	 ================> DF-SCS-MP2 Energies <==================
	-----------------------------------------------------------
	 SCS Same-Spin Scale       =       0.3333333333333333 [-]
	 SCS Opposite-Spin Scale   =       1.2000000000000000 [-]
	 SCS Same-Spin Energy      =      -0.1476692511921237 [Eh]
	 SCS Opposite-Spin Energy  =      -1.6168578474389494 [Eh]
	 SCS Correlation Energy    =      -1.7645270986310730 [Eh]
	 SCS Total Energy          =    -760.0333433954415341 [Eh]
	-----------------------------------------------------------

  Dipole Moment: [D]
     X:    -0.3155      Y:     3.6260      Z:     1.0796     Total:     3.7965

*** Psi4 exiting successfully. Buy a developer a beer!
