                               Psi4 1.3.2 release

  ==> Input File <==

--------------------------------------------------------------------------
#psi4
#
memory 32 gb

molecule  {
0 1
  S       -1.4679970    -1.1088850     0.1509200
  O        1.4861710    -1.4617920    -0.3475990
  N        2.0488620     0.7112420     0.1011850
  C       -0.2734750     0.1140250    -0.0519740
  C        1.1547923    -0.2725026    -0.1126075
  C       -0.8491840     1.3674970    -0.1820640
  C       -2.2598870     1.3270920    -0.0933710
  C       -2.7341550     0.0450510     0.0925010
  C        3.4678020     0.4025420     0.1643440
  H       -0.2776640     2.2711280    -0.3728590
  H        1.7182220     1.5388600     0.5795510
  H       -2.9045110     2.1962980    -0.1738640
  H       -3.7641930    -0.2736150     0.1955190
  H        3.7134240    -0.2643480    -0.6614350
  H        3.7418120    -0.0946250     1.1012270
  H        4.0344840     1.3296500     0.0646150
units angstrom
no_reorient  #important for SAPT in psi4, default
symmetry c1  #important for SAPT in psi4, default
}

set PROPERTIES_ORIGIN ["COM"]
properties('MP2/aug-cc-pvtz', properties = ['dipole'])
--------------------------------------------------------------------------

    Molecular point group: c1
  Charge       = 0
  Multiplicity = 1
  Basis Set: AUG-CC-PVTZ
    Blend: AUG-CC-PVTZ
  Basis Set: (AUG-CC-PVTZ AUX)
    Blend: AUG-CC-PVTZ-JKFIT

    Orbital Energies [Eh]
    ---------------------

    Doubly Occupied:

       1A    -91.996315     2A    -20.518213     3A    -15.595244
       4A    -11.362146     5A    -11.279009     6A    -11.276877
       7A    -11.264119     8A    -11.262281     9A    -11.250551
      10A     -8.995942    11A     -6.676764    12A     -6.676229
      13A     -6.675544    14A     -1.366572    15A     -1.238098
      16A     -1.184097    17A     -1.021195    18A     -1.000542
      19A     -0.950585    20A     -0.833173    21A     -0.774365
      22A     -0.770593    23A     -0.721831    24A     -0.649838
      25A     -0.636877    26A     -0.628301    27A     -0.576958
      28A     -0.570363    29A     -0.556427    30A     -0.553693
      31A     -0.534556    32A     -0.509203    33A     -0.485477
      34A     -0.433173    35A     -0.400556    36A     -0.356770
      37A     -0.335589

  @DF-RHF Final Energy:  -758.26649918582416

   => Energetics <=

    Nuclear Repulsion Energy =            499.8774070540529237
    One-Electron Energy =               -2032.4516822124160171
    Two-Electron Energy =                 774.3077759725388205
    Total Energy =                       -758.2664991858241592
  Basis Set: (AUG-CC-PVTZ AUX)
    Blend: AUG-CC-PVTZ-RI
    Molecular point group: c1

    Geometry (in Angstrom), charge = 0, multiplicity = 1:

       Center              X                  Y                   Z               Mass
    ------------   -----------------  -----------------  -----------------  -----------------
         S           -1.424798442225    -1.064107359952     0.156431514892    31.972071174400
         O            1.529369557775    -1.417014359952    -0.342087485108    15.994914619570
         N            2.092060557775     0.756019640048     0.106696514892    14.003074004430
         C           -0.230276442225     0.158802640048    -0.046462485108    12.000000000000
         C            1.197990857775    -0.227724959952    -0.107095985108    12.000000000000
         C           -0.805985442225     1.412274640048    -0.176552485108    12.000000000000
         C           -2.216688442225     1.371869640048    -0.087859485108    12.000000000000
         C           -2.690956442225     0.089828640048     0.098012514892    12.000000000000
         C            3.511000557775     0.447319640048     0.169855514892    12.000000000000
         H           -0.234465442225     2.315905640048    -0.367347485108     1.007825032230
         H            1.761420557775     1.583637640048     0.585062514892     1.007825032230
         H           -2.861312442225     2.241075640048    -0.168352485108     1.007825032230
         H           -3.720994442225    -0.228837359952     0.201030514892     1.007825032230
         H            3.756622557775    -0.219570359952    -0.655923485108     1.007825032230
         H            3.785010557775    -0.049847359952     1.106738514892     1.007825032230
         H            4.077682557775     1.374427640048     0.070126514892     1.007825032230

  Basis Set: AUG-CC-PVTZ
    Blend: AUG-CC-PVTZ
  Basis Set: (AUG-CC-PVTZ AUX)
    Blend: AUG-CC-PVTZ-JKFIT
	 Reference Energy          =    -758.2664991858241592 [Eh]
	 Singles Energy            =      -0.0000000000000000 [Eh]
	 Same-Spin Energy          =      -0.4438002753881842 [Eh]
	 Opposite-Spin Energy      =      -1.3483918169504288 [Eh]
	 Correlation Energy        =      -1.7921920923386130 [Eh]
	 Total Energy              =    -760.0586912781627689 [Eh]

	 ================> DF-SCS-MP2 Energies <==================
	-----------------------------------------------------------
	 SCS Same-Spin Scale       =       0.3333333333333333 [-]
	 SCS Opposite-Spin Scale   =       1.2000000000000000 [-]
	 SCS Same-Spin Energy      =      -0.1479334251293947 [Eh]
	 SCS Opposite-Spin Energy  =      -1.6180701803405144 [Eh]
	 SCS Correlation Energy    =      -1.7660036054699091 [Eh]
	 SCS Total Energy          =    -760.0325027912940641 [Eh]
	-----------------------------------------------------------

  Dipole Moment: [D]
     X:    -0.2354      Y:     3.7707      Z:     1.1141     Total:     3.9389

*** Psi4 exiting successfully. Buy a developer a beer!
