                               Psi4 1.3.2 release

  ==> Input File <==

--------------------------------------------------------------------------
#psi4
#
memory 32 gb

molecule  {
0 1
  S       -1.4679970    -1.1088850     0.1509200
  O        1.4861710    -1.4617920    -0.3475990
  N        2.0488620     0.7112420     0.1011850
  C       -0.2734750     0.1140250    -0.0519740
  C        1.1723623    -0.1979351    -0.1245205
  C       -0.8491840     1.3674970    -0.1820640
  C       -2.2598870     1.3270920    -0.0933710
  C       -2.7341550     0.0450510     0.0925010
  C        3.4678020     0.4025420     0.1643440
  H       -0.2776640     2.2711280    -0.3728590
  H        1.7182220     1.5388600     0.5795510
  H       -2.9045110     2.1962980    -0.1738640
  H       -3.7641930    -0.2736150     0.1955190
  H        3.7134240    -0.2643480    -0.6614350
  H        3.7418120    -0.0946250     1.1012270
  H        4.0344840     1.3296500     0.0646150
units angstrom
no_reorient  #important for SAPT in psi4, default
symmetry c1  #important for SAPT in psi4, default
}

set PROPERTIES_ORIGIN ["COM"]
properties('MP2/aug-cc-pvtz', properties = ['dipole'])
--------------------------------------------------------------------------

    Molecular point group: c1
  Charge       = 0
  Multiplicity = 1
  Basis Set: AUG-CC-PVTZ
    Blend: AUG-CC-PVTZ
  Basis Set: (AUG-CC-PVTZ AUX)
    Blend: AUG-CC-PVTZ-JKFIT

    Orbital Energies [Eh]
    ---------------------

    Doubly Occupied:

       1A    -91.996769     2A    -20.502186     3A    -15.608017
       4A    -11.359435     5A    -11.278522     6A    -11.277577
       7A    -11.271358     8A    -11.261030     9A    -11.249691
      10A     -8.996090    11A     -6.676877    12A     -6.676388
      13A     -6.675670    14A     -1.347367    15A     -1.240427
      16A     -1.183468    17A     -1.024336    18A     -0.999393
      19A     -0.963209    20A     -0.834053    21A     -0.789845
      22A     -0.769158    23A     -0.721714    24A     -0.661339
      25A     -0.637553    26A     -0.625806    27A     -0.576713
      28A     -0.563825    29A     -0.553337    30A     -0.542921
      31A     -0.539030    32A     -0.505868    33A     -0.483629
      34A     -0.418770    35A     -0.396625    36A     -0.356176
      37A     -0.334420

  @DF-RHF Final Energy:  -758.24967519336997

   => Energetics <=

    Nuclear Repulsion Energy =            499.7600681083709446
    One-Electron Energy =               -2032.2223010660579803
    Two-Electron Energy =                 774.2125577643171255
    Total Energy =                       -758.2496751933699670
  Basis Set: (AUG-CC-PVTZ AUX)
    Blend: AUG-CC-PVTZ-RI
    Molecular point group: c1

    Geometry (in Angstrom), charge = 0, multiplicity = 1:

       Center              X                  Y                   Z               Mass
    ------------   -----------------  -----------------  -----------------  -----------------
         S           -1.426293498042    -1.070452412579     0.157445208686    31.972071174400
         O            1.527874501958    -1.423359412579    -0.341073791314    15.994914619570
         N            2.090565501958     0.749674587421     0.107710208686    14.003074004430
         C           -0.231771498042     0.152457587421    -0.045448791314    12.000000000000
         C            1.214065801958    -0.159502512579    -0.117995291314    12.000000000000
         C           -0.807480498042     1.405929587421    -0.175538791314    12.000000000000
         C           -2.218183498042     1.365524587421    -0.086845791314    12.000000000000
         C           -2.692451498042     0.083483587421     0.099026208686    12.000000000000
         C            3.509505501958     0.440974587421     0.170869208686    12.000000000000
         H           -0.235960498042     2.309560587421    -0.366333791314     1.007825032230
         H            1.759925501958     1.577292587421     0.586076208686     1.007825032230
         H           -2.862807498042     2.234730587421    -0.167338791314     1.007825032230
         H           -3.722489498042    -0.235182412579     0.202044208686     1.007825032230
         H            3.755127501958    -0.225915412579    -0.654909791314     1.007825032230
         H            3.783515501958    -0.056192412579     1.107752208686     1.007825032230
         H            4.076187501958     1.368082587421     0.071140208686     1.007825032230

  Basis Set: AUG-CC-PVTZ
    Blend: AUG-CC-PVTZ
  Basis Set: (AUG-CC-PVTZ AUX)
    Blend: AUG-CC-PVTZ-JKFIT
	 Reference Energy          =    -758.2496751933699670 [Eh]
	 Singles Energy            =      -0.0000000000000000 [Eh]
	 Same-Spin Energy          =      -0.4447630916379967 [Eh]
	 Opposite-Spin Energy      =      -1.3503654641722256 [Eh]
	 Correlation Energy        =      -1.7951285558102223 [Eh]
	 Total Energy              =    -760.0448037491802324 [Eh]

	 ================> DF-SCS-MP2 Energies <==================
	-----------------------------------------------------------
	 SCS Same-Spin Scale       =       0.3333333333333333 [-]
	 SCS Opposite-Spin Scale   =       1.2000000000000000 [-]
	 SCS Same-Spin Energy      =      -0.1482543638793322 [Eh]
	 SCS Opposite-Spin Energy  =      -1.6204385570066706 [Eh]
	 SCS Correlation Energy    =      -1.7686929208860027 [Eh]
	 SCS Total Energy          =    -760.0183681142559635 [Eh]
	-----------------------------------------------------------

  Dipole Moment: [D]
     X:     0.0148      Y:     4.2247      Z:     1.2129     Total:     4.3954

*** Psi4 exiting successfully. Buy a developer a beer!
