                               Psi4 1.3.2 release

  ==> Input File <==

--------------------------------------------------------------------------
#psi4
#
memory 32 gb

molecule  {
0 1
  S       -1.4679970    -1.1088850     0.1509200
  O        1.4861710    -1.4617920    -0.3475990
  N        2.0488620     0.7112420     0.1011850
  C       -0.2734750     0.1140250    -0.0519740
  C        1.0986749    -0.4420256    -0.0842217
  C       -0.8491840     1.3674970    -0.1820640
  C       -2.2598870     1.3270920    -0.0933710
  C       -2.7341550     0.0450510     0.0925010
  C        3.4678020     0.4025420     0.1643440
  H       -0.2776640     2.2711280    -0.3728590
  H        1.7182220     1.5388600     0.5795510
  H       -2.9045110     2.1962980    -0.1738640
  H       -3.7641930    -0.2736150     0.1955190
  H        3.7134240    -0.2643480    -0.6614350
  H        3.7418120    -0.0946250     1.1012270
  H        4.0344840     1.3296500     0.0646150
units angstrom
no_reorient  #important for SAPT in psi4, default
symmetry c1  #important for SAPT in psi4, default
}

set PROPERTIES_ORIGIN ["COM"]
properties('MP2/aug-cc-pvtz', properties = ['dipole'])
--------------------------------------------------------------------------

    Molecular point group: c1
  Charge       = 0
  Multiplicity = 1
  Basis Set: AUG-CC-PVTZ
    Blend: AUG-CC-PVTZ
  Basis Set: (AUG-CC-PVTZ AUX)
    Blend: AUG-CC-PVTZ-JKFIT

    Orbital Energies [Eh]
    ---------------------

    Doubly Occupied:

       1A    -91.996208     2A    -20.552869     3A    -15.562011
       4A    -11.364164     5A    -11.280911     6A    -11.278985
       7A    -11.266350     8A    -11.253280     9A    -11.247201
      10A     -8.996583    11A     -6.677484    12A     -6.676814
      13A     -6.676206    14A     -1.466574    15A     -1.198522
      16A     -1.179977    17A     -1.020452    18A     -1.002754
      19A     -0.920402    20A     -0.834353    21A     -0.774267
      22A     -0.746244    23A     -0.723676    24A     -0.678544
      25A     -0.631739    26A     -0.624751    27A     -0.599042
      28A     -0.574671    29A     -0.571025    30A     -0.543564
      31A     -0.532310    32A     -0.528138    33A     -0.491903
      34A     -0.436897    35A     -0.386635    36A     -0.359015
      37A     -0.337269

  @DF-RHF Final Energy:  -758.24250542024129

   => Energetics <=

    Nuclear Repulsion Energy =            500.5245145978101959
    One-Electron Energy =               -2033.5504608940925664
    Two-Electron Energy =                 774.7834408760411407
    Total Energy =                       -758.2425054202412866
  Basis Set: (AUG-CC-PVTZ AUX)
    Blend: AUG-CC-PVTZ-RI
    Molecular point group: c1

    Geometry (in Angstrom), charge = 0, multiplicity = 1:

       Center              X                  Y                   Z               Mass
    ------------   -----------------  -----------------  -----------------  -----------------
         S           -1.420023334352    -1.049682411327     0.154016127560    31.972071174400
         O            1.534144665648    -1.402589411327    -0.344502872440    15.994914619570
         N            2.096835665648     0.770444588673     0.104281127560    14.003074004430
         C           -0.225501334352     0.173227588673    -0.048877872440    12.000000000000
         C            1.146648565648    -0.382823011327    -0.081125572440    12.000000000000
         C           -0.801210334352     1.426699588673    -0.178967872440    12.000000000000
         C           -2.211913334352     1.386294588673    -0.090274872440    12.000000000000
         C           -2.686181334352     0.104253588673     0.095597127560    12.000000000000
         C            3.515775665648     0.461744588673     0.167440127560    12.000000000000
         H           -0.229690334352     2.330330588673    -0.369762872440     1.007825032230
         H            1.766195665648     1.598062588673     0.582647127560     1.007825032230
         H           -2.856537334352     2.255500588673    -0.170767872440     1.007825032230
         H           -3.716219334352    -0.214412411327     0.198615127560     1.007825032230
         H            3.761397665648    -0.205145411327    -0.658338872440     1.007825032230
         H            3.789785665648    -0.035422411327     1.104323127560     1.007825032230
         H            4.082457665648     1.388852588673     0.067711127560     1.007825032230

  Basis Set: AUG-CC-PVTZ
    Blend: AUG-CC-PVTZ
  Basis Set: (AUG-CC-PVTZ AUX)
    Blend: AUG-CC-PVTZ-JKFIT
	 Reference Energy          =    -758.2425054202412866 [Eh]
	 Singles Energy            =      -0.0000000000000000 [Eh]
	 Same-Spin Energy          =      -0.4422257646054016 [Eh]
	 Opposite-Spin Energy      =      -1.3452774940532937 [Eh]
	 Correlation Energy        =      -1.7875032586586954 [Eh]
	 Total Energy              =    -760.0300086789000034 [Eh]

	 ================> DF-SCS-MP2 Energies <==================
	-----------------------------------------------------------
	 SCS Same-Spin Scale       =       0.3333333333333333 [-]
	 SCS Opposite-Spin Scale   =       1.2000000000000000 [-]
	 SCS Same-Spin Energy      =      -0.1474085882018005 [Eh]
	 SCS Opposite-Spin Energy  =      -1.6143329928639523 [Eh]
	 SCS Correlation Energy    =      -1.7617415810657528 [Eh]
	 SCS Total Energy          =    -760.0042470013070215 [Eh]
	-----------------------------------------------------------

  Dipole Moment: [D]
     X:    -0.9852      Y:     2.6284      Z:     0.8939     Total:     2.9459

*** Psi4 exiting successfully. Buy a developer a beer!
