                               Psi4 1.3.2 release

  ==> Input File <==

--------------------------------------------------------------------------
#psi4
#
memory 32 gb

molecule  {
0 1
  S       -1.5104549    -1.0665013     0.1475159
  O        1.4861710    -1.4617920    -0.3475990
  N        2.0488620     0.7112420     0.1011850
  C       -0.2734750     0.1140250    -0.0519740
  C        1.1480630    -0.2971330    -0.1085980
  C       -0.8491840     1.3674970    -0.1820640
  C       -2.2598870     1.3270920    -0.0933710
  C       -2.7341550     0.0450510     0.0925010
  C        3.4678020     0.4025420     0.1643440
  H       -0.2776640     2.2711280    -0.3728590
  H        1.7182220     1.5388600     0.5795510
  H       -2.9045110     2.1962980    -0.1738640
  H       -3.7641930    -0.2736150     0.1955190
  H        3.7134240    -0.2643480    -0.6614350
  H        3.7418120    -0.0946250     1.1012270
  H        4.0344840     1.3296500     0.0646150
units angstrom
no_reorient  #important for SAPT in psi4, default
symmetry c1  #important for SAPT in psi4, default
}

set PROPERTIES_ORIGIN ["COM"]
properties('MP2/aug-cc-pvtz', properties = ['dipole'])
--------------------------------------------------------------------------

    Molecular point group: c1
  Charge       = 0
  Multiplicity = 1
  Basis Set: AUG-CC-PVTZ
    Blend: AUG-CC-PVTZ
  Basis Set: (AUG-CC-PVTZ AUX)
    Blend: AUG-CC-PVTZ-JKFIT

    Orbital Energies [Eh]
    ---------------------

    Doubly Occupied:

       1A    -91.994918     2A    -20.522710     3A    -15.590778
       4A    -11.363022     5A    -11.275130     6A    -11.274743
       7A    -11.262153     8A    -11.261680     9A    -11.248484
      10A     -8.996165    11A     -6.677119    12A     -6.676495
      13A     -6.675790    14A     -1.377429    15A     -1.233233
      16A     -1.192747    17A     -1.023900    18A     -1.003534
      19A     -0.946577    20A     -0.833039    21A     -0.772024
      22A     -0.768954    23A     -0.722862    24A     -0.647597
      25A     -0.642026    26A     -0.626562    27A     -0.579494
      28A     -0.573518    29A     -0.559777    30A     -0.553378
      31A     -0.539156    32A     -0.515324    33A     -0.483465
      34A     -0.436368    35A     -0.400069    36A     -0.357726
      37A     -0.336019

  @DF-RHF Final Energy:  -758.26724636662789

   => Energetics <=

    Nuclear Repulsion Energy =            501.1235182250765661
    One-Electron Energy =               -2034.8935983039025359
    Two-Electron Energy =                 775.5028337121980258
    Total Energy =                       -758.2672463666278873
  Basis Set: (AUG-CC-PVTZ AUX)
    Blend: AUG-CC-PVTZ-RI
    Molecular point group: c1

    Geometry (in Angstrom), charge = 0, multiplicity = 1:

       Center              X                  Y                   Z               Mass
    ------------   -----------------  -----------------  -----------------  -----------------
         S           -1.457058006588    -1.029236732900     0.153457992439    31.972071174400
         O            1.539567893412    -1.424527432900    -0.341656907561    15.994914619570
         N            2.102258893412     0.748506567100     0.107127092439    14.003074004430
         C           -0.220078106588     0.151289567100    -0.046031907561    12.000000000000
         C            1.201459893412    -0.259868432900    -0.102655907561    12.000000000000
         C           -0.795787106588     1.404761567100    -0.176121907561    12.000000000000
         C           -2.206490106588     1.364356567100    -0.087428907561    12.000000000000
         C           -2.680758106588     0.082315567100     0.098443092439    12.000000000000
         C            3.521198893412     0.439806567100     0.170286092439    12.000000000000
         H           -0.224267106588     2.308392567100    -0.366916907561     1.007825032230
         H            1.771618893412     1.576124567100     0.585493092439     1.007825032230
         H           -2.851114106588     2.233562567100    -0.167921907561     1.007825032230
         H           -3.710796106588    -0.236350432900     0.201461092439     1.007825032230
         H            3.766820893412    -0.227083432900    -0.655492907561     1.007825032230
         H            3.795208893412    -0.057360432900     1.107169092439     1.007825032230
         H            4.087880893412     1.366914567100     0.070557092439     1.007825032230

  Basis Set: AUG-CC-PVTZ
    Blend: AUG-CC-PVTZ
  Basis Set: (AUG-CC-PVTZ AUX)
    Blend: AUG-CC-PVTZ-JKFIT
	 Reference Energy          =    -758.2672463666278873 [Eh]
	 Singles Energy            =      -0.0000000000000000 [Eh]
	 Same-Spin Energy          =      -0.4439128678552180 [Eh]
	 Opposite-Spin Energy      =      -1.3470371265554515 [Eh]
	 Correlation Energy        =      -1.7909499944106695 [Eh]
	 Total Energy              =    -760.0581963610385401 [Eh]

	 ================> DF-SCS-MP2 Energies <==================
	-----------------------------------------------------------
	 SCS Same-Spin Scale       =       0.3333333333333333 [-]
	 SCS Opposite-Spin Scale   =       1.2000000000000000 [-]
	 SCS Same-Spin Energy      =      -0.1479709559517393 [Eh]
	 SCS Opposite-Spin Energy  =      -1.6164445518665418 [Eh]
	 SCS Correlation Energy    =      -1.7644155078182810 [Eh]
	 SCS Total Energy          =    -760.0316618744461721 [Eh]
	-----------------------------------------------------------

  Dipole Moment: [D]
     X:    -0.3746      Y:     3.5920      Z:     1.0899     Total:     3.7723

*** Psi4 exiting successfully. Buy a developer a beer!
