                               Psi4 1.3.2 release

  ==> Input File <==

--------------------------------------------------------------------------
#psi4
#
memory 32 gb

molecule  {
0 1
  S       -1.4679970    -1.1088850     0.1509200
  O        1.4861710    -1.4617920    -0.3475990
  N        2.0488620     0.7112420     0.1011850
  C       -0.3428635     0.0429875    -0.0401881
  C        1.1480630    -0.2971330    -0.1085980
  C       -0.8491840     1.3674970    -0.1820640
  C       -2.2598870     1.3270920    -0.0933710
  C       -2.7341550     0.0450510     0.0925010
  C        3.4678020     0.4025420     0.1643440
  H       -0.2776640     2.2711280    -0.3728590
  H        1.7182220     1.5388600     0.5795510
  H       -2.9045110     2.1962980    -0.1738640
  H       -3.7641930    -0.2736150     0.1955190
  H        3.7134240    -0.2643480    -0.6614350
  H        3.7418120    -0.0946250     1.1012270
  H        4.0344840     1.3296500     0.0646150
units angstrom
no_reorient  #important for SAPT in psi4, default
symmetry c1  #important for SAPT in psi4, default
}

set PROPERTIES_ORIGIN ["COM"]
properties('MP2/aug-cc-pvtz', properties = ['dipole'])
--------------------------------------------------------------------------

    Molecular point group: c1
  Charge       = 0
  Multiplicity = 1
  Basis Set: AUG-CC-PVTZ
    Blend: AUG-CC-PVTZ
  Basis Set: (AUG-CC-PVTZ AUX)
    Blend: AUG-CC-PVTZ-JKFIT

    Orbital Energies [Eh]
    ---------------------

    Doubly Occupied:

       1A    -91.999163     2A    -20.522326     3A    -15.592874
       4A    -11.365106     5A    -11.277001     6A    -11.272298
       7A    -11.263072     8A    -11.259575     9A    -11.250009
      10A     -9.000940    11A     -6.681981    12A     -6.681212
      13A     -6.680494    14A     -1.377192    15A     -1.232666
      16A     -1.192666    17A     -1.018436    18A     -1.001250
      19A     -0.945369    20A     -0.823868    21A     -0.770299
      22A     -0.767427    23A     -0.720983    24A     -0.646254
      25A     -0.640285    26A     -0.625268    27A     -0.574376
      28A     -0.567059    29A     -0.560085    30A     -0.553931
      31A     -0.543717    32A     -0.514528    33A     -0.492751
      34A     -0.432497    35A     -0.400289    36A     -0.359576
      37A     -0.328644

  @DF-RHF Final Energy:  -758.25737974988169

   => Energetics <=

    Nuclear Repulsion Energy =            500.7043373339674304
    One-Electron Energy =               -2034.0525008303679897
    Two-Electron Energy =                 775.0907837465188095
    Total Energy =                       -758.2573797498816930
  Basis Set: (AUG-CC-PVTZ AUX)
    Blend: AUG-CC-PVTZ-RI
    Molecular point group: c1

    Geometry (in Angstrom), charge = 0, multiplicity = 1:

       Center              X                  Y                   Z               Mass
    ------------   -----------------  -----------------  -----------------  -----------------
         S           -1.418321472407    -1.055966844844     0.155087462265    31.972071174400
         O            1.535846527593    -1.408873844844    -0.343431537735    15.994914619570
         N            2.098537527593     0.764160155156     0.105352462265    14.003074004430
         C           -0.293187972407     0.095905655156    -0.036020637735    12.000000000000
         C            1.197738527593    -0.244214844844    -0.104430537735    12.000000000000
         C           -0.799508472407     1.420415155156    -0.177896537735    12.000000000000
         C           -2.210211472407     1.380010155156    -0.089203537735    12.000000000000
         C           -2.684479472407     0.097969155156     0.096668462265    12.000000000000
         C            3.517477527593     0.455460155156     0.168511462265    12.000000000000
         H           -0.227988472407     2.324046155156    -0.368691537735     1.007825032230
         H            1.767897527593     1.591778155156     0.583718462265     1.007825032230
         H           -2.854835472407     2.249216155156    -0.169696537735     1.007825032230
         H           -3.714517472407    -0.220696844844     0.199686462265     1.007825032230
         H            3.763099527593    -0.211429844844    -0.657267537735     1.007825032230
         H            3.791487527593    -0.041706844844     1.105394462265     1.007825032230
         H            4.084159527593     1.382568155156     0.068782462265     1.007825032230

  Basis Set: AUG-CC-PVTZ
    Blend: AUG-CC-PVTZ
  Basis Set: (AUG-CC-PVTZ AUX)
    Blend: AUG-CC-PVTZ-JKFIT
	 Reference Energy          =    -758.2573797498816930 [Eh]
	 Singles Energy            =      -0.0000000000000000 [Eh]
	 Same-Spin Energy          =      -0.4445178242751935 [Eh]
	 Opposite-Spin Energy      =      -1.3482226845243737 [Eh]
	 Correlation Energy        =      -1.7927405087995671 [Eh]
	 Total Energy              =    -760.0501202586812042 [Eh]

	 ================> DF-SCS-MP2 Energies <==================
	-----------------------------------------------------------
	 SCS Same-Spin Scale       =       0.3333333333333333 [-]
	 SCS Opposite-Spin Scale   =       1.2000000000000000 [-]
	 SCS Same-Spin Energy      =      -0.1481726080917312 [Eh]
	 SCS Opposite-Spin Energy  =      -1.6178672214292484 [Eh]
	 SCS Correlation Energy    =      -1.7660398295209796 [Eh]
	 SCS Total Energy          =    -760.0234195794026846 [Eh]
	-----------------------------------------------------------

  Dipole Moment: [D]
     X:    -0.2634      Y:     3.4786      Z:     1.1086     Total:     3.6605

*** Psi4 exiting successfully. Buy a developer a beer!
