                               Psi4 1.4a3.dev225

  ==> Input File <==

--------------------------------------------------------------------------
#psi4
#
memory 32 gb

molecule  {
0 1
  S       -1.4679970    -1.1088850     0.1509200
  O        1.4861710    -1.4617920    -0.3475990
  N        2.0488620     0.7112420     0.1011850
  C       -0.2873527     0.0998175    -0.0496168
  C        1.1480630    -0.2971330    -0.1085980
  C       -0.8491840     1.3674970    -0.1820640
  C       -2.2598870     1.3270920    -0.0933710
  C       -2.7341550     0.0450510     0.0925010
  C        3.4678020     0.4025420     0.1643440
  H       -0.2776640     2.2711280    -0.3728590
  H        1.7182220     1.5388600     0.5795510
  H       -2.9045110     2.1962980    -0.1738640
  H       -3.7641930    -0.2736150     0.1955190
  H        3.7134240    -0.2643480    -0.6614350
  H        3.7418120    -0.0946250     1.1012270
  H        4.0344840     1.3296500     0.0646150
units angstrom
no_reorient  #important for SAPT in psi4, default
symmetry c1  #important for SAPT in psi4, default
}

set PROPERTIES_ORIGIN ["COM"]
properties('MP2/aug-cc-pvtz', properties = ['dipole'])
--------------------------------------------------------------------------

    Molecular point group: c1
  Charge       = 0
  Multiplicity = 1
  Basis Set: AUG-CC-PVTZ
    Blend: AUG-CC-PVTZ
  Basis Set: (AUG-CC-PVTZ AUX)
    Blend: AUG-CC-PVTZ-JKFIT

    Orbital Energies [Eh]
    ---------------------

    Doubly Occupied:

       1A    -91.996909     2A    -20.523144     3A    -15.591184
       4A    -11.363062     5A    -11.277904     6A    -11.276773
       7A    -11.262083     8A    -11.261951     9A    -11.250696
      10A     -8.996965    11A     -6.677814    12A     -6.677274
      13A     -6.676573    14A     -1.377887    15A     -1.233080
      16A     -1.185592    17A     -1.018710    18A     -1.002129
      19A     -0.946110    20A     -0.831190    21A     -0.770703
      22A     -0.769094    23A     -0.721821    24A     -0.646235
      25A     -0.641346    26A     -0.625696    27A     -0.578180
      28A     -0.572119    29A     -0.558102    30A     -0.553063
      31A     -0.535524    32A     -0.512098    33A     -0.488033
      34A     -0.436092    35A     -0.400263    36A     -0.356980
      37A     -0.334979

  @DF-RHF Final Energy:  -758.26806736370884

   => Energetics <=

    Nuclear Repulsion Energy =            500.0792569650218411
    One-Electron Energy =               -2032.8399334235270999
    Two-Electron Energy =                 774.4926090947964212
    Total Energy =                       -758.2680673637088375
  Basis Set: (AUG-CC-PVTZ AUX)
    Blend: AUG-CC-PVTZ-RI
    Molecular point group: c1

    Geometry (in Angstrom), charge = 0, multiplicity = 1:

       Center              X                  Y                   Z               Mass
    ------------   -----------------  -----------------  -----------------  -----------------
         S           -1.423044963840    -1.060802588846     0.155889763505    31.972071174400
         O            1.531123036160    -1.413709588846    -0.342629236495    15.994914619570
         N            2.093814036160     0.759324411154     0.106154763505    14.003074004430
         C           -0.242400663840     0.147899911154    -0.044647036495    12.000000000000
         C            1.193015036160    -0.249050588846    -0.103628236495    12.000000000000
         C           -0.804231963840     1.415579411154    -0.177094236495    12.000000000000
         C           -2.214934963840     1.375174411154    -0.088401236495    12.000000000000
         C           -2.689202963840     0.093133411154     0.097470763505    12.000000000000
         C            3.512754036160     0.450624411154     0.169313763505    12.000000000000
         H           -0.232711963840     2.319210411154    -0.367889236495     1.007825032230
         H            1.763174036160     1.586942411154     0.584520763505     1.007825032230
         H           -2.859558963840     2.244380411154    -0.168894236495     1.007825032230
         H           -3.719240963840    -0.225532588846     0.200488763505     1.007825032230
         H            3.758376036160    -0.216265588846    -0.656465236495     1.007825032230
         H            3.786764036160    -0.046542588846     1.106196763505     1.007825032230
         H            4.079436036160     1.377732411154     0.069584763505     1.007825032230

  Basis Set: AUG-CC-PVTZ
    Blend: AUG-CC-PVTZ
  Basis Set: (AUG-CC-PVTZ AUX)
    Blend: AUG-CC-PVTZ-JKFIT
	 Reference Energy          =    -758.2680673637088375 [Eh]
	 Singles Energy            =      -0.0000000000000000 [Eh]
	 Same-Spin Energy          =      -0.4436279031486111 [Eh]
	 Opposite-Spin Energy      =      -1.3477540053495709 [Eh]
	 Correlation Energy        =      -1.7913819084981819 [Eh]
	 Total Energy              =    -760.0594492722070754 [Eh]

	 ================> DF-SCS-MP2 Energies <==================
	-----------------------------------------------------------
	 SCS Same-Spin Scale       =       0.3333333333333333 [-]
	 SCS Opposite-Spin Scale   =       1.2000000000000000 [-]
	 SCS Same-Spin Energy      =      -0.1478759677162037 [Eh]
	 SCS Opposite-Spin Energy  =      -1.6173048064194850 [Eh]
	 SCS Correlation Energy    =      -1.7651807741356886 [Eh]
	 SCS Total Energy          =    -760.0332481378445664 [Eh]
	-----------------------------------------------------------

  Dipole Moment: [D]
     X:    -0.3201      Y:     3.5874      Z:     1.0876     Total:     3.7623

*** Psi4 exiting successfully. Buy a developer a beer!
