                               Psi4 1.3.2 release

  ==> Input File <==

--------------------------------------------------------------------------
#psi4
#
memory 32 gb

molecule  {
0 1
  S       -1.4679970    -1.1088850     0.1509200
  O        1.4861710    -1.4617920    -0.3475990
  N        1.9362905     0.7984969     0.1162582
  C       -0.2734750     0.1140250    -0.0519740
  C        1.1480630    -0.2971330    -0.1085980
  C       -0.8491840     1.3674970    -0.1820640
  C       -2.2598870     1.3270920    -0.0933710
  C       -2.7341550     0.0450510     0.0925010
  C        3.4678020     0.4025420     0.1643440
  H       -0.2776640     2.2711280    -0.3728590
  H        1.7182220     1.5388600     0.5795510
  H       -2.9045110     2.1962980    -0.1738640
  H       -3.7641930    -0.2736150     0.1955190
  H        3.7134240    -0.2643480    -0.6614350
  H        3.7418120    -0.0946250     1.1012270
  H        4.0344840     1.3296500     0.0646150
units angstrom
no_reorient  #important for SAPT in psi4, default
symmetry c1  #important for SAPT in psi4, default
}

set PROPERTIES_ORIGIN ["COM"]
properties('MP2/aug-cc-pvtz', properties = ['dipole'])
--------------------------------------------------------------------------

    Molecular point group: c1
  Charge       = 0
  Multiplicity = 1
  Basis Set: AUG-CC-PVTZ
    Blend: AUG-CC-PVTZ
  Basis Set: (AUG-CC-PVTZ AUX)
    Blend: AUG-CC-PVTZ-JKFIT

    Orbital Energies [Eh]
    ---------------------

    Doubly Occupied:

       1A    -91.992226     2A    -20.530480     3A    -15.586678
       4A    -11.366961     5A    -11.275908     6A    -11.272995
       7A    -11.271103     8A    -11.258892     9A    -11.248115
      10A     -8.992109    11A     -6.672962    12A     -6.672388
      13A     -6.671738    14A     -1.378864    15A     -1.236375
      16A     -1.179812    17A     -1.014004    18A     -0.997565
      19A     -0.941847    20A     -0.857667    21A     -0.782438
      22A     -0.768096    23A     -0.718345    24A     -0.645722
      25A     -0.627261    26A     -0.616239    27A     -0.574952
      28A     -0.568630    29A     -0.564097    30A     -0.558475
      31A     -0.521357    32A     -0.512826    33A     -0.483616
      34A     -0.437304    35A     -0.413083    36A     -0.354133
      37A     -0.332665

  @DF-RHF Final Energy:  -758.24111245620531

   => Energetics <=

    Nuclear Repulsion Energy =            499.7541025798036571
    One-Electron Energy =               -2032.1945755273477516
    Two-Electron Energy =                 774.1993604913387799
    Total Energy =                       -758.2411124562053146
  Basis Set: (AUG-CC-PVTZ AUX)
    Blend: AUG-CC-PVTZ-RI
    Molecular point group: c1

    Geometry (in Angstrom), charge = 0, multiplicity = 1:

       Center              X                  Y                   Z               Mass
    ------------   -----------------  -----------------  -----------------  -----------------
         S           -1.413048039220    -1.070675508192     0.154593646158    31.972071174400
         O            1.541119960780    -1.423582508192    -0.343925353842    15.994914619570
         N            1.991239460780     0.836706391808     0.119931846158    14.003074004430
         C           -0.218526039220     0.152234491808    -0.048300353842    12.000000000000
         C            1.203011960780    -0.258923508192    -0.104924353842    12.000000000000
         C           -0.794235039220     1.405706491808    -0.178390353842    12.000000000000
         C           -2.204938039220     1.365301491808    -0.089697353842    12.000000000000
         C           -2.679206039220     0.083260491808     0.096174646158    12.000000000000
         C            3.522750960780     0.440751491808     0.168017646158    12.000000000000
         H           -0.222715039220     2.309337491808    -0.369185353842     1.007825032230
         H            1.773170960780     1.577069491808     0.583224646158     1.007825032230
         H           -2.849562039220     2.234507491808    -0.170190353842     1.007825032230
         H           -3.709244039220    -0.235405508192     0.199192646158     1.007825032230
         H            3.768372960780    -0.226138508192    -0.657761353842     1.007825032230
         H            3.796760960780    -0.056415508192     1.104900646158     1.007825032230
         H            4.089432960780     1.367859491808     0.068288646158     1.007825032230

  Basis Set: AUG-CC-PVTZ
    Blend: AUG-CC-PVTZ
  Basis Set: (AUG-CC-PVTZ AUX)
    Blend: AUG-CC-PVTZ-JKFIT
	 Reference Energy          =    -758.2411124562053146 [Eh]
	 Singles Energy            =      -0.0000000000000000 [Eh]
	 Same-Spin Energy          =      -0.4433542425849467 [Eh]
	 Opposite-Spin Energy      =      -1.3489696716925288 [Eh]
	 Correlation Energy        =      -1.7923239142774756 [Eh]
	 Total Energy              =    -760.0334363704828320 [Eh]

	 ================> DF-SCS-MP2 Energies <==================
	-----------------------------------------------------------
	 SCS Same-Spin Scale       =       0.3333333333333333 [-]
	 SCS Opposite-Spin Scale   =       1.2000000000000000 [-]
	 SCS Same-Spin Energy      =      -0.1477847475283156 [Eh]
	 SCS Opposite-Spin Energy  =      -1.6187636060310344 [Eh]
	 SCS Correlation Energy    =      -1.7665483535593500 [Eh]
	 SCS Total Energy          =    -760.0076608097646158 [Eh]
	-----------------------------------------------------------

  Dipole Moment: [D]
     X:     0.0351      Y:     3.4328      Z:     1.0992     Total:     3.6047

*** Psi4 exiting successfully. Buy a developer a beer!
