                               Psi4 1.3.2 release

  ==> Input File <==

--------------------------------------------------------------------------
#psi4
#
memory 32 gb

molecule  {
0 1
  S       -1.4679970    -1.1088850     0.1509200
  O        1.4861710    -1.4617920    -0.3475990
  N        2.0488620     0.7112420     0.1011850
  C       -0.2734750     0.1140250    -0.0519740
  C        1.1333075    -0.3460106    -0.1005284
  C       -0.8491840     1.3674970    -0.1820640
  C       -2.2598870     1.3270920    -0.0933710
  C       -2.7341550     0.0450510     0.0925010
  C        3.4678020     0.4025420     0.1643440
  H       -0.2776640     2.2711280    -0.3728590
  H        1.7182220     1.5388600     0.5795510
  H       -2.9045110     2.1962980    -0.1738640
  H       -3.7641930    -0.2736150     0.1955190
  H        3.7134240    -0.2643480    -0.6614350
  H        3.7418120    -0.0946250     1.1012270
  H        4.0344840     1.3296500     0.0646150
units angstrom
no_reorient  #important for SAPT in psi4, default
symmetry c1  #important for SAPT in psi4, default
}

set PROPERTIES_ORIGIN ["COM"]
properties('MP2/aug-cc-pvtz', properties = ['dipole'])
--------------------------------------------------------------------------

    Molecular point group: c1
  Charge       = 0
  Multiplicity = 1
  Basis Set: AUG-CC-PVTZ
    Blend: AUG-CC-PVTZ
  Basis Set: (AUG-CC-PVTZ AUX)
    Blend: AUG-CC-PVTZ-JKFIT

    Orbital Energies [Eh]
    ---------------------

    Doubly Occupied:

       1A    -91.996029     2A    -20.533537     3A    -15.581735
       4A    -11.363351     5A    -11.279634     6A    -11.276980
       7A    -11.263764     8A    -11.256900     9A    -11.251540
      10A     -8.995972    11A     -6.676829    12A     -6.676240
      13A     -6.675589    14A     -1.405291    15A     -1.221238
      16A     -1.184233    17A     -1.019744    18A     -1.001565
      19A     -0.937545    20A     -0.833187    21A     -0.772071
      22A     -0.759864    23A     -0.722305    24A     -0.653062
      25A     -0.639667    26A     -0.622628    27A     -0.588005
      28A     -0.574282    29A     -0.561959    30A     -0.550077
      31A     -0.531015    32A     -0.517227    33A     -0.488155
      34A     -0.441099    35A     -0.397773    36A     -0.357531
      37A     -0.336507

  @DF-RHF Final Energy:  -758.26726487413134

   => Energetics <=

    Nuclear Repulsion Energy =            500.0952789863518433
    One-Electron Energy =               -2032.8368282586202440
    Two-Electron Energy =                 774.4742843981371152
    Total Energy =                       -758.2672648741313424
  Basis Set: (AUG-CC-PVTZ AUX)
    Blend: AUG-CC-PVTZ-RI
    Molecular point group: c1

    Geometry (in Angstrom), charge = 0, multiplicity = 1:

       Center              X                  Y                   Z               Mass
    ------------   -----------------  -----------------  -----------------  -----------------
         S           -1.422970270613    -1.057852461658     0.155403687418    31.972071174400
         O            1.531197729387    -1.410759461658    -0.343115312582    15.994914619570
         N            2.093888729387     0.762274538342     0.105668687418    14.003074004430
         C           -0.228448270613     0.165057538342    -0.047490312582    12.000000000000
         C            1.178334229387    -0.294978061658    -0.096044712582    12.000000000000
         C           -0.804157270613     1.418529538342    -0.177580312582    12.000000000000
         C           -2.214860270613     1.378124538342    -0.088887312582    12.000000000000
         C           -2.689128270613     0.096083538342     0.096984687418    12.000000000000
         C            3.512828729387     0.453574538342     0.168827687418    12.000000000000
         H           -0.232637270613     2.322160538342    -0.368375312582     1.007825032230
         H            1.763248729387     1.589892538342     0.584034687418     1.007825032230
         H           -2.859484270613     2.247330538342    -0.169380312582     1.007825032230
         H           -3.719166270613    -0.222582461658     0.200002687418     1.007825032230
         H            3.758450729387    -0.213315461658    -0.656951312582     1.007825032230
         H            3.786838729387    -0.043592461658     1.105710687418     1.007825032230
         H            4.079510729387     1.380682538342     0.069098687418     1.007825032230

  Basis Set: AUG-CC-PVTZ
    Blend: AUG-CC-PVTZ
  Basis Set: (AUG-CC-PVTZ AUX)
    Blend: AUG-CC-PVTZ-JKFIT
	 Reference Energy          =    -758.2672648741313424 [Eh]
	 Singles Energy            =      -0.0000000000000000 [Eh]
	 Same-Spin Energy          =      -0.4429232735279285 [Eh]
	 Opposite-Spin Energy      =      -1.3466443522858293 [Eh]
	 Correlation Energy        =      -1.7895676258137578 [Eh]
	 Total Energy              =    -760.0568324999451306 [Eh]

	 ================> DF-SCS-MP2 Energies <==================
	-----------------------------------------------------------
	 SCS Same-Spin Scale       =       0.3333333333333333 [-]
	 SCS Opposite-Spin Scale   =       1.2000000000000000 [-]
	 SCS Same-Spin Energy      =      -0.1476410911759762 [Eh]
	 SCS Opposite-Spin Energy  =      -1.6159732227429953 [Eh]
	 SCS Correlation Energy    =      -1.7636143139189715 [Eh]
	 SCS Total Energy          =    -760.0308791880503350 [Eh]
	-----------------------------------------------------------

  Dipole Moment: [D]
     X:    -0.5286      Y:     3.2970      Z:     1.0186     Total:     3.4910

*** Psi4 exiting successfully. Buy a developer a beer!
