                               Psi4 1.3.2 release

  ==> Input File <==

--------------------------------------------------------------------------
#psi4
#
memory 32 gb

molecule  {
0 1
  S       -1.3908299    -1.0188029     0.1352754
  O        1.4861710    -1.4617920    -0.3475990
  N        2.0488620     0.7112420     0.1011850
  C       -0.2734750     0.1140250    -0.0519740
  C        1.1480630    -0.2971330    -0.1085980
  C       -0.8491840     1.3674970    -0.1820640
  C       -2.2598870     1.3270920    -0.0933710
  C       -2.7341550     0.0450510     0.0925010
  C        3.4678020     0.4025420     0.1643440
  H       -0.2776640     2.2711280    -0.3728590
  H        1.7182220     1.5388600     0.5795510
  H       -2.9045110     2.1962980    -0.1738640
  H       -3.7641930    -0.2736150     0.1955190
  H        3.7134240    -0.2643480    -0.6614350
  H        3.7418120    -0.0946250     1.1012270
  H        4.0344840     1.3296500     0.0646150
units angstrom
no_reorient  #important for SAPT in psi4, default
symmetry c1  #important for SAPT in psi4, default
}

set PROPERTIES_ORIGIN ["COM"]
properties('MP2/aug-cc-pvtz', properties = ['dipole'])
--------------------------------------------------------------------------

    Molecular point group: c1
  Charge       = 0
  Multiplicity = 1
  Basis Set: AUG-CC-PVTZ
    Blend: AUG-CC-PVTZ
  Basis Set: (AUG-CC-PVTZ AUX)
    Blend: AUG-CC-PVTZ-JKFIT

    Orbital Energies [Eh]
    ---------------------

    Doubly Occupied:

       1A    -91.991475     2A    -20.525857     3A    -15.592359
       4A    -11.365332     5A    -11.274815     6A    -11.267558
       7A    -11.262661     8A    -11.255946     9A    -11.250425
      10A     -8.994477    11A     -6.675566    12A     -6.674798
      13A     -6.674016    14A     -1.381061    15A     -1.235141
      16A     -1.202449    17A     -1.029707    18A     -1.000004
      19A     -0.949345    20A     -0.833591    21A     -0.776295
      22A     -0.769426    23A     -0.719181    24A     -0.650997
      25A     -0.644244    26A     -0.629279    27A     -0.581516
      28A     -0.571545    29A     -0.565276    30A     -0.556992
      31A     -0.543528    32A     -0.516090    33A     -0.477994
      34A     -0.439213    35A     -0.401660    36A     -0.356466
      37A     -0.336267

  @DF-RHF Final Energy:  -758.25943950496173

   => Energetics <=

    Nuclear Repulsion Energy =            505.4766075105584946
    One-Electron Energy =               -2043.5269871933912782
    Two-Electron Energy =                 779.7909401778709935
    Total Energy =                       -758.2594395049617333
  Basis Set: (AUG-CC-PVTZ AUX)
    Blend: AUG-CC-PVTZ-RI
    Molecular point group: c1

    Geometry (in Angstrom), charge = 0, multiplicity = 1:

       Center              X                  Y                   Z               Mass
    ------------   -----------------  -----------------  -----------------  -----------------
         S           -1.364553470963    -0.992352149058     0.143992564908    31.972071174400
         O            1.512447429037    -1.435341249058    -0.338881835092    15.994914619570
         N            2.075138429037     0.737692750942     0.109902164908    14.003074004430
         C           -0.247198570963     0.140475750942    -0.043256835092    12.000000000000
         C            1.174339429037    -0.270682249058    -0.099880835092    12.000000000000
         C           -0.822907570963     1.393947750942    -0.173346835092    12.000000000000
         C           -2.233610570963     1.353542750942    -0.084653835092    12.000000000000
         C           -2.707878570963     0.071501750942     0.101218164908    12.000000000000
         C            3.494078429037     0.428992750942     0.173061164908    12.000000000000
         H           -0.251387570963     2.297578750942    -0.364141835092     1.007825032230
         H            1.744498429037     1.565310750942     0.588268164908     1.007825032230
         H           -2.878234570963     2.222748750942    -0.165146835092     1.007825032230
         H           -3.737916570963    -0.247164249058     0.204236164908     1.007825032230
         H            3.739700429037    -0.237897249058    -0.652717835092     1.007825032230
         H            3.768088429037    -0.068174249058     1.109944164908     1.007825032230
         H            4.060760429037     1.356100750942     0.073332164908     1.007825032230

  Basis Set: AUG-CC-PVTZ
    Blend: AUG-CC-PVTZ
  Basis Set: (AUG-CC-PVTZ AUX)
    Blend: AUG-CC-PVTZ-JKFIT
	 Reference Energy          =    -758.2594395049617333 [Eh]
	 Singles Energy            =      -0.0000000000000000 [Eh]
	 Same-Spin Energy          =      -0.4450115804125313 [Eh]
	 Opposite-Spin Energy      =      -1.3475987091490542 [Eh]
	 Correlation Energy        =      -1.7926102895615856 [Eh]
	 Total Energy              =    -760.0520497945233274 [Eh]

	 ================> DF-SCS-MP2 Energies <==================
	-----------------------------------------------------------
	 SCS Same-Spin Scale       =       0.3333333333333333 [-]
	 SCS Opposite-Spin Scale   =       1.2000000000000000 [-]
	 SCS Same-Spin Energy      =      -0.1483371934708438 [Eh]
	 SCS Opposite-Spin Energy  =      -1.6171184509788650 [Eh]
	 SCS Correlation Energy    =      -1.7654556444497087 [Eh]
	 SCS Total Energy          =    -760.0248951494114635 [Eh]
	-----------------------------------------------------------

  Dipole Moment: [D]
     X:    -0.2632      Y:     3.5763      Z:     1.0856     Total:     3.7467

*** Psi4 exiting successfully. Buy a developer a beer!
