                               Psi4 1.4a3.dev225

  ==> Input File <==

--------------------------------------------------------------------------
#psi4
#
memory 32 gb

molecule  {
0 1
  S       -1.4679970    -1.1088850     0.1509200
  O        1.4861710    -1.4617920    -0.3475990
  N        2.0488620     0.7112420     0.1011850
  C       -0.2734750     0.1140250    -0.0519740
  C        1.1480630    -0.2971330    -0.1085980
  C       -0.8491840     1.3674970    -0.1820640
  C       -2.2598870     1.3270920    -0.0933710
  C       -2.7341550     0.0450510     0.0925010
  C        3.4678020     0.4025420     0.1643440
  H       -0.2513531     2.3127283    -0.3816426
  H        1.7182220     1.5388600     0.5795510
  H       -2.9045110     2.1962980    -0.1738640
  H       -3.7641930    -0.2736150     0.1955190
  H        3.7134240    -0.2643480    -0.6614350
  H        3.7418120    -0.0946250     1.1012270
  H        4.0344840     1.3296500     0.0646150
units angstrom
no_reorient  #important for SAPT in psi4, default
symmetry c1  #important for SAPT in psi4, default
}

set PROPERTIES_ORIGIN ["COM"]
properties('MP2/aug-cc-pvtz', properties = ['dipole'])
--------------------------------------------------------------------------

    Molecular point group: c1
  Charge       = 0
  Multiplicity = 1
  Basis Set: AUG-CC-PVTZ
    Blend: AUG-CC-PVTZ
  Basis Set: (AUG-CC-PVTZ AUX)
    Blend: AUG-CC-PVTZ-JKFIT

    Orbital Energies [Eh]
    ---------------------

    Doubly Occupied:

       1A    -91.996535     2A    -20.523406     3A    -15.590642
       4A    -11.362679     5A    -11.279542     6A    -11.277170
       7A    -11.268272     8A    -11.261609     9A    -11.251367
      10A     -8.996253    11A     -6.677085    12A     -6.676534
      13A     -6.675856    14A     -1.378098    15A     -1.233161
      16A     -1.184300    17A     -1.020489    18A     -0.999386
      19A     -0.945959    20A     -0.832388    21A     -0.770219
      22A     -0.768649    23A     -0.715659    24A     -0.646186
      25A     -0.641759    26A     -0.625887    27A     -0.578476
      28A     -0.569987    29A     -0.557518    30A     -0.552785
      31A     -0.532515    32A     -0.511678    33A     -0.486043
      34A     -0.436749    35A     -0.400185    36A     -0.357249
      37A     -0.336173

  @DF-RHF Final Energy:  -758.26605471247058

   => Energetics <=

    Nuclear Repulsion Energy =            499.6921115426995925
    One-Electron Energy =               -2032.0794348966353482
    Two-Electron Energy =                 774.1212686414651216
    Total Energy =                       -758.2660547124705772
  Basis Set: (AUG-CC-PVTZ AUX)
    Blend: AUG-CC-PVTZ-RI
    Molecular point group: c1

    Geometry (in Angstrom), charge = 0, multiplicity = 1:

       Center              X                  Y                   Z               Mass
    ------------   -----------------  -----------------  -----------------  -----------------
         S           -1.424413865875    -1.062308818750     0.156153112382    31.972071174400
         O            1.529754134125    -1.415215818750    -0.342365887618    15.994914619570
         N            2.092445134125     0.757818181250     0.106418112382    14.003074004430
         C           -0.229891865875     0.160601181250    -0.046740887618    12.000000000000
         C            1.191646134125    -0.250556818750    -0.103364887618    12.000000000000
         C           -0.805600865875     1.414073181250    -0.176830887618    12.000000000000
         C           -2.216303865875     1.373668181250    -0.088137887618    12.000000000000
         C           -2.690571865875     0.091627181250     0.097734112382    12.000000000000
         C            3.511385134125     0.449118181250     0.169577112382    12.000000000000
         H           -0.207769965875     2.359304481250    -0.376409487618     1.007825032230
         H            1.761805134125     1.585436181250     0.584784112382     1.007825032230
         H           -2.860927865875     2.242874181250    -0.168630887618     1.007825032230
         H           -3.720609865875    -0.227038818750     0.200752112382     1.007825032230
         H            3.757007134125    -0.217771818750    -0.656201887618     1.007825032230
         H            3.785395134125    -0.048048818750     1.106460112382     1.007825032230
         H            4.078067134125     1.376226181250     0.069848112382     1.007825032230

  Basis Set: AUG-CC-PVTZ
    Blend: AUG-CC-PVTZ
  Basis Set: (AUG-CC-PVTZ AUX)
    Blend: AUG-CC-PVTZ-JKFIT
	 Reference Energy          =    -758.2660547124705772 [Eh]
	 Singles Energy            =      -0.0000000000000000 [Eh]
	 Same-Spin Energy          =      -0.4436186354209229 [Eh]
	 Opposite-Spin Energy      =      -1.3481542533112503 [Eh]
	 Correlation Energy        =      -1.7917728887321731 [Eh]
	 Total Energy              =    -760.0578276012028027 [Eh]

	 ================> DF-SCS-MP2 Energies <==================
	-----------------------------------------------------------
	 SCS Same-Spin Scale       =       0.3333333333333333 [-]
	 SCS Opposite-Spin Scale   =       1.2000000000000000 [-]
	 SCS Same-Spin Energy      =      -0.1478728784736410 [Eh]
	 SCS Opposite-Spin Energy  =      -1.6177851039735003 [Eh]
	 SCS Correlation Energy    =      -1.7656579824471412 [Eh]
	 SCS Total Energy          =    -760.0317126949177009 [Eh]
	-----------------------------------------------------------

  Dipole Moment: [D]
     X:    -0.3405      Y:     3.6068      Z:     1.0819     Total:     3.7809

*** Psi4 exiting successfully. Buy a developer a beer!
