                               Psi4 1.3.2 release

  ==> Input File <==

--------------------------------------------------------------------------
#psi4
#
memory 32 gb

molecule  {
0 1
  S       -1.4679970    -1.1088850     0.1509200
  O        1.4861710    -1.4617920    -0.3475990
  N        2.0488620     0.7112420     0.1011850
  C       -0.3622855     0.0784222    -0.0379378
  C        1.1480630    -0.2971330    -0.1085980
  C       -0.8491840     1.3674970    -0.1820640
  C       -2.2598870     1.3270920    -0.0933710
  C       -2.7341550     0.0450510     0.0925010
  C        3.4678020     0.4025420     0.1643440
  H       -0.2776640     2.2711280    -0.3728590
  H        1.7182220     1.5388600     0.5795510
  H       -2.9045110     2.1962980    -0.1738640
  H       -3.7641930    -0.2736150     0.1955190
  H        3.7134240    -0.2643480    -0.6614350
  H        3.7418120    -0.0946250     1.1012270
  H        4.0344840     1.3296500     0.0646150
units angstrom
no_reorient  #important for SAPT in psi4, default
symmetry c1  #important for SAPT in psi4, default
}

set PROPERTIES_ORIGIN ["COM"]
properties('MP2/aug-cc-pvtz', properties = ['dipole'])
--------------------------------------------------------------------------

    Molecular point group: c1
  Charge       = 0
  Multiplicity = 1
  Basis Set: AUG-CC-PVTZ
    Blend: AUG-CC-PVTZ
  Basis Set: (AUG-CC-PVTZ AUX)
    Blend: AUG-CC-PVTZ-JKFIT

    Orbital Energies [Eh]
    ---------------------

    Doubly Occupied:

       1A    -91.996773     2A    -20.524377     3A    -15.593183
       4A    -11.366964     5A    -11.275656     6A    -11.271432
       7A    -11.263208     8A    -11.255230     9A    -11.248817
      10A     -8.998507    11A     -6.679518    12A     -6.678770
      13A     -6.678015    14A     -1.377382    15A     -1.233138
      16A     -1.194761    17A     -1.014075    18A     -1.004482
      19A     -0.946683    20A     -0.819719    21A     -0.770914
      22A     -0.766608    23A     -0.723503    24A     -0.645853
      25A     -0.640228    26A     -0.624901    27A     -0.576020
      28A     -0.564171    29A     -0.559942    30A     -0.553845
      31A     -0.542761    32A     -0.515668    33A     -0.494623
      34A     -0.431793    35A     -0.400785    36A     -0.358208
      37A     -0.332836

  @DF-RHF Final Energy:  -758.25934123126399

   => Energetics <=

    Nuclear Repulsion Energy =            500.6468018432781264
    One-Electron Energy =               -2033.9655904752125934
    Two-Electron Energy =                 775.0594474006704786
    Total Energy =                       -758.2593412312639884
  Basis Set: (AUG-CC-PVTZ AUX)
    Blend: AUG-CC-PVTZ-RI
    Molecular point group: c1

    Geometry (in Angstrom), charge = 0, multiplicity = 1:

       Center              X                  Y                   Z               Mass
    ------------   -----------------  -----------------  -----------------  -----------------
         S           -1.416668827326    -1.058982032913     0.154895981098    31.972071174400
         O            1.537499172674    -1.411889032913    -0.343623018902    15.994914619570
         N            2.100190172674     0.761144967087     0.105160981098    14.003074004430
         C           -0.310957327326     0.128325167087    -0.033961818902    12.000000000000
         C            1.199391172674    -0.247230032913    -0.104622018902    12.000000000000
         C           -0.797855827326     1.417399967087    -0.178088018902    12.000000000000
         C           -2.208558827326     1.376994967087    -0.089395018902    12.000000000000
         C           -2.682826827326     0.094953967087     0.096476981098    12.000000000000
         C            3.519130172674     0.452444967087     0.168319981098    12.000000000000
         H           -0.226335827326     2.321030967087    -0.368883018902     1.007825032230
         H            1.769550172674     1.588762967087     0.583526981098     1.007825032230
         H           -2.853182827326     2.246200967087    -0.169888018902     1.007825032230
         H           -3.712864827326    -0.223712032913     0.199494981098     1.007825032230
         H            3.764752172674    -0.214445032913    -0.657459018902     1.007825032230
         H            3.793140172674    -0.044722032913     1.105202981098     1.007825032230
         H            4.085812172674     1.379552967087     0.068590981098     1.007825032230

  Basis Set: AUG-CC-PVTZ
    Blend: AUG-CC-PVTZ
  Basis Set: (AUG-CC-PVTZ AUX)
    Blend: AUG-CC-PVTZ-JKFIT
	 Reference Energy          =    -758.2593412312639884 [Eh]
	 Singles Energy            =      -0.0000000000000000 [Eh]
	 Same-Spin Energy          =      -0.4438115338464639 [Eh]
	 Opposite-Spin Energy      =      -1.3475313720526270 [Eh]
	 Correlation Energy        =      -1.7913429058990908 [Eh]
	 Total Energy              =    -760.0506841371631026 [Eh]

	 ================> DF-SCS-MP2 Energies <==================
	-----------------------------------------------------------
	 SCS Same-Spin Scale       =       0.3333333333333333 [-]
	 SCS Opposite-Spin Scale   =       1.2000000000000000 [-]
	 SCS Same-Spin Energy      =      -0.1479371779488213 [Eh]
	 SCS Opposite-Spin Energy  =      -1.6170376464631524 [Eh]
	 SCS Correlation Energy    =      -1.7649748244119736 [Eh]
	 SCS Total Energy          =    -760.0243160556759676 [Eh]
	-----------------------------------------------------------

  Dipole Moment: [D]
     X:    -0.1722      Y:     3.4751      Z:     1.0962     Total:     3.6480

*** Psi4 exiting successfully. Buy a developer a beer!
