                               Psi4 1.3.2 release

  ==> Input File <==

--------------------------------------------------------------------------
#psi4
#
memory 32 gb

molecule  {
0 1
  S       -1.4679970    -1.1088850     0.1509200
  O        1.4861710    -1.4617920    -0.3475990
  N        2.0488620     0.7112420     0.1011850
  C       -0.2734750     0.1140250    -0.0519740
  C        1.1480630    -0.2971330    -0.1085980
  C       -0.8562427     1.4650971    -0.1949542
  C       -2.2598870     1.3270920    -0.0933710
  C       -2.7341550     0.0450510     0.0925010
  C        3.4678020     0.4025420     0.1643440
  H       -0.2776640     2.2711280    -0.3728590
  H        1.7182220     1.5388600     0.5795510
  H       -2.9045110     2.1962980    -0.1738640
  H       -3.7641930    -0.2736150     0.1955190
  H        3.7134240    -0.2643480    -0.6614350
  H        3.7418120    -0.0946250     1.1012270
  H        4.0344840     1.3296500     0.0646150
units angstrom
no_reorient  #important for SAPT in psi4, default
symmetry c1  #important for SAPT in psi4, default
}

set PROPERTIES_ORIGIN ["COM"]
properties('MP2/aug-cc-pvtz', properties = ['dipole'])
--------------------------------------------------------------------------

    Molecular point group: c1
  Charge       = 0
  Multiplicity = 1
  Basis Set: AUG-CC-PVTZ
    Blend: AUG-CC-PVTZ
  Basis Set: (AUG-CC-PVTZ AUX)
    Blend: AUG-CC-PVTZ-JKFIT

    Orbital Energies [Eh]
    ---------------------

    Doubly Occupied:

       1A    -92.002771     2A    -20.521891     3A    -15.590013
       4A    -11.361058     5A    -11.286326     6A    -11.279040
       7A    -11.266814     8A    -11.261169     9A    -11.253728
      10A     -9.001861    11A     -6.682663    12A     -6.682083
      13A     -6.681539    14A     -1.376813    15A     -1.232118
      16A     -1.174900    17A     -1.014864    18A     -1.005470
      19A     -0.943168    20A     -0.835581    21A     -0.775581
      22A     -0.767891    23A     -0.723002    24A     -0.645336
      25A     -0.636950    26A     -0.623988    27A     -0.597420
      28A     -0.568252    29A     -0.553844    30A     -0.551882
      31A     -0.528739    32A     -0.509161    33A     -0.489815
      34A     -0.434447    35A     -0.399645    36A     -0.358746
      37A     -0.326106

  @DF-RHF Final Energy:  -758.25153227450585

   => Energetics <=

    Nuclear Repulsion Energy =            497.9819339224896453
    One-Electron Energy =               -2028.5775822350685758
    Two-Electron Energy =                 772.3441160380731390
    Total Energy =                       -758.2515322745058484
  Basis Set: (AUG-CC-PVTZ AUX)
    Blend: AUG-CC-PVTZ-RI
    Molecular point group: c1

    Geometry (in Angstrom), charge = 0, multiplicity = 1:

       Center              X                  Y                   Z               Mass
    ------------   -----------------  -----------------  -----------------  -----------------
         S           -1.423625202065    -1.070316453547     0.157187186047    31.972071174400
         O            1.530542797935    -1.423223453547    -0.341331813953    15.994914619570
         N            2.093233797935     0.749810546453     0.107452186047    14.003074004430
         C           -0.229103202065     0.152593546453    -0.045706813953    12.000000000000
         C            1.192434797935    -0.258564453547    -0.102330813953    12.000000000000
         C           -0.811870902065     1.503665646453    -0.188687013953    12.000000000000
         C           -2.215515202065     1.365660546453    -0.087103813953    12.000000000000
         C           -2.689783202065     0.083619546453     0.098768186047    12.000000000000
         C            3.512173797935     0.441110546453     0.170611186047    12.000000000000
         H           -0.233292202065     2.309696546453    -0.366591813953     1.007825032230
         H            1.762593797935     1.577428546453     0.585818186047     1.007825032230
         H           -2.860139202065     2.234866546453    -0.167596813953     1.007825032230
         H           -3.719821202065    -0.235046453547     0.201786186047     1.007825032230
         H            3.757795797935    -0.225779453547    -0.655167813953     1.007825032230
         H            3.786183797935    -0.056056453547     1.107494186047     1.007825032230
         H            4.078855797935     1.368218546453     0.070882186047     1.007825032230

  Basis Set: AUG-CC-PVTZ
    Blend: AUG-CC-PVTZ
  Basis Set: (AUG-CC-PVTZ AUX)
    Blend: AUG-CC-PVTZ-JKFIT
	 Reference Energy          =    -758.2515322745058484 [Eh]
	 Singles Energy            =      -0.0000000000000000 [Eh]
	 Same-Spin Energy          =      -0.4452232762039310 [Eh]
	 Opposite-Spin Energy      =      -1.3506107736186326 [Eh]
	 Correlation Energy        =      -1.7958340498225636 [Eh]
	 Total Energy              =    -760.0473663243284363 [Eh]

	 ================> DF-SCS-MP2 Energies <==================
	-----------------------------------------------------------
	 SCS Same-Spin Scale       =       0.3333333333333333 [-]
	 SCS Opposite-Spin Scale   =       1.2000000000000000 [-]
	 SCS Same-Spin Energy      =      -0.1484077587346437 [Eh]
	 SCS Opposite-Spin Energy  =      -1.6207329283423590 [Eh]
	 SCS Correlation Energy    =      -1.7691406870770028 [Eh]
	 SCS Total Energy          =    -760.0206729615828181 [Eh]
	-----------------------------------------------------------

  Dipole Moment: [D]
     X:    -0.3884      Y:     3.5132      Z:     1.0921     Total:     3.6995

*** Psi4 exiting successfully. Buy a developer a beer!
