                               Psi4 1.3.2 release

  ==> Input File <==

--------------------------------------------------------------------------
#psi4
#
memory 32 gb

molecule  {
0 1
  S       -1.4679970    -1.1088850     0.1509200
  O        1.4861710    -1.4617920    -0.3475990
  N        2.0488620     0.7112420     0.1011850
  C       -0.2520860     0.0929563    -0.0508113
  C        1.1480630    -0.2971330    -0.1085980
  C       -0.8491840     1.3674970    -0.1820640
  C       -2.2598870     1.3270920    -0.0933710
  C       -2.7341550     0.0450510     0.0925010
  C        3.4678020     0.4025420     0.1643440
  H       -0.2776640     2.2711280    -0.3728590
  H        1.7182220     1.5388600     0.5795510
  H       -2.9045110     2.1962980    -0.1738640
  H       -3.7641930    -0.2736150     0.1955190
  H        3.7134240    -0.2643480    -0.6614350
  H        3.7418120    -0.0946250     1.1012270
  H        4.0344840     1.3296500     0.0646150
units angstrom
no_reorient  #important for SAPT in psi4, default
symmetry c1  #important for SAPT in psi4, default
}

set PROPERTIES_ORIGIN ["COM"]
properties('MP2/aug-cc-pvtz', properties = ['dipole'])
--------------------------------------------------------------------------

    Molecular point group: c1
  Charge       = 0
  Multiplicity = 1
  Basis Set: AUG-CC-PVTZ
    Blend: AUG-CC-PVTZ
  Basis Set: (AUG-CC-PVTZ AUX)
    Blend: AUG-CC-PVTZ-JKFIT

    Orbital Energies [Eh]
    ---------------------

    Doubly Occupied:

       1A    -91.998078     2A    -20.521345     3A    -15.589914
       4A    -11.359857     5A    -11.281039     6A    -11.277689
       7A    -11.267141     8A    -11.261187     9A    -11.252149
      10A     -8.997610    11A     -6.678425    12A     -6.677916
      13A     -6.677257    14A     -1.377689    15A     -1.232600
      16A     -1.181923    17A     -1.023158    18A     -1.000190
      19A     -0.945092    20A     -0.837768    21A     -0.770599
      22A     -0.769247    23A     -0.720360    24A     -0.646458
      25A     -0.641725    26A     -0.626027    27A     -0.579388
      28A     -0.574669    29A     -0.557902    30A     -0.552586
      31A     -0.534026    32A     -0.510418    33A     -0.483979
      34A     -0.436982    35A     -0.399542    36A     -0.356872
      37A     -0.334194

  @DF-RHF Final Energy:  -758.26616583641123

   => Energetics <=

    Nuclear Repulsion Energy =            499.9386392085768875
    One-Electron Energy =               -2032.5436055352729454
    Two-Electron Energy =                 774.3388004902848252
    Total Energy =                       -758.2661658364112327
  Basis Set: (AUG-CC-PVTZ AUX)
    Blend: AUG-CC-PVTZ-RI
    Molecular point group: c1

    Geometry (in Angstrom), charge = 0, multiplicity = 1:

       Center              X                  Y                   Z               Mass
    ------------   -----------------  -----------------  -----------------  -----------------
         S           -1.426045856554    -1.060218759764     0.155991405177    31.972071174400
         O            1.528122143446    -1.413125759764    -0.342527594823    15.994914619570
         N            2.090813143446     0.759908240236     0.106256405177    14.003074004430
         C           -0.210134856554     0.141622540236    -0.045739894823    12.000000000000
         C            1.190014143446    -0.248466759764    -0.103526594823    12.000000000000
         C           -0.807232856554     1.416163240236    -0.176992594823    12.000000000000
         C           -2.217935856554     1.375758240236    -0.088299594823    12.000000000000
         C           -2.692203856554     0.093717240236     0.097572405177    12.000000000000
         C            3.509753143446     0.451208240236     0.169415405177    12.000000000000
         H           -0.235712856554     2.319794240236    -0.367787594823     1.007825032230
         H            1.760173143446     1.587526240236     0.584622405177     1.007825032230
         H           -2.862559856554     2.244964240236    -0.168792594823     1.007825032230
         H           -3.722241856554    -0.224948759764     0.200590405177     1.007825032230
         H            3.755375143446    -0.215681759764    -0.656363594823     1.007825032230
         H            3.783763143446    -0.045958759764     1.106298405177     1.007825032230
         H            4.076435143446     1.378316240236     0.069686405177     1.007825032230

  Basis Set: AUG-CC-PVTZ
    Blend: AUG-CC-PVTZ
  Basis Set: (AUG-CC-PVTZ AUX)
    Blend: AUG-CC-PVTZ-JKFIT
	 Reference Energy          =    -758.2661658364112327 [Eh]
	 Singles Energy            =      -0.0000000000000000 [Eh]
	 Same-Spin Energy          =      -0.4440903410047516 [Eh]
	 Opposite-Spin Energy      =      -1.3484969292207887 [Eh]
	 Correlation Energy        =      -1.7925872702255403 [Eh]
	 Total Energy              =    -760.0587531066368001 [Eh]

	 ================> DF-SCS-MP2 Energies <==================
	-----------------------------------------------------------
	 SCS Same-Spin Scale       =       0.3333333333333333 [-]
	 SCS Opposite-Spin Scale   =       1.2000000000000000 [-]
	 SCS Same-Spin Energy      =      -0.1480301136682505 [Eh]
	 SCS Opposite-Spin Energy  =      -1.6181963150649463 [Eh]
	 SCS Correlation Energy    =      -1.7662264287331968 [Eh]
	 SCS Total Energy          =    -760.0323922651443809 [Eh]
	-----------------------------------------------------------

  Dipole Moment: [D]
     X:    -0.4221      Y:     3.6239      Z:     1.0877     Total:     3.8071

*** Psi4 exiting successfully. Buy a developer a beer!
