                               Psi4 1.3.2 release

  ==> Input File <==

--------------------------------------------------------------------------
#psi4
#
memory 32 gb

molecule  {
0 1
  S       -1.4679970    -1.1088850     0.1509200
  O        1.4861710    -1.4617920    -0.3475990
  N        1.9748369     0.7707011     0.1114999
  C       -0.2734750     0.1140250    -0.0519740
  C        1.1480630    -0.2971330    -0.1085980
  C       -0.8491840     1.3674970    -0.1820640
  C       -2.2598870     1.3270920    -0.0933710
  C       -2.7341550     0.0450510     0.0925010
  C        3.4678020     0.4025420     0.1643440
  H       -0.2776640     2.2711280    -0.3728590
  H        1.7182220     1.5388600     0.5795510
  H       -2.9045110     2.1962980    -0.1738640
  H       -3.7641930    -0.2736150     0.1955190
  H        3.7134240    -0.2643480    -0.6614350
  H        3.7418120    -0.0946250     1.1012270
  H        4.0344840     1.3296500     0.0646150
units angstrom
no_reorient  #important for SAPT in psi4, default
symmetry c1  #important for SAPT in psi4, default
}

set PROPERTIES_ORIGIN ["COM"]
properties('MP2/aug-cc-pvtz', properties = ['dipole'])
--------------------------------------------------------------------------

    Molecular point group: c1
  Charge       = 0
  Multiplicity = 1
  Basis Set: AUG-CC-PVTZ
    Blend: AUG-CC-PVTZ
  Basis Set: (AUG-CC-PVTZ AUX)
    Blend: AUG-CC-PVTZ-JKFIT

    Orbital Energies [Eh]
    ---------------------

    Doubly Occupied:

       1A    -91.993534     2A    -20.528021     3A    -15.588080
       4A    -11.365094     5A    -11.276975     6A    -11.272931
       7A    -11.269309     8A    -11.260157     9A    -11.249014
      10A     -8.993364    11A     -6.674211    12A     -6.673644
      13A     -6.672986    14A     -1.378328    15A     -1.234188
      16A     -1.181203    17A     -1.015947    18A     -0.998655
      19A     -0.942968    20A     -0.847564    21A     -0.779550
      22A     -0.769057    23A     -0.719522    24A     -0.644043
      25A     -0.632800    26A     -0.618970    27A     -0.574041
      28A     -0.571631    29A     -0.562855    30A     -0.557900
      31A     -0.526106    32A     -0.512524    33A     -0.484455
      34A     -0.437428    35A     -0.409076    36A     -0.355083
      37A     -0.333744

  @DF-RHF Final Energy:  -758.25667465947708

   => Energetics <=

    Nuclear Repulsion Energy =            499.7716640977200200
    One-Electron Energy =               -2032.2467611390793536
    Two-Electron Energy =                 774.2184223818821920
    Total Energy =                       -758.2566746594770848
  Basis Set: (AUG-CC-PVTZ AUX)
    Blend: AUG-CC-PVTZ-RI
    Molecular point group: c1

    Geometry (in Angstrom), charge = 0, multiplicity = 1:

       Center              X                  Y                   Z               Mass
    ------------   -----------------  -----------------  -----------------  -----------------
         S           -1.416875507564    -1.067915521666     0.155066121995    31.972071174400
         O            1.537292492436    -1.420822521666    -0.343452878005    15.994914619570
         N            2.025958392436     0.811670578334     0.115646021995    14.003074004430
         C           -0.222353507564     0.154994478334    -0.047827878005    12.000000000000
         C            1.199184492436    -0.256163521666    -0.104451878005    12.000000000000
         C           -0.798062507564     1.408466478334    -0.177917878005    12.000000000000
         C           -2.208765507564     1.368061478334    -0.089224878005    12.000000000000
         C           -2.683033507564     0.086020478334     0.096647121995    12.000000000000
         C            3.518923492436     0.443511478334     0.168490121995    12.000000000000
         H           -0.226542507564     2.312097478334    -0.368712878005     1.007825032230
         H            1.769343492436     1.579829478334     0.583697121995     1.007825032230
         H           -2.853389507564     2.237267478334    -0.169717878005     1.007825032230
         H           -3.713071507564    -0.232645521666     0.199665121995     1.007825032230
         H            3.764545492436    -0.223378521666    -0.657288878005     1.007825032230
         H            3.792933492436    -0.053655521666     1.105373121995     1.007825032230
         H            4.085605492436     1.370619478334     0.068761121995     1.007825032230

  Basis Set: AUG-CC-PVTZ
    Blend: AUG-CC-PVTZ
  Basis Set: (AUG-CC-PVTZ AUX)
    Blend: AUG-CC-PVTZ-JKFIT
	 Reference Energy          =    -758.2566746594770848 [Eh]
	 Singles Energy            =      -0.0000000000000000 [Eh]
	 Same-Spin Energy          =      -0.4432195689366107 [Eh]
	 Opposite-Spin Energy      =      -1.3481614848833279 [Eh]
	 Correlation Energy        =      -1.7913810538199386 [Eh]
	 Total Energy              =    -760.0480557132970034 [Eh]

	 ================> DF-SCS-MP2 Energies <==================
	-----------------------------------------------------------
	 SCS Same-Spin Scale       =       0.3333333333333333 [-]
	 SCS Opposite-Spin Scale   =       1.2000000000000000 [-]
	 SCS Same-Spin Energy      =      -0.1477398563122036 [Eh]
	 SCS Opposite-Spin Energy  =      -1.6177937818599935 [Eh]
	 SCS Correlation Energy    =      -1.7655336381721971 [Eh]
	 SCS Total Energy          =    -760.0222082976492857 [Eh]
	-----------------------------------------------------------

  Dipole Moment: [D]
     X:    -0.0823      Y:     3.4963      Z:     1.0957     Total:     3.6649

*** Psi4 exiting successfully. Buy a developer a beer!
