                               Psi4 1.3.2 release

  ==> Input File <==

--------------------------------------------------------------------------
#psi4
#
memory 32 gb

molecule  {
0 1
  S       -1.4679970    -1.1088850     0.1509200
  O        1.4861710    -1.4617920    -0.3475990
  N        2.0488620     0.7112420     0.1011850
  C       -0.2040865     0.1850625    -0.0637599
  C        1.1480630    -0.2971330    -0.1085980
  C       -0.8491840     1.3674970    -0.1820640
  C       -2.2598870     1.3270920    -0.0933710
  C       -2.7341550     0.0450510     0.0925010
  C        3.4678020     0.4025420     0.1643440
  H       -0.2776640     2.2711280    -0.3728590
  H        1.7182220     1.5388600     0.5795510
  H       -2.9045110     2.1962980    -0.1738640
  H       -3.7641930    -0.2736150     0.1955190
  H        3.7134240    -0.2643480    -0.6614350
  H        3.7418120    -0.0946250     1.1012270
  H        4.0344840     1.3296500     0.0646150
units angstrom
no_reorient  #important for SAPT in psi4, default
symmetry c1  #important for SAPT in psi4, default
}

set PROPERTIES_ORIGIN ["COM"]
properties('MP2/aug-cc-pvtz', properties = ['dipole'])
--------------------------------------------------------------------------

    Molecular point group: c1
  Charge       = 0
  Multiplicity = 1
  Basis Set: AUG-CC-PVTZ
    Blend: AUG-CC-PVTZ
  Basis Set: (AUG-CC-PVTZ AUX)
    Blend: AUG-CC-PVTZ-JKFIT

    Orbital Energies [Eh]
    ---------------------

    Doubly Occupied:

       1A    -91.991601     2A    -20.525124     3A    -15.589566
       4A    -11.361593     5A    -11.285065     6A    -11.277982
       7A    -11.266507     8A    -11.260774     9A    -11.251614
      10A     -8.990222    11A     -6.671044    12A     -6.670303
      13A     -6.669779    14A     -1.379629    15A     -1.235359
      16A     -1.179024    17A     -1.031818    18A     -0.994610
      19A     -0.946726    20A     -0.842806    21A     -0.774379
      22A     -0.769682    23A     -0.721981    24A     -0.647157
      25A     -0.643686    26A     -0.627801    27A     -0.587420
      28A     -0.577749    29A     -0.557375    30A     -0.552407
      31A     -0.522251    32A     -0.508935    33A     -0.473536
      34A     -0.438139    35A     -0.401246    36A     -0.361190
      37A     -0.336414

  @DF-RHF Final Energy:  -758.26001061512716

   => Energetics <=

    Nuclear Repulsion Energy =            499.3118988247421157
    One-Electron Energy =               -2031.2988385197882053
    Two-Electron Energy =                 773.7269290799190458
    Total Energy =                       -758.2600106151271575
  Basis Set: (AUG-CC-PVTZ AUX)
    Blend: AUG-CC-PVTZ-RI
    Molecular point group: c1

    Geometry (in Angstrom), charge = 0, multiplicity = 1:

       Center              X                  Y                   Z               Mass
    ------------   -----------------  -----------------  -----------------  -----------------
         S           -1.430130200988    -1.068056204848     0.157093219619    31.972071174400
         O            1.524037799012    -1.420963204848    -0.341425780381    15.994914619570
         N            2.086728799012     0.752070795152     0.107358219619    14.003074004430
         C           -0.166219700988     0.225891295152    -0.057586680381    12.000000000000
         C            1.185929799012    -0.256304204848    -0.102424780381    12.000000000000
         C           -0.811317200988     1.408325795152    -0.175890780381    12.000000000000
         C           -2.222020200988     1.367920795152    -0.087197780381    12.000000000000
         C           -2.696288200988     0.085879795152     0.098674219619    12.000000000000
         C            3.505668799012     0.443370795152     0.170517219619    12.000000000000
         H           -0.239797200988     2.311956795152    -0.366685780381     1.007825032230
         H            1.756088799012     1.579688795152     0.585724219619     1.007825032230
         H           -2.866644200988     2.237126795152    -0.167690780381     1.007825032230
         H           -3.726326200988    -0.232786204848     0.201692219619     1.007825032230
         H            3.751290799012    -0.223519204848    -0.655261780381     1.007825032230
         H            3.779678799012    -0.053796204848     1.107400219619     1.007825032230
         H            4.072350799012     1.370478795152     0.070788219619     1.007825032230

  Basis Set: AUG-CC-PVTZ
    Blend: AUG-CC-PVTZ
  Basis Set: (AUG-CC-PVTZ AUX)
    Blend: AUG-CC-PVTZ-JKFIT
	 Reference Energy          =    -758.2600106151271575 [Eh]
	 Singles Energy            =      -0.0000000000000000 [Eh]
	 Same-Spin Energy          =      -0.4433124348560374 [Eh]
	 Opposite-Spin Energy      =      -1.3485604359310841 [Eh]
	 Correlation Energy        =      -1.7918728707871214 [Eh]
	 Total Energy              =    -760.0518834859142316 [Eh]

	 ================> DF-SCS-MP2 Energies <==================
	-----------------------------------------------------------
	 SCS Same-Spin Scale       =       0.3333333333333333 [-]
	 SCS Opposite-Spin Scale   =       1.2000000000000000 [-]
	 SCS Same-Spin Energy      =      -0.1477708116186791 [Eh]
	 SCS Opposite-Spin Energy  =      -1.6182725231173010 [Eh]
	 SCS Correlation Energy    =      -1.7660433347359801 [Eh]
	 SCS Total Energy          =    -760.0260539498631260 [Eh]
	-----------------------------------------------------------

  Dipole Moment: [D]
     X:    -0.3338      Y:     3.7596      Z:     1.0524     Total:     3.9184

*** Psi4 exiting successfully. Buy a developer a beer!
