                               Psi4 1.3.2 release

  ==> Input File <==

--------------------------------------------------------------------------
#psi4
#
memory 32 gb

molecule  {
0 1
  S       -1.4679970    -1.1088850     0.1509200
  O        1.4861710    -1.4617920    -0.3475990
  N        2.0488620     0.7112420     0.1011850
  C       -0.2734750     0.1140250    -0.0519740
  C        1.1480630    -0.2971330    -0.1085980
  C       -0.8491840     1.3674970    -0.1820640
  C       -2.2579043     1.4728681    -0.1189295
  C       -2.7341550     0.0450510     0.0925010
  C        3.4678020     0.4025420     0.1643440
  H       -0.2776640     2.2711280    -0.3728590
  H        1.7182220     1.5388600     0.5795510
  H       -2.9045110     2.1962980    -0.1738640
  H       -3.7641930    -0.2736150     0.1955190
  H        3.7134240    -0.2643480    -0.6614350
  H        3.7418120    -0.0946250     1.1012270
  H        4.0344840     1.3296500     0.0646150
units angstrom
no_reorient  #important for SAPT in psi4, default
symmetry c1  #important for SAPT in psi4, default
}

set PROPERTIES_ORIGIN ["COM"]
properties('MP2/aug-cc-pvtz', properties = ['dipole'])
--------------------------------------------------------------------------

    Molecular point group: c1
  Charge       = 0
  Multiplicity = 1
  Basis Set: AUG-CC-PVTZ
    Blend: AUG-CC-PVTZ
  Basis Set: (AUG-CC-PVTZ AUX)
    Blend: AUG-CC-PVTZ-JKFIT

    Orbital Energies [Eh]
    ---------------------

    Doubly Occupied:

       1A    -92.006814     2A    -20.521481     3A    -15.588941
       4A    -11.361838     5A    -11.298466     6A    -11.273598
       7A    -11.266625     8A    -11.260541     9A    -11.257390
      10A     -9.005557    11A     -6.686326    12A     -6.685747
      13A     -6.685257    14A     -1.376650    15A     -1.231611
      16A     -1.172226    17A     -1.010699    18A     -1.008607
      19A     -0.941068    20A     -0.830093    21A     -0.790090
      22A     -0.766525    23A     -0.717010    24A     -0.658881
      25A     -0.644064    26A     -0.624764    27A     -0.593075
      28A     -0.558649    29A     -0.552491    30A     -0.546193
      31A     -0.529165    32A     -0.505970    33A     -0.491269
      34A     -0.436630    35A     -0.399323    36A     -0.362183
      37A     -0.320467

  @DF-RHF Final Energy:  -758.23498662778354

   => Energetics <=

    Nuclear Repulsion Energy =            497.4659521477469752
    One-Electron Energy =               -2027.4693091804260803
    Two-Electron Energy =                 771.7683704048955633
    Total Energy =                       -758.2349866277835417
  Basis Set: (AUG-CC-PVTZ AUX)
    Blend: AUG-CC-PVTZ-RI
    Molecular point group: c1

    Geometry (in Angstrom), charge = 0, multiplicity = 1:

       Center              X                  Y                   Z               Mass
    ------------   -----------------  -----------------  -----------------  -----------------
         S           -1.424394547407    -1.074415816613     0.158265149372    31.972071174400
         O            1.529773452593    -1.427322816613    -0.340253850628    15.994914619570
         N            2.092464452593     0.745711183387     0.108530149372    14.003074004430
         C           -0.229872547407     0.148494183387    -0.044628850628    12.000000000000
         C            1.191665452593    -0.262663816613    -0.101252850628    12.000000000000
         C           -0.805581547407     1.401966183387    -0.174718850628    12.000000000000
         C           -2.214301847407     1.507337283387    -0.111584350628    12.000000000000
         C           -2.690552547407     0.079520183387     0.099846149372    12.000000000000
         C            3.511404452593     0.437011183387     0.171689149372    12.000000000000
         H           -0.234061547407     2.305597183387    -0.365513850628     1.007825032230
         H            1.761824452593     1.573329183387     0.586896149372     1.007825032230
         H           -2.860908547407     2.230767183387    -0.166518850628     1.007825032230
         H           -3.720590547407    -0.239145816613     0.202864149372     1.007825032230
         H            3.757026452593    -0.229878816613    -0.654089850628     1.007825032230
         H            3.785414452593    -0.060155816613     1.108572149372     1.007825032230
         H            4.078086452593     1.364119183387     0.071960149372     1.007825032230

  Basis Set: AUG-CC-PVTZ
    Blend: AUG-CC-PVTZ
  Basis Set: (AUG-CC-PVTZ AUX)
    Blend: AUG-CC-PVTZ-JKFIT
	 Reference Energy          =    -758.2349866277835417 [Eh]
	 Singles Energy            =      -0.0000000000000000 [Eh]
	 Same-Spin Energy          =      -0.4457601827766501 [Eh]
	 Opposite-Spin Energy      =      -1.3519584898746917 [Eh]
	 Correlation Energy        =      -1.7977186726513419 [Eh]
	 Total Energy              =    -760.0327053004348272 [Eh]

	 ================> DF-SCS-MP2 Energies <==================
	-----------------------------------------------------------
	 SCS Same-Spin Scale       =       0.3333333333333333 [-]
	 SCS Opposite-Spin Scale   =       1.2000000000000000 [-]
	 SCS Same-Spin Energy      =      -0.1485867275922167 [Eh]
	 SCS Opposite-Spin Energy  =      -1.6223501878496300 [Eh]
	 SCS Correlation Energy    =      -1.7709369154418466 [Eh]
	 SCS Total Energy          =    -760.0059235432254354 [Eh]
	-----------------------------------------------------------

  Dipole Moment: [D]
     X:    -0.3119      Y:     3.5325      Z:     1.0962     Total:     3.7118

*** Psi4 exiting successfully. Buy a developer a beer!
