                               Psi4 1.3.2 release

  ==> Input File <==

--------------------------------------------------------------------------
#psi4
#
memory 32 gb

molecule  {
0 1
  S       -1.4679970    -1.1088850     0.1509200
  O        1.4861710    -1.4617920    -0.3475990
  N        2.0488620     0.7112420     0.1011850
  C       -0.2734750     0.1140250    -0.0519740
  C        1.1480630    -0.2971330    -0.1085980
  C       -0.8485115     1.3430062    -0.1790909
  C       -2.2598870     1.3270920    -0.0933710
  C       -2.7341550     0.0450510     0.0925010
  C        3.4678020     0.4025420     0.1643440
  H       -0.2776640     2.2711280    -0.3728590
  H        1.7182220     1.5388600     0.5795510
  H       -2.9045110     2.1962980    -0.1738640
  H       -3.7641930    -0.2736150     0.1955190
  H        3.7134240    -0.2643480    -0.6614350
  H        3.7418120    -0.0946250     1.1012270
  H        4.0344840     1.3296500     0.0646150
units angstrom
no_reorient  #important for SAPT in psi4, default
symmetry c1  #important for SAPT in psi4, default
}

set PROPERTIES_ORIGIN ["COM"]
properties('MP2/aug-cc-pvtz', properties = ['dipole'])
--------------------------------------------------------------------------

    Molecular point group: c1
  Charge       = 0
  Multiplicity = 1
  Basis Set: AUG-CC-PVTZ
    Blend: AUG-CC-PVTZ
  Basis Set: (AUG-CC-PVTZ AUX)
    Blend: AUG-CC-PVTZ-JKFIT

    Orbital Energies [Eh]
    ---------------------

    Doubly Occupied:

       1A    -91.994641     2A    -20.523871     3A    -15.591066
       4A    -11.363165     5A    -11.279267     6A    -11.274261
       7A    -11.261860     8A    -11.261729     9A    -11.250365
      10A     -8.994533    11A     -6.675371    12A     -6.674831
      13A     -6.674122    14A     -1.378510    15A     -1.233659
      16A     -1.187023    17A     -1.022460    18A     -0.999626
      19A     -0.947201    20A     -0.832819    21A     -0.771959
      22A     -0.769206    23A     -0.720285    24A     -0.646872
      25A     -0.643004    26A     -0.626455    27A     -0.581376
      28A     -0.568931    29A     -0.558432    30A     -0.553170
      31A     -0.533246    32A     -0.512225    33A     -0.485004
      34A     -0.437227    35A     -0.400515    36A     -0.357030
      37A     -0.338198

  @DF-RHF Final Energy:  -758.26872687441369

   => Energetics <=

    Nuclear Repulsion Energy =            500.4489803653534068
    One-Electron Energy =               -2033.5883834163169013
    Two-Electron Energy =                 774.8706761765497504
    Total Energy =                       -758.2687268744136873
  Basis Set: (AUG-CC-PVTZ AUX)
    Blend: AUG-CC-PVTZ-RI
    Molecular point group: c1

    Geometry (in Angstrom), charge = 0, multiplicity = 1:

       Center              X                  Y                   Z               Mass
    ------------   -----------------  -----------------  -----------------  -----------------
         S           -1.424283060661    -1.059927568499     0.155837355715    31.972071174400
         O            1.529884939339    -1.412834568499    -0.342681644285    15.994914619570
         N            2.092575939339     0.760199431501     0.106102355715    14.003074004430
         C           -0.229761060661     0.162982431501    -0.047056644285    12.000000000000
         C            1.191776939339    -0.248175568499    -0.103680644285    12.000000000000
         C           -0.804797560661     1.391963631501    -0.174173544285    12.000000000000
         C           -2.216173060661     1.376049431501    -0.088453644285    12.000000000000
         C           -2.690441060661     0.094008431501     0.097418355715    12.000000000000
         C            3.511515939339     0.451499431501     0.169261355715    12.000000000000
         H           -0.233950060661     2.320085431501    -0.367941644285     1.007825032230
         H            1.761935939339     1.587817431501     0.584468355715     1.007825032230
         H           -2.860797060661     2.245255431501    -0.168946644285     1.007825032230
         H           -3.720479060661    -0.224657568499     0.200436355715     1.007825032230
         H            3.757137939339    -0.215390568499    -0.656517644285     1.007825032230
         H            3.785525939339    -0.045667568499     1.106144355715     1.007825032230
         H            4.078197939339     1.378607431501     0.069532355715     1.007825032230

  Basis Set: AUG-CC-PVTZ
    Blend: AUG-CC-PVTZ
  Basis Set: (AUG-CC-PVTZ AUX)
    Blend: AUG-CC-PVTZ-JKFIT
	 Reference Energy          =    -758.2687268744136873 [Eh]
	 Singles Energy            =      -0.0000000000000000 [Eh]
	 Same-Spin Energy          =      -0.4431513764525992 [Eh]
	 Opposite-Spin Energy      =      -1.3472724528730626 [Eh]
	 Correlation Energy        =      -1.7904238293256618 [Eh]
	 Total Energy              =    -760.0591507037393058 [Eh]

	 ================> DF-SCS-MP2 Energies <==================
	-----------------------------------------------------------
	 SCS Same-Spin Scale       =       0.3333333333333333 [-]
	 SCS Opposite-Spin Scale   =       1.2000000000000000 [-]
	 SCS Same-Spin Energy      =      -0.1477171254841997 [Eh]
	 SCS Opposite-Spin Energy  =      -1.6167269434476752 [Eh]
	 SCS Correlation Energy    =      -1.7644440689318750 [Eh]
	 SCS Total Energy          =    -760.0331709433455671 [Eh]
	-----------------------------------------------------------

  Dipole Moment: [D]
     X:    -0.3147      Y:     3.6386      Z:     1.0802     Total:     3.8086

*** Psi4 exiting successfully. Buy a developer a beer!
