                               Psi4 1.3.2 release

  ==> Input File <==

--------------------------------------------------------------------------
#psi4
#
memory 32 gb

molecule  {
0 1
  S       -1.4679970    -1.1088850     0.1509200
  O        1.4444818    -1.4724508    -0.3507407
  N        2.0488620     0.7112420     0.1011850
  C       -0.2734750     0.1140250    -0.0519740
  C        1.1480630    -0.2971330    -0.1085980
  C       -0.8491840     1.3674970    -0.1820640
  C       -2.2598870     1.3270920    -0.0933710
  C       -2.7341550     0.0450510     0.0925010
  C        3.4678020     0.4025420     0.1643440
  H       -0.2776640     2.2711280    -0.3728590
  H        1.7182220     1.5388600     0.5795510
  H       -2.9045110     2.1962980    -0.1738640
  H       -3.7641930    -0.2736150     0.1955190
  H        3.7134240    -0.2643480    -0.6614350
  H        3.7418120    -0.0946250     1.1012270
  H        4.0344840     1.3296500     0.0646150
units angstrom
no_reorient  #important for SAPT in psi4, default
symmetry c1  #important for SAPT in psi4, default
}

set PROPERTIES_ORIGIN ["COM"]
properties('MP2/aug-cc-pvtz', properties = ['dipole'])
--------------------------------------------------------------------------

    Molecular point group: c1
  Charge       = 0
  Multiplicity = 1
  Basis Set: AUG-CC-PVTZ
    Blend: AUG-CC-PVTZ
  Basis Set: (AUG-CC-PVTZ AUX)
    Blend: AUG-CC-PVTZ-JKFIT

    Orbital Energies [Eh]
    ---------------------

    Doubly Occupied:

       1A    -91.994862     2A    -20.524327     3A    -15.593114
       4A    -11.363201     5A    -11.277846     6A    -11.275043
       7A    -11.263375     8A    -11.261196     9A    -11.249678
      10A     -8.994581    11A     -6.675412    12A     -6.674860
      13A     -6.674186    14A     -1.378285    15A     -1.236157
      16A     -1.182886    17A     -1.019442    18A     -0.999607
      19A     -0.947172    20A     -0.832982    21A     -0.770547
      22A     -0.769844    23A     -0.720912    24A     -0.647399
      25A     -0.641843    26A     -0.626751    27A     -0.579381
      28A     -0.572400    29A     -0.558207    30A     -0.554621
      31A     -0.532358    32A     -0.511209    33A     -0.485095
      34A     -0.436556    35A     -0.402230    36A     -0.355815
      37A     -0.334522

  @DF-RHF Final Energy:  -758.26827585612375

   => Energetics <=

    Nuclear Repulsion Energy =            500.1551205742946422
    One-Electron Energy =               -2033.0109961092755384
    Two-Electron Energy =                 774.5875996788571456
    Total Energy =                       -758.2682758561237506
  Basis Set: (AUG-CC-PVTZ AUX)
    Blend: AUG-CC-PVTZ-RI
    Molecular point group: c1

    Geometry (in Angstrom), charge = 0, multiplicity = 1:

       Center              X                  Y                   Z               Mass
    ------------   -----------------  -----------------  -----------------  -----------------
         S           -1.419497483749    -1.060802612984     0.156446669835    31.972071174400
         O            1.492981316251    -1.424368412984    -0.345214030165    15.994914619570
         N            2.097361516251     0.759324387016     0.106711669835    14.003074004430
         C           -0.224975483749     0.162107387016    -0.046447330165    12.000000000000
         C            1.196562516251    -0.249050612984    -0.103071330165    12.000000000000
         C           -0.800684483749     1.415579387016    -0.176537330165    12.000000000000
         C           -2.211387483749     1.375174387016    -0.087844330165    12.000000000000
         C           -2.685655483749     0.093133387016     0.098027669835    12.000000000000
         C            3.516301516251     0.450624387016     0.169870669835    12.000000000000
         H           -0.229164483749     2.319210387016    -0.367332330165     1.007825032230
         H            1.766721516251     1.586942387016     0.585077669835     1.007825032230
         H           -2.856011483749     2.244380387016    -0.168337330165     1.007825032230
         H           -3.715693483749    -0.225532612984     0.201045669835     1.007825032230
         H            3.761923516251    -0.216265612984    -0.655908330165     1.007825032230
         H            3.790311516251    -0.046542612984     1.106753669835     1.007825032230
         H            4.082983516251     1.377732387016     0.070141669835     1.007825032230

  Basis Set: AUG-CC-PVTZ
    Blend: AUG-CC-PVTZ
  Basis Set: (AUG-CC-PVTZ AUX)
    Blend: AUG-CC-PVTZ-JKFIT
	 Reference Energy          =    -758.2682758561237506 [Eh]
	 Singles Energy            =      -0.0000000000000000 [Eh]
	 Same-Spin Energy          =      -0.4434448465437917 [Eh]
	 Opposite-Spin Energy      =      -1.3477554890874255 [Eh]
	 Correlation Energy        =      -1.7912003356312172 [Eh]
	 Total Energy              =    -760.0594761917549249 [Eh]

	 ================> DF-SCS-MP2 Energies <==================
	-----------------------------------------------------------
	 SCS Same-Spin Scale       =       0.3333333333333333 [-]
	 SCS Opposite-Spin Scale   =       1.2000000000000000 [-]
	 SCS Same-Spin Energy      =      -0.1478149488479306 [Eh]
	 SCS Opposite-Spin Energy  =      -1.6173065869049106 [Eh]
	 SCS Correlation Energy    =      -1.7651215357528411 [Eh]
	 SCS Total Energy          =    -760.0333973918766333 [Eh]
	-----------------------------------------------------------

  Dipole Moment: [D]
     X:    -0.1642      Y:     3.6268      Z:     1.0886     Total:     3.7902

*** Psi4 exiting successfully. Buy a developer a beer!
