                               Psi4 1.3.2 release

  ==> Input File <==

--------------------------------------------------------------------------
#psi4
#
memory 32 gb

molecule  {
0 1
  S       -1.4679970    -1.1088850     0.1509200
  O        1.4861710    -1.4617920    -0.3475990
  N        2.0488620     0.7112420     0.1011850
  C       -0.2734750     0.1140250    -0.0519740
  C        1.1480630    -0.2971330    -0.1085980
  C       -0.8491840     1.3674970    -0.1820640
  C       -2.2598870     1.3270920    -0.0933710
  C       -2.6887116     0.0291283     0.0923907
  C        3.4678020     0.4025420     0.1643440
  H       -0.2776640     2.2711280    -0.3728590
  H        1.7182220     1.5388600     0.5795510
  H       -2.9045110     2.1962980    -0.1738640
  H       -3.7641930    -0.2736150     0.1955190
  H        3.7134240    -0.2643480    -0.6614350
  H        3.7418120    -0.0946250     1.1012270
  H        4.0344840     1.3296500     0.0646150
units angstrom
no_reorient  #important for SAPT in psi4, default
symmetry c1  #important for SAPT in psi4, default
}

set PROPERTIES_ORIGIN ["COM"]
properties('MP2/aug-cc-pvtz', properties = ['dipole'])
--------------------------------------------------------------------------

    Molecular point group: c1
  Charge       = 0
  Multiplicity = 1
  Basis Set: AUG-CC-PVTZ
    Blend: AUG-CC-PVTZ
  Basis Set: (AUG-CC-PVTZ AUX)
    Blend: AUG-CC-PVTZ-JKFIT

    Orbital Energies [Eh]
    ---------------------

    Doubly Occupied:

       1A    -91.997442     2A    -20.522238     3A    -15.589837
       4A    -11.361482     5A    -11.278951     6A    -11.274113
       7A    -11.262364     8A    -11.261093     9A    -11.248893
      10A     -8.998088    11A     -6.679008    12A     -6.678331
      13A     -6.677650    14A     -1.377136    15A     -1.232442
      16A     -1.189918    17A     -1.019226    18A     -1.006469
      19A     -0.944399    20A     -0.831482    21A     -0.769758
      22A     -0.764623    23A     -0.723217    24A     -0.644667
      25A     -0.641246    26A     -0.624430    27A     -0.578648
      28A     -0.565438    29A     -0.559155    30A     -0.551246
      31A     -0.535716    32A     -0.513738    33A     -0.492267
      34A     -0.435942    35A     -0.399720    36A     -0.358917
      37A     -0.334534

  @DF-RHF Final Energy:  -758.26589629066461

   => Energetics <=

    Nuclear Repulsion Energy =            501.0544490742805692
    One-Electron Energy =               -2034.7930429176444704
    Two-Electron Energy =                 775.4726975526994011
    Total Energy =                       -758.2658962906646138
  Basis Set: (AUG-CC-PVTZ AUX)
    Blend: AUG-CC-PVTZ-RI
    Molecular point group: c1

    Geometry (in Angstrom), charge = 0, multiplicity = 1:

       Center              X                  Y                   Z               Mass
    ------------   -----------------  -----------------  -----------------  -----------------
         S           -1.428092679016    -1.060656640084     0.156099726523    31.972071174400
         O            1.526075320984    -1.413563640084    -0.342419273477    15.994914619570
         N            2.088766320984     0.759470359916     0.106364726523    14.003074004430
         C           -0.233570679016     0.162253359916    -0.046794273477    12.000000000000
         C            1.187967320984    -0.248904640084    -0.103418273477    12.000000000000
         C           -0.809279679016     1.415725359916    -0.176884273477    12.000000000000
         C           -2.219982679016     1.375320359916    -0.088191273477    12.000000000000
         C           -2.648807279016     0.077356659916     0.097570426523    12.000000000000
         C            3.507706320984     0.450770359916     0.169523726523    12.000000000000
         H           -0.237759679016     2.319356359916    -0.367679273477     1.007825032230
         H            1.758126320984     1.587088359916     0.584730726523     1.007825032230
         H           -2.864606679016     2.244526359916    -0.168684273477     1.007825032230
         H           -3.724288679016    -0.225386640084     0.200698726523     1.007825032230
         H            3.753328320984    -0.216119640084    -0.656255273477     1.007825032230
         H            3.781716320984    -0.046396640084     1.106406726523     1.007825032230
         H            4.074388320984     1.377878359916     0.069794726523     1.007825032230

  Basis Set: AUG-CC-PVTZ
    Blend: AUG-CC-PVTZ
  Basis Set: (AUG-CC-PVTZ AUX)
    Blend: AUG-CC-PVTZ-JKFIT
	 Reference Energy          =    -758.2658962906646138 [Eh]
	 Singles Energy            =      -0.0000000000000000 [Eh]
	 Same-Spin Energy          =      -0.4439126040851005 [Eh]
	 Opposite-Spin Energy      =      -1.3476678813799841 [Eh]
	 Correlation Energy        =      -1.7915804854650845 [Eh]
	 Total Energy              =    -760.0574767761296471 [Eh]

	 ================> DF-SCS-MP2 Energies <==================
	-----------------------------------------------------------
	 SCS Same-Spin Scale       =       0.3333333333333333 [-]
	 SCS Opposite-Spin Scale   =       1.2000000000000000 [-]
	 SCS Same-Spin Energy      =      -0.1479708680283668 [Eh]
	 SCS Opposite-Spin Energy  =      -1.6172014576559808 [Eh]
	 SCS Correlation Energy    =      -1.7651723256843477 [Eh]
	 SCS Total Energy          =    -760.0310686163489891 [Eh]
	-----------------------------------------------------------

  Dipole Moment: [D]
     X:    -0.3600      Y:     3.5693      Z:     1.0878     Total:     3.7487

*** Psi4 exiting successfully. Buy a developer a beer!
