                               Psi4 1.4a3.dev225

  ==> Input File <==

--------------------------------------------------------------------------
#psi4
#
memory 32 gb

molecule  {
0 1
  S       -1.4679970    -1.1088850     0.1509200
  O        1.4861710    -1.4617920    -0.3475990
  N        2.0488620     0.7112420     0.1011850
  C       -0.2734750     0.1140250    -0.0519740
  C        1.1288645    -0.2915801    -0.1078333
  C       -0.8491840     1.3674970    -0.1820640
  C       -2.2598870     1.3270920    -0.0933710
  C       -2.7341550     0.0450510     0.0925010
  C        3.4678020     0.4025420     0.1643440
  H       -0.2776640     2.2711280    -0.3728590
  H        1.7182220     1.5388600     0.5795510
  H       -2.9045110     2.1962980    -0.1738640
  H       -3.7641930    -0.2736150     0.1955190
  H        3.7134240    -0.2643480    -0.6614350
  H        3.7418120    -0.0946250     1.1012270
  H        4.0344840     1.3296500     0.0646150
units angstrom
no_reorient  #important for SAPT in psi4, default
symmetry c1  #important for SAPT in psi4, default
}

set PROPERTIES_ORIGIN ["COM"]
properties('MP2/aug-cc-pvtz', properties = ['dipole'])
--------------------------------------------------------------------------

    Molecular point group: c1
  Charge       = 0
  Multiplicity = 1
  Basis Set: AUG-CC-PVTZ
    Blend: AUG-CC-PVTZ
  Basis Set: (AUG-CC-PVTZ AUX)
    Blend: AUG-CC-PVTZ-JKFIT

    Orbital Energies [Eh]
    ---------------------

    Doubly Occupied:

       1A    -91.997685     2A    -20.521707     3A    -15.589641
       4A    -11.362550     5A    -11.281218     6A    -11.276929
       7A    -11.265044     8A    -11.260770     9A    -11.252187
      10A     -8.997394    11A     -6.678220    12A     -6.677664
      13A     -6.676989    14A     -1.370938    15A     -1.228636
      16A     -1.186049    17A     -1.024243    18A     -1.002530
      19A     -0.945198    20A     -0.836794    21A     -0.772852
      22A     -0.765986    23A     -0.723432    24A     -0.645473
      25A     -0.639143    26A     -0.623902    27A     -0.579765
      28A     -0.574385    29A     -0.558080    30A     -0.551463
      31A     -0.533992    32A     -0.509457    33A     -0.487413
      34A     -0.436097    35A     -0.397651    36A     -0.358251
      37A     -0.337386

  @DF-RHF Final Energy:  -758.26671200793828

   => Energetics <=

    Nuclear Repulsion Energy =            499.9910013239584146
    One-Electron Energy =               -2032.6612003295306295
    Two-Electron Energy =                 774.4034869976338769
    Total Energy =                       -758.2667120079382812
  Basis Set: (AUG-CC-PVTZ AUX)
    Blend: AUG-CC-PVTZ-RI
    Molecular point group: c1

    Geometry (in Angstrom), charge = 0, multiplicity = 1:

       Center              X                  Y                   Z               Mass
    ------------   -----------------  -----------------  -----------------  -----------------
         S           -1.422592209543    -1.062484028856     0.156025271552    31.972071174400
         O            1.531575790457    -1.415391028856    -0.342493728448    15.994914619570
         N            2.094266790457     0.757642971144     0.106290271552    14.003074004430
         C           -0.228070209543     0.160425971144    -0.046868728448    12.000000000000
         C            1.174269290457    -0.245179128856    -0.102728028448    12.000000000000
         C           -0.803779209543     1.413897971144    -0.176958728448    12.000000000000
         C           -2.214482209543     1.373492971144    -0.088265728448    12.000000000000
         C           -2.688750209543     0.091451971144     0.097606271552    12.000000000000
         C            3.513206790457     0.448942971144     0.169449271552    12.000000000000
         H           -0.232259209543     2.317528971144    -0.367753728448     1.007825032230
         H            1.763626790457     1.585260971144     0.584656271552     1.007825032230
         H           -2.859106209543     2.242698971144    -0.168758728448     1.007825032230
         H           -3.718788209543    -0.227214028856     0.200624271552     1.007825032230
         H            3.758828790457    -0.217947028856    -0.656329728448     1.007825032230
         H            3.787216790457    -0.048224028856     1.106332271552     1.007825032230
         H            4.079888790457     1.376050971144     0.069720271552     1.007825032230

  Basis Set: AUG-CC-PVTZ
    Blend: AUG-CC-PVTZ
  Basis Set: (AUG-CC-PVTZ AUX)
    Blend: AUG-CC-PVTZ-JKFIT
	 Reference Energy          =    -758.2667120079382812 [Eh]
	 Singles Energy            =      -0.0000000000000000 [Eh]
	 Same-Spin Energy          =      -0.4439141117518690 [Eh]
	 Opposite-Spin Energy      =      -1.3485505106375837 [Eh]
	 Correlation Energy        =      -1.7924646223894527 [Eh]
	 Total Energy              =    -760.0591766303277836 [Eh]

	 ================> DF-SCS-MP2 Energies <==================
	-----------------------------------------------------------
	 SCS Same-Spin Scale       =       0.3333333333333333 [-]
	 SCS Opposite-Spin Scale   =       1.2000000000000000 [-]
	 SCS Same-Spin Energy      =      -0.1479713705839563 [Eh]
	 SCS Opposite-Spin Energy  =      -1.6182606127651005 [Eh]
	 SCS Correlation Energy    =      -1.7662319833490567 [Eh]
	 SCS Total Energy          =    -760.0329439912873113 [Eh]
	-----------------------------------------------------------

  Dipole Moment: [D]
     X:    -0.4886      Y:     3.6398      Z:     1.0844     Total:     3.8292

*** Psi4 exiting successfully. Buy a developer a beer!
