                               Psi4 1.3.2 release

  ==> Input File <==

--------------------------------------------------------------------------
#psi4
#
memory 32 gb

molecule  {
0 1
  S       -1.4679970    -1.1088850     0.1509200
  O        1.4861710    -1.4617920    -0.3475990
  N        2.0488620     0.7112420     0.1011850
  C       -0.2516146     0.1240284    -0.0545762
  C        1.1480630    -0.2971330    -0.1085980
  C       -0.8491840     1.3674970    -0.1820640
  C       -2.2598870     1.3270920    -0.0933710
  C       -2.7341550     0.0450510     0.0925010
  C        3.4678020     0.4025420     0.1643440
  H       -0.2776640     2.2711280    -0.3728590
  H        1.7182220     1.5388600     0.5795510
  H       -2.9045110     2.1962980    -0.1738640
  H       -3.7641930    -0.2736150     0.1955190
  H        3.7134240    -0.2643480    -0.6614350
  H        3.7418120    -0.0946250     1.1012270
  H        4.0344840     1.3296500     0.0646150
units angstrom
no_reorient  #important for SAPT in psi4, default
symmetry c1  #important for SAPT in psi4, default
}

set PROPERTIES_ORIGIN ["COM"]
properties('MP2/aug-cc-pvtz', properties = ['dipole'])
--------------------------------------------------------------------------

    Molecular point group: c1
  Charge       = 0
  Multiplicity = 1
  Basis Set: AUG-CC-PVTZ
    Blend: AUG-CC-PVTZ
  Basis Set: (AUG-CC-PVTZ AUX)
    Blend: AUG-CC-PVTZ-JKFIT

    Orbital Energies [Eh]
    ---------------------

    Doubly Occupied:

       1A    -91.995851     2A    -20.523141     3A    -15.590191
       4A    -11.361466     5A    -11.281152     6A    -11.277185
       7A    -11.264848     8A    -11.261297     9A    -11.251418
      10A     -8.995203    11A     -6.676023    12A     -6.675451
      13A     -6.674817    14A     -1.378267    15A     -1.233426
      16A     -1.182117    17A     -1.023514    18A     -0.999268
      19A     -0.946064    20A     -0.836612    21A     -0.771330
      22A     -0.769610    23A     -0.721609    24A     -0.646445
      25A     -0.642102    26A     -0.626250    27A     -0.581081
      28A     -0.574972    29A     -0.557520    30A     -0.552618
      31A     -0.530798    32A     -0.510585    33A     -0.483291
      34A     -0.437467    35A     -0.400213    36A     -0.357163
      37A     -0.336280

  @DF-RHF Final Energy:  -758.26772019204930

   => Energetics <=

    Nuclear Repulsion Energy =            499.7864621017918125
    One-Electron Energy =               -2032.2550751304381720
    Two-Electron Energy =                 774.2008928365970633
    Total Energy =                       -758.2677201920492962
  Basis Set: (AUG-CC-PVTZ AUX)
    Blend: AUG-CC-PVTZ-RI
    Molecular point group: c1

    Geometry (in Angstrom), charge = 0, multiplicity = 1:

       Center              X                  Y                   Z               Mass
    ------------   -----------------  -----------------  -----------------  -----------------
         S           -1.426085968638    -1.062862728111     0.156311765771    31.972071174400
         O            1.528082031362    -1.415769728111    -0.342207234229    15.994914619570
         N            2.090773031362     0.757264271889     0.106576765771    14.003074004430
         C           -0.209703568638     0.170050671889    -0.049184434229    12.000000000000
         C            1.189974031362    -0.251110728111    -0.103206234229    12.000000000000
         C           -0.807272968638     1.413519271889    -0.176672234229    12.000000000000
         C           -2.217975968638     1.373114271889    -0.087979234229    12.000000000000
         C           -2.692243968638     0.091073271889     0.097892765771    12.000000000000
         C            3.509713031362     0.448564271889     0.169735765771    12.000000000000
         H           -0.235752968638     2.317150271889    -0.367467234229     1.007825032230
         H            1.760133031362     1.584882271889     0.584942765771     1.007825032230
         H           -2.862599968638     2.242320271889    -0.168472234229     1.007825032230
         H           -3.722281968638    -0.227592728111     0.200910765771     1.007825032230
         H            3.755335031362    -0.218325728111    -0.656043234229     1.007825032230
         H            3.783723031362    -0.048602728111     1.106618765771     1.007825032230
         H            4.076395031362     1.375672271889     0.070006765771     1.007825032230

  Basis Set: AUG-CC-PVTZ
    Blend: AUG-CC-PVTZ
  Basis Set: (AUG-CC-PVTZ AUX)
    Blend: AUG-CC-PVTZ-JKFIT
	 Reference Energy          =    -758.2677201920492962 [Eh]
	 Singles Energy            =      -0.0000000000000000 [Eh]
	 Same-Spin Energy          =      -0.4435428006547825 [Eh]
	 Opposite-Spin Energy      =      -1.3480404324263913 [Eh]
	 Correlation Energy        =      -1.7915832330811736 [Eh]
	 Total Energy              =    -760.0593034251304516 [Eh]

	 ================> DF-SCS-MP2 Energies <==================
	-----------------------------------------------------------
	 SCS Same-Spin Scale       =       0.3333333333333333 [-]
	 SCS Opposite-Spin Scale   =       1.2000000000000000 [-]
	 SCS Same-Spin Energy      =      -0.1478476002182608 [Eh]
	 SCS Opposite-Spin Energy  =      -1.6176485189116694 [Eh]
	 SCS Correlation Energy    =      -1.7654961191299301 [Eh]
	 SCS Total Energy          =    -760.0332163111792170 [Eh]
	-----------------------------------------------------------

  Dipole Moment: [D]
     X:    -0.3631      Y:     3.6496      Z:     1.0775     Total:     3.8226

*** Psi4 exiting successfully. Buy a developer a beer!
