                               Psi4 1.3.2 release

  ==> Input File <==

--------------------------------------------------------------------------
#psi4
#
memory 32 gb

molecule  {
0 1
  S       -1.4679970    -1.1088850     0.1509200
  O        1.4861710    -1.4617920    -0.3475990
  N        2.0488620     0.7112420     0.1011850
  C       -0.2734750     0.1140250    -0.0519740
  C        1.1480630    -0.2971330    -0.1085980
  C       -0.8491840     1.3674970    -0.1820640
  C       -2.3512126     1.3575466    -0.0913960
  C       -2.7341550     0.0450510     0.0925010
  C        3.4678020     0.4025420     0.1643440
  H       -0.2776640     2.2711280    -0.3728590
  H        1.7182220     1.5388600     0.5795510
  H       -2.9045110     2.1962980    -0.1738640
  H       -3.7641930    -0.2736150     0.1955190
  H        3.7134240    -0.2643480    -0.6614350
  H        3.7418120    -0.0946250     1.1012270
  H        4.0344840     1.3296500     0.0646150
units angstrom
no_reorient  #important for SAPT in psi4, default
symmetry c1  #important for SAPT in psi4, default
}

set PROPERTIES_ORIGIN ["COM"]
properties('MP2/aug-cc-pvtz', properties = ['dipole'])
--------------------------------------------------------------------------

    Molecular point group: c1
  Charge       = 0
  Multiplicity = 1
  Basis Set: AUG-CC-PVTZ
    Blend: AUG-CC-PVTZ
  Basis Set: (AUG-CC-PVTZ AUX)
    Blend: AUG-CC-PVTZ-JKFIT

    Orbital Energies [Eh]
    ---------------------

    Doubly Occupied:

       1A    -91.994848     2A    -20.524896     3A    -15.591212
       4A    -11.363984     5A    -11.281067     6A    -11.278079
       7A    -11.270984     8A    -11.261991     9A    -11.253321
      10A     -8.994763    11A     -6.675684    12A     -6.675014
      13A     -6.674289    14A     -1.379282    15A     -1.233724
      16A     -1.174856    17A     -1.023233    18A     -0.992627
      19A     -0.947011    20A     -0.834134    21A     -0.781244
      22A     -0.768027    23A     -0.720520    24A     -0.649222
      25A     -0.645801    26A     -0.626562    27A     -0.589855
      28A     -0.558197    29A     -0.555617    30A     -0.548156
      31A     -0.535260    32A     -0.508657    33A     -0.488428
      34A     -0.438040    35A     -0.400740    36A     -0.349974
      37A     -0.341744

  @DF-RHF Final Energy:  -758.25863712362809

   => Energetics <=

    Nuclear Repulsion Energy =            498.1506878889941845
    One-Electron Energy =               -2028.9565609116853011
    Two-Electron Energy =                 772.5472358990631392
    Total Energy =                       -758.2586371236280911
  Basis Set: (AUG-CC-PVTZ AUX)
    Blend: AUG-CC-PVTZ-RI
    Molecular point group: c1

    Geometry (in Angstrom), charge = 0, multiplicity = 1:

       Center              X                  Y                   Z               Mass
    ------------   -----------------  -----------------  -----------------  -----------------
         S           -1.416454813957    -1.064602949257     0.155922285436    31.972071174400
         O            1.537713186043    -1.417509949257    -0.342596714564    15.994914619570
         N            2.100404186043     0.755524050743     0.106187285436    14.003074004430
         C           -0.221932813957     0.158307050743    -0.046971714564    12.000000000000
         C            1.199605186043    -0.252850949257    -0.103595714564    12.000000000000
         C           -0.797641813957     1.411779050743    -0.177061714564    12.000000000000
         C           -2.299670413957     1.401828650743    -0.086393714564    12.000000000000
         C           -2.682612813957     0.089333050743     0.097503285436    12.000000000000
         C            3.519344186043     0.446824050743     0.169346285436    12.000000000000
         H           -0.226121813957     2.315410050743    -0.367856714564     1.007825032230
         H            1.769764186043     1.583142050743     0.584553285436     1.007825032230
         H           -2.852968813957     2.240580050743    -0.168861714564     1.007825032230
         H           -3.712650813957    -0.229332949257     0.200521285436     1.007825032230
         H            3.764966186043    -0.220065949257    -0.656432714564     1.007825032230
         H            3.793354186043    -0.050342949257     1.106229285436     1.007825032230
         H            4.086026186043     1.373932050743     0.069617285436     1.007825032230

  Basis Set: AUG-CC-PVTZ
    Blend: AUG-CC-PVTZ
  Basis Set: (AUG-CC-PVTZ AUX)
    Blend: AUG-CC-PVTZ-JKFIT
	 Reference Energy          =    -758.2586371236280911 [Eh]
	 Singles Energy            =      -0.0000000000000000 [Eh]
	 Same-Spin Energy          =      -0.4419957626610490 [Eh]
	 Opposite-Spin Energy      =      -1.3473717375391745 [Eh]
	 Correlation Energy        =      -1.7893675002002234 [Eh]
	 Total Energy              =    -760.0480046238283194 [Eh]

	 ================> DF-SCS-MP2 Energies <==================
	-----------------------------------------------------------
	 SCS Same-Spin Scale       =       0.3333333333333333 [-]
	 SCS Opposite-Spin Scale   =       1.2000000000000000 [-]
	 SCS Same-Spin Energy      =      -0.1473319208870163 [Eh]
	 SCS Opposite-Spin Energy  =      -1.6168460850470094 [Eh]
	 SCS Correlation Energy    =      -1.7641780059340257 [Eh]
	 SCS Total Energy          =    -760.0228151295621046 [Eh]
	-----------------------------------------------------------

  Dipole Moment: [D]
     X:    -0.2643      Y:     3.6340      Z:     1.0745     Total:     3.7987

*** Psi4 exiting successfully. Buy a developer a beer!
