                               Psi4 1.4a3.dev225

  ==> Input File <==

--------------------------------------------------------------------------
#psi4
#
memory 32 gb

molecule  {
0 1
  S       -1.4679970    -1.1088850     0.1509200
  O        1.4861710    -1.4617920    -0.3475990
  N        2.0488620     0.7112420     0.1011850
  C       -0.2734750     0.1140250    -0.0519740
  C        1.1480630    -0.2971330    -0.1085980
  C       -0.8574946     1.3855914    -0.1839419
  C       -2.2598870     1.3270920    -0.0933710
  C       -2.7341550     0.0450510     0.0925010
  C        3.4678020     0.4025420     0.1643440
  H       -0.2776640     2.2711280    -0.3728590
  H        1.7182220     1.5388600     0.5795510
  H       -2.9045110     2.1962980    -0.1738640
  H       -3.7641930    -0.2736150     0.1955190
  H        3.7134240    -0.2643480    -0.6614350
  H        3.7418120    -0.0946250     1.1012270
  H        4.0344840     1.3296500     0.0646150
units angstrom
no_reorient  #important for SAPT in psi4, default
symmetry c1  #important for SAPT in psi4, default
}

set PROPERTIES_ORIGIN ["COM"]
properties('MP2/aug-cc-pvtz', properties = ['dipole'])
--------------------------------------------------------------------------

    Molecular point group: c1
  Charge       = 0
  Multiplicity = 1
  Basis Set: AUG-CC-PVTZ
    Blend: AUG-CC-PVTZ
  Basis Set: (AUG-CC-PVTZ AUX)
    Blend: AUG-CC-PVTZ-JKFIT

    Orbital Energies [Eh]
    ---------------------

    Doubly Occupied:

       1A    -91.997712     2A    -20.523017     3A    -15.590622
       4A    -11.362400     5A    -11.279265     6A    -11.278607
       7A    -11.263435     8A    -11.261561     9A    -11.250647
      10A     -8.997283    11A     -6.678104    12A     -6.677553
      13A     -6.676913    14A     -1.377785    15A     -1.232993
      16A     -1.182821    17A     -1.018977    18A     -1.002517
      19A     -0.945441    20A     -0.833328    21A     -0.770768
      22A     -0.769292    23A     -0.722338    24A     -0.646062
      25A     -0.640867    26A     -0.625534    27A     -0.579391
      28A     -0.576037    29A     -0.557071    30A     -0.552668
      31A     -0.532334    32A     -0.511288    33A     -0.486945
      34A     -0.436429    35A     -0.400171    36A     -0.357831
      37A     -0.333380

  @DF-RHF Final Energy:  -758.26705005634722

   => Energetics <=

    Nuclear Repulsion Energy =            499.5843649492986742
    One-Electron Energy =               -2031.8440507960956438
    Two-Electron Energy =                 773.9926357904496399
    Total Energy =                       -758.2670500563472160
  Basis Set: (AUG-CC-PVTZ AUX)
    Blend: AUG-CC-PVTZ-RI
    Molecular point group: c1

    Geometry (in Angstrom), charge = 0, multiplicity = 1:

       Center              X                  Y                   Z               Mass
    ------------   -----------------  -----------------  -----------------  -----------------
         S           -1.423518676147    -1.063551202591     0.156250134074    31.972071174400
         O            1.530649323853    -1.416458202591    -0.342268865926    15.994914619570
         N            2.093340323853     0.756575797409     0.106515134074    14.003074004430
         C           -0.228996676147     0.159358797409    -0.046643865926    12.000000000000
         C            1.192541323853    -0.251799202591    -0.103267865926    12.000000000000
         C           -0.813016276147     1.430925197409    -0.178611765926    12.000000000000
         C           -2.215408676147     1.372425797409    -0.088040865926    12.000000000000
         C           -2.689676676147     0.090384797409     0.097831134074    12.000000000000
         C            3.512280323853     0.447875797409     0.169674134074    12.000000000000
         H           -0.233185676147     2.316461797409    -0.367528865926     1.007825032230
         H            1.762700323853     1.584193797409     0.584881134074     1.007825032230
         H           -2.860032676147     2.241631797409    -0.168533865926     1.007825032230
         H           -3.719714676147    -0.228281202591     0.200849134074     1.007825032230
         H            3.757902323853    -0.219014202591    -0.656104865926     1.007825032230
         H            3.786290323853    -0.049291202591     1.106557134074     1.007825032230
         H            4.078962323853     1.374983797409     0.069945134074     1.007825032230

  Basis Set: AUG-CC-PVTZ
    Blend: AUG-CC-PVTZ
  Basis Set: (AUG-CC-PVTZ AUX)
    Blend: AUG-CC-PVTZ-JKFIT
	 Reference Energy          =    -758.2670500563472160 [Eh]
	 Singles Energy            =      -0.0000000000000000 [Eh]
	 Same-Spin Energy          =      -0.4439467290703168 [Eh]
	 Opposite-Spin Energy      =      -1.3483376430674499 [Eh]
	 Correlation Energy        =      -1.7922843721377666 [Eh]
	 Total Energy              =    -760.0593344284849309 [Eh]

	 ================> DF-SCS-MP2 Energies <==================
	-----------------------------------------------------------
	 SCS Same-Spin Scale       =       0.3333333333333333 [-]
	 SCS Opposite-Spin Scale   =       1.2000000000000000 [-]
	 SCS Same-Spin Energy      =      -0.1479822430234389 [Eh]
	 SCS Opposite-Spin Energy  =      -1.6180051716809398 [Eh]
	 SCS Correlation Energy    =      -1.7659874147043788 [Eh]
	 SCS Total Energy          =    -760.0330374710515571 [Eh]
	-----------------------------------------------------------

  Dipole Moment: [D]
     X:    -0.3407      Y:     3.5949      Z:     1.0845     Total:     3.7703

*** Psi4 exiting successfully. Buy a developer a beer!
