                               Psi4 1.3.2 release

  ==> Input File <==

--------------------------------------------------------------------------
#psi4
#
memory 32 gb

molecule  {
0 1
  S       -1.4679970    -1.1088850     0.1509200
  O        1.4861710    -1.4617920    -0.3475990
  N        2.0488620     0.7112420     0.1011850
  C       -0.2734750     0.1140250    -0.0519740
  C        1.1480630    -0.2971330    -0.1085980
  C       -0.8514841     1.2208767    -0.1619387
  C       -2.2598870     1.3270920    -0.0933710
  C       -2.7341550     0.0450510     0.0925010
  C        3.4678020     0.4025420     0.1643440
  H       -0.2776640     2.2711280    -0.3728590
  H        1.7182220     1.5388600     0.5795510
  H       -2.9045110     2.1962980    -0.1738640
  H       -3.7641930    -0.2736150     0.1955190
  H        3.7134240    -0.2643480    -0.6614350
  H        3.7418120    -0.0946250     1.1012270
  H        4.0344840     1.3296500     0.0646150
units angstrom
no_reorient  #important for SAPT in psi4, default
symmetry c1  #important for SAPT in psi4, default
}

set PROPERTIES_ORIGIN ["COM"]
properties('MP2/aug-cc-pvtz', properties = ['dipole'])
--------------------------------------------------------------------------

    Molecular point group: c1
  Charge       = 0
  Multiplicity = 1
  Basis Set: AUG-CC-PVTZ
    Blend: AUG-CC-PVTZ
  Basis Set: (AUG-CC-PVTZ AUX)
    Blend: AUG-CC-PVTZ-JKFIT

    Orbital Energies [Eh]
    ---------------------

    Doubly Occupied:

       1A    -91.987845     2A    -20.526586     3A    -15.592411
       4A    -11.366160     5A    -11.280058     6A    -11.262710
       7A    -11.261518     8A    -11.256745     9A    -11.249308
      10A     -8.988547    11A     -6.669371    12A     -6.668920
      13A     -6.668017    14A     -1.380859    15A     -1.235912
      16A     -1.204127    17A     -1.034580    18A     -0.993288
      19A     -0.952645    20A     -0.833375    21A     -0.780729
      22A     -0.769746    23A     -0.707657    24A     -0.655663
      25A     -0.646312    26A     -0.629319    27A     -0.592025
      28A     -0.567885    29A     -0.554822    30A     -0.550754
      31A     -0.523273    32A     -0.515774    33A     -0.475062
      34A     -0.438309    35A     -0.401468    36A     -0.363283
      37A     -0.345127

  @DF-RHF Final Energy:  -758.24196268974868

   => Energetics <=

    Nuclear Repulsion Energy =            503.1225676744466568
    One-Electron Energy =               -2038.8686769453715897
    Two-Electron Energy =                 777.5041465811763146
    Total Energy =                       -758.2419626897486751
  Basis Set: (AUG-CC-PVTZ AUX)
    Blend: AUG-CC-PVTZ-RI
    Molecular point group: c1

    Geometry (in Angstrom), charge = 0, multiplicity = 1:

       Center              X                  Y                   Z               Mass
    ------------   -----------------  -----------------  -----------------  -----------------
         S           -1.424030117979    -1.049535398923     0.154377851082    31.972071174400
         O            1.530137882021    -1.402442398923    -0.344141148918    15.994914619570
         N            2.092828882021     0.770591601077     0.104642851082    14.003074004430
         C           -0.229508117979     0.173374601077    -0.048516148918    12.000000000000
         C            1.192029882021    -0.237783398923    -0.105140148918    12.000000000000
         C           -0.807517217979     1.280226301077    -0.158480848918    12.000000000000
         C           -2.215920117979     1.386441601077    -0.089913148918    12.000000000000
         C           -2.690188117979     0.104400601077     0.095958851082    12.000000000000
         C            3.511768882021     0.461891601077     0.167801851082    12.000000000000
         H           -0.233697117979     2.330477601077    -0.369401148918     1.007825032230
         H            1.762188882021     1.598209601077     0.583008851082     1.007825032230
         H           -2.860544117979     2.255647601077    -0.170406148918     1.007825032230
         H           -3.720226117979    -0.214265398923     0.198976851082     1.007825032230
         H            3.757390882021    -0.204998398923    -0.657977148918     1.007825032230
         H            3.785778882021    -0.035275398923     1.104684851082     1.007825032230
         H            4.078450882021     1.388999601077     0.068072851082     1.007825032230

  Basis Set: AUG-CC-PVTZ
    Blend: AUG-CC-PVTZ
  Basis Set: (AUG-CC-PVTZ AUX)
    Blend: AUG-CC-PVTZ-JKFIT
	 Reference Energy          =    -758.2419626897486751 [Eh]
	 Singles Energy            =      -0.0000000000000000 [Eh]
	 Same-Spin Energy          =      -0.4421371527944962 [Eh]
	 Opposite-Spin Energy      =      -1.3461002902515871 [Eh]
	 Correlation Energy        =      -1.7882374430460832 [Eh]
	 Total Energy              =    -760.0302001327947892 [Eh]

	 ================> DF-SCS-MP2 Energies <==================
	-----------------------------------------------------------
	 SCS Same-Spin Scale       =       0.3333333333333333 [-]
	 SCS Opposite-Spin Scale   =       1.2000000000000000 [-]
	 SCS Same-Spin Energy      =      -0.1473790509314987 [Eh]
	 SCS Opposite-Spin Energy  =      -1.6153203483019045 [Eh]
	 SCS Correlation Energy    =      -1.7626993992334032 [Eh]
	 SCS Total Energy          =    -760.0046620889820588 [Eh]
	-----------------------------------------------------------

  Dipole Moment: [D]
     X:    -0.2549      Y:     3.7158      Z:     1.0769     Total:     3.8771

*** Psi4 exiting successfully. Buy a developer a beer!
