                               Psi4 1.3.2 release

  ==> Input File <==

--------------------------------------------------------------------------
#psi4
#
memory 32 gb

molecule  {
0 1
  S       -1.5951881    -1.2333375     0.1738298
  O        1.4861710    -1.4617920    -0.3475990
  N        2.0488620     0.7112420     0.1011850
  C       -0.2734750     0.1140250    -0.0519740
  C        1.1480630    -0.2971330    -0.1085980
  C       -0.8491840     1.3674970    -0.1820640
  C       -2.2598870     1.3270920    -0.0933710
  C       -2.7341550     0.0450510     0.0925010
  C        3.4678020     0.4025420     0.1643440
  H       -0.2776640     2.2711280    -0.3728590
  H        1.7182220     1.5388600     0.5795510
  H       -2.9045110     2.1962980    -0.1738640
  H       -3.7641930    -0.2736150     0.1955190
  H        3.7134240    -0.2643480    -0.6614350
  H        3.7418120    -0.0946250     1.1012270
  H        4.0344840     1.3296500     0.0646150
units angstrom
no_reorient  #important for SAPT in psi4, default
symmetry c1  #important for SAPT in psi4, default
}

set PROPERTIES_ORIGIN ["COM"]
properties('MP2/aug-cc-pvtz', properties = ['dipole'])
--------------------------------------------------------------------------

    Molecular point group: c1
  Charge       = 0
  Multiplicity = 1
  Basis Set: AUG-CC-PVTZ
    Blend: AUG-CC-PVTZ
  Basis Set: (AUG-CC-PVTZ AUX)
    Blend: AUG-CC-PVTZ-JKFIT

    Orbital Energies [Eh]
    ---------------------

    Doubly Occupied:

       1A    -92.000724     2A    -20.520798     3A    -15.589895
       4A    -11.360885     5A    -11.289254     6A    -11.284510
       7A    -11.271979     8A    -11.261114     9A    -11.251445
      10A     -8.997713    11A     -6.678526    12A     -6.677552
      13A     -6.677136    14A     -1.375047    15A     -1.232019
      16A     -1.167094    17A     -1.020672    18A     -0.994314
      19A     -0.940908    20A     -0.834320    21A     -0.770801
      22A     -0.763035    23A     -0.725081    24A     -0.643373
      25A     -0.638633    26A     -0.622392    27A     -0.580226
      28A     -0.576523    29A     -0.550983    30A     -0.549658
      31A     -0.516003    32A     -0.506533    33A     -0.482458
      34A     -0.434304    35A     -0.399167    36A     -0.367455
      37A     -0.327538

  @DF-RHF Final Energy:  -758.25174795305941

   => Energetics <=

    Nuclear Repulsion Energy =            492.3856070044624857
    One-Electron Energy =               -2017.5145759984668530
    Two-Electron Energy =                 766.8772210409450736
    Total Energy =                       -758.2517479530594073
  Basis Set: (AUG-CC-PVTZ AUX)
    Blend: AUG-CC-PVTZ-RI
    Molecular point group: c1

    Geometry (in Angstrom), charge = 0, multiplicity = 1:

       Center              X                  Y                   Z               Mass
    ------------   -----------------  -----------------  -----------------  -----------------
         S           -1.522581144043    -1.158249106622     0.173806206441    31.972071174400
         O            1.558777955957    -1.386703606622    -0.347622593559    15.994914619570
         N            2.121468955957     0.786330393378     0.101161406441    14.003074004430
         C           -0.200868044043     0.189113393378    -0.051997593559    12.000000000000
         C            1.220669955957    -0.222044606622    -0.108621593559    12.000000000000
         C           -0.776577044043     1.442585393378    -0.182087593559    12.000000000000
         C           -2.187280044043     1.402180393378    -0.093394593559    12.000000000000
         C           -2.661548044043     0.120139393378     0.092477406441    12.000000000000
         C            3.540408955957     0.477630393378     0.164320406441    12.000000000000
         H           -0.205057044043     2.346216393378    -0.372882593559     1.007825032230
         H            1.790828955957     1.613948393378     0.579527406441     1.007825032230
         H           -2.831904044043     2.271386393378    -0.173887593559     1.007825032230
         H           -3.691586044043    -0.198526606622     0.195495406441     1.007825032230
         H            3.786030955957    -0.189259606622    -0.661458593559     1.007825032230
         H            3.814418955957    -0.019536606622     1.101203406441     1.007825032230
         H            4.107090955957     1.404738393378     0.064591406441     1.007825032230

  Basis Set: AUG-CC-PVTZ
    Blend: AUG-CC-PVTZ
  Basis Set: (AUG-CC-PVTZ AUX)
    Blend: AUG-CC-PVTZ-JKFIT
	 Reference Energy          =    -758.2517479530594073 [Eh]
	 Singles Energy            =      -0.0000000000000000 [Eh]
	 Same-Spin Energy          =      -0.4421427283932083 [Eh]
	 Opposite-Spin Energy      =      -1.3495828127468505 [Eh]
	 Correlation Energy        =      -1.7917255411400590 [Eh]
	 Total Energy              =    -760.0434734941994748 [Eh]

	 ================> DF-SCS-MP2 Energies <==================
	-----------------------------------------------------------
	 SCS Same-Spin Scale       =       0.3333333333333333 [-]
	 SCS Opposite-Spin Scale   =       1.2000000000000000 [-]
	 SCS Same-Spin Energy      =      -0.1473809094644028 [Eh]
	 SCS Opposite-Spin Energy  =      -1.6194993752962206 [Eh]
	 SCS Correlation Energy    =      -1.7668802847606233 [Eh]
	 SCS Total Energy          =    -760.0186282378200531 [Eh]
	-----------------------------------------------------------

  Dipole Moment: [D]
     X:    -0.3333      Y:     3.7116      Z:     1.0688     Total:     3.8768

*** Psi4 exiting successfully. Buy a developer a beer!
