                               Psi4 1.3.2 release

  ==> Input File <==

--------------------------------------------------------------------------
#psi4
#
memory 32 gb

molecule  {
0 1
  S       -1.4679970    -1.1088850     0.1509200
  O        1.4861710    -1.4617920    -0.3475990
  N        2.1184985     0.6468702     0.0898481
  C       -0.2734750     0.1140250    -0.0519740
  C        1.1480630    -0.2971330    -0.1085980
  C       -0.8491840     1.3674970    -0.1820640
  C       -2.2598870     1.3270920    -0.0933710
  C       -2.7341550     0.0450510     0.0925010
  C        3.4678020     0.4025420     0.1643440
  H       -0.2776640     2.2711280    -0.3728590
  H        1.7182220     1.5388600     0.5795510
  H       -2.9045110     2.1962980    -0.1738640
  H       -3.7641930    -0.2736150     0.1955190
  H        3.7134240    -0.2643480    -0.6614350
  H        3.7418120    -0.0946250     1.1012270
  H        4.0344840     1.3296500     0.0646150
units angstrom
no_reorient  #important for SAPT in psi4, default
symmetry c1  #important for SAPT in psi4, default
}

set PROPERTIES_ORIGIN ["COM"]
properties('MP2/aug-cc-pvtz', properties = ['dipole'])
--------------------------------------------------------------------------

    Molecular point group: c1
  Charge       = 0
  Multiplicity = 1
  Basis Set: AUG-CC-PVTZ
    Blend: AUG-CC-PVTZ
  Basis Set: (AUG-CC-PVTZ AUX)
    Blend: AUG-CC-PVTZ-JKFIT

    Orbital Energies [Eh]
    ---------------------

    Doubly Occupied:

       1A    -91.998873     2A    -20.519343     3A    -15.593337
       4A    -11.362149     5A    -11.281493     6A    -11.280858
       7A    -11.265341     8A    -11.254427     9A    -11.252727
      10A     -8.998510    11A     -6.679331    12A     -6.678794
      13A     -6.678103    14A     -1.379344    15A     -1.238118
      16A     -1.187259    17A     -1.025343    18A     -1.003178
      19A     -0.950725    20A     -0.826588    21A     -0.773164
      22A     -0.755828    23A     -0.724371    24A     -0.660599
      25A     -0.640719    26A     -0.635083    27A     -0.585186
      28A     -0.574812    29A     -0.558383    30A     -0.542419
      31A     -0.532230    32A     -0.510444    33A     -0.488197
      34A     -0.434990    35A     -0.390736    36A     -0.358846
      37A     -0.338070

  @DF-RHF Final Energy:  -758.25484815509151

   => Energetics <=

    Nuclear Repulsion Energy =            500.2768580451986509
    One-Electron Energy =               -2033.1475781182534774
    Two-Electron Energy =                 774.6158719179633181
    Total Energy =                       -758.2548481550915085
  Basis Set: (AUG-CC-PVTZ AUX)
    Blend: AUG-CC-PVTZ-RI
    Molecular point group: c1

    Geometry (in Angstrom), charge = 0, multiplicity = 1:

       Center              X                  Y                   Z               Mass
    ------------   -----------------  -----------------  -----------------  -----------------
         S           -1.431140399390    -1.055619721026     0.157216039474    31.972071174400
         O            1.523027600610    -1.408526721026    -0.341302960526    15.994914619570
         N            2.155355100610     0.700135478974     0.096144139474    14.003074004430
         C           -0.236618399390     0.167290278974    -0.045677960526    12.000000000000
         C            1.184919600610    -0.243867721026    -0.102301960526    12.000000000000
         C           -0.812327399390     1.420762278974    -0.175767960526    12.000000000000
         C           -2.223030399390     1.380357278974    -0.087074960526    12.000000000000
         C           -2.697298399390     0.098316278974     0.098797039474    12.000000000000
         C            3.504658600610     0.455807278974     0.170640039474    12.000000000000
         H           -0.240807399390     2.324393278974    -0.366562960526     1.007825032230
         H            1.755078600610     1.592125278974     0.585847039474     1.007825032230
         H           -2.867654399390     2.249563278974    -0.167567960526     1.007825032230
         H           -3.727336399390    -0.220349721026     0.201815039474     1.007825032230
         H            3.750280600610    -0.211082721026    -0.655138960526     1.007825032230
         H            3.778668600610    -0.041359721026     1.107523039474     1.007825032230
         H            4.071340600610     1.382915278974     0.070911039474     1.007825032230

  Basis Set: AUG-CC-PVTZ
    Blend: AUG-CC-PVTZ
  Basis Set: (AUG-CC-PVTZ AUX)
    Blend: AUG-CC-PVTZ-JKFIT
	 Reference Energy          =    -758.2548481550915085 [Eh]
	 Singles Energy            =      -0.0000000000000000 [Eh]
	 Same-Spin Energy          =      -0.4444329773171751 [Eh]
	 Opposite-Spin Energy      =      -1.3489954247429883 [Eh]
	 Correlation Energy        =      -1.7934284020601634 [Eh]
	 Total Energy              =    -760.0482765571516666 [Eh]

	 ================> DF-SCS-MP2 Energies <==================
	-----------------------------------------------------------
	 SCS Same-Spin Scale       =       0.3333333333333333 [-]
	 SCS Opposite-Spin Scale   =       1.2000000000000000 [-]
	 SCS Same-Spin Energy      =      -0.1481443257723917 [Eh]
	 SCS Opposite-Spin Energy  =      -1.6187945096915859 [Eh]
	 SCS Correlation Energy    =      -1.7669388354639777 [Eh]
	 SCS Total Energy          =    -760.0217869905554835 [Eh]
	-----------------------------------------------------------

  Dipole Moment: [D]
     X:    -0.5757      Y:     3.7159      Z:     1.0550     Total:     3.9055

*** Psi4 exiting successfully. Buy a developer a beer!
