                               Psi4 1.3.2 release

  ==> Input File <==

--------------------------------------------------------------------------
#psi4
#
memory 32 gb

molecule  {
0 1
  S       -1.4462190    -1.1295213     0.1525296
  O        1.4861710    -1.4617920    -0.3475990
  N        2.0488620     0.7112420     0.1011850
  C       -0.2734750     0.1140250    -0.0519740
  C        1.1480630    -0.2971330    -0.1085980
  C       -0.8491840     1.3674970    -0.1820640
  C       -2.2598870     1.3270920    -0.0933710
  C       -2.7341550     0.0450510     0.0925010
  C        3.4678020     0.4025420     0.1643440
  H       -0.2776640     2.2711280    -0.3728590
  H        1.7182220     1.5388600     0.5795510
  H       -2.9045110     2.1962980    -0.1738640
  H       -3.7641930    -0.2736150     0.1955190
  H        3.7134240    -0.2643480    -0.6614350
  H        3.7418120    -0.0946250     1.1012270
  H        4.0344840     1.3296500     0.0646150
units angstrom
no_reorient  #important for SAPT in psi4, default
symmetry c1  #important for SAPT in psi4, default
}

set PROPERTIES_ORIGIN ["COM"]
properties('MP2/aug-cc-pvtz', properties = ['dipole'])
--------------------------------------------------------------------------

    Molecular point group: c1
  Charge       = 0
  Multiplicity = 1
  Basis Set: AUG-CC-PVTZ
    Blend: AUG-CC-PVTZ
  Basis Set: (AUG-CC-PVTZ AUX)
    Blend: AUG-CC-PVTZ-JKFIT

    Orbital Energies [Eh]
    ---------------------

    Doubly Occupied:

       1A    -91.996711     2A    -20.523753     3A    -15.590846
       4A    -11.362495     5A    -11.281304     6A    -11.277582
       7A    -11.263019     8A    -11.261713     9A    -11.252022
      10A     -8.995801    11A     -6.676607    12A     -6.676022
      13A     -6.675381    14A     -1.378465    15A     -1.233350
      16A     -1.180535    17A     -1.020063    18A     -0.998587
      19A     -0.946044    20A     -0.833068    21A     -0.771228
      22A     -0.769069    23A     -0.721355    24A     -0.645976
      25A     -0.641428    26A     -0.625588    27A     -0.579598
      28A     -0.573421    29A     -0.556968    30A     -0.552768
      31A     -0.529914    32A     -0.509683    33A     -0.486987
      34A     -0.436893    35A     -0.400463    36A     -0.357397
      37A     -0.335183

  @DF-RHF Final Energy:  -758.26751656812235

   => Energetics <=

    Nuclear Repulsion Energy =            499.4018696410169014
    One-Electron Energy =               -2031.5042003362170817
    Two-Electron Energy =                 773.8348141270778342
    Total Energy =                       -758.2675165681223461
  Basis Set: (AUG-CC-PVTZ AUX)
    Blend: AUG-CC-PVTZ-RI
    Molecular point group: c1

    Geometry (in Angstrom), charge = 0, multiplicity = 1:

       Center              X                  Y                   Z               Mass
    ------------   -----------------  -----------------  -----------------  -----------------
         S           -1.407385178166    -1.077969320863     0.157335024750    31.972071174400
         O            1.525004821834    -1.410240020863    -0.342793575250    15.994914619570
         N            2.087695821834     0.762793979137     0.105990424750    14.003074004430
         C           -0.234641178166     0.165576979137    -0.047168575250    12.000000000000
         C            1.186896821834    -0.245581020863    -0.103792575250    12.000000000000
         C           -0.810350178166     1.419048979137    -0.177258575250    12.000000000000
         C           -2.221053178166     1.378643979137    -0.088565575250    12.000000000000
         C           -2.695321178166     0.096602979137     0.097306424750    12.000000000000
         C            3.506635821834     0.454093979137     0.169149424750    12.000000000000
         H           -0.238830178166     2.322679979137    -0.368053575250     1.007825032230
         H            1.757055821834     1.590411979137     0.584356424750     1.007825032230
         H           -2.865677178166     2.247849979137    -0.169058575250     1.007825032230
         H           -3.725359178166    -0.222063020863     0.200324424750     1.007825032230
         H            3.752257821834    -0.212796020863    -0.656629575250     1.007825032230
         H            3.780645821834    -0.043073020863     1.106032424750     1.007825032230
         H            4.073317821834     1.381201979137     0.069420424750     1.007825032230

  Basis Set: AUG-CC-PVTZ
    Blend: AUG-CC-PVTZ
  Basis Set: (AUG-CC-PVTZ AUX)
    Blend: AUG-CC-PVTZ-JKFIT
	 Reference Energy          =    -758.2675165681223461 [Eh]
	 Singles Energy            =      -0.0000000000000000 [Eh]
	 Same-Spin Energy          =      -0.4433188326983878 [Eh]
	 Opposite-Spin Energy      =      -1.3482035523877678 [Eh]
	 Correlation Energy        =      -1.7915223850861555 [Eh]
	 Total Energy              =    -760.0590389532085283 [Eh]

	 ================> DF-SCS-MP2 Energies <==================
	-----------------------------------------------------------
	 SCS Same-Spin Scale       =       0.3333333333333333 [-]
	 SCS Opposite-Spin Scale   =       1.2000000000000000 [-]
	 SCS Same-Spin Energy      =      -0.1477729442327959 [Eh]
	 SCS Opposite-Spin Energy  =      -1.6178442628653213 [Eh]
	 SCS Correlation Energy    =      -1.7656172070981173 [Eh]
	 SCS Total Energy          =    -760.0331337752204490 [Eh]
	-----------------------------------------------------------

  Dipole Moment: [D]
     X:    -0.3083      Y:     3.6289      Z:     1.0778     Total:     3.7981

*** Psi4 exiting successfully. Buy a developer a beer!
