                               Psi4 1.3.2 release

  ==> Input File <==

--------------------------------------------------------------------------
#psi4
#
memory 32 gb

molecule  {
0 1
  S       -1.4679970    -1.1088850     0.1509200
  O        1.4861710    -1.4617920    -0.3475990
  N        2.0307534     0.7265791     0.1038616
  C       -0.2734750     0.1140250    -0.0519740
  C        1.1480630    -0.2971330    -0.1085980
  C       -0.8491840     1.3674970    -0.1820640
  C       -2.2598870     1.3270920    -0.0933710
  C       -2.7341550     0.0450510     0.0925010
  C        3.4678020     0.4025420     0.1643440
  H       -0.2776640     2.2711280    -0.3728590
  H        1.7182220     1.5388600     0.5795510
  H       -2.9045110     2.1962980    -0.1738640
  H       -3.7641930    -0.2736150     0.1955190
  H        3.7134240    -0.2643480    -0.6614350
  H        3.7418120    -0.0946250     1.1012270
  H        4.0344840     1.3296500     0.0646150
units angstrom
no_reorient  #important for SAPT in psi4, default
symmetry c1  #important for SAPT in psi4, default
}

set PROPERTIES_ORIGIN ["COM"]
properties('MP2/aug-cc-pvtz', properties = ['dipole'])
--------------------------------------------------------------------------

    Molecular point group: c1
  Charge       = 0
  Multiplicity = 1
  Basis Set: AUG-CC-PVTZ
    Blend: AUG-CC-PVTZ
  Basis Set: (AUG-CC-PVTZ AUX)
    Blend: AUG-CC-PVTZ-JKFIT

    Orbital Energies [Eh]
    ---------------------

    Doubly Occupied:

       1A    -91.995525     2A    -20.524524     3A    -15.590164
       4A    -11.363110     5A    -11.278632     6A    -11.275816
       7A    -11.263610     8A    -11.262092     9A    -11.250395
      10A     -8.995280    11A     -6.676117    12A     -6.675562
      13A     -6.674892    14A     -1.378052    15A     -1.233037
      16A     -1.183444    17A     -1.019326    18A     -1.000333
      19A     -0.945307    20A     -0.835896    21A     -0.772390
      22A     -0.770551    23A     -0.721336    24A     -0.642769
      25A     -0.642106    26A     -0.623981    27A     -0.577840
      28A     -0.573153    29A     -0.557911    30A     -0.555790
      31A     -0.531690    32A     -0.511804    33A     -0.485801
      34A     -0.437018    35A     -0.402607    36A     -0.356522
      37A     -0.335376

  @DF-RHF Final Energy:  -758.26801781799497

   => Energetics <=

    Nuclear Repulsion Energy =            499.8807795423468860
    One-Electron Energy =               -2032.4580728174260003
    Two-Electron Energy =                 774.3092754570842544
    Total Energy =                       -758.2680178179949735
  Basis Set: (AUG-CC-PVTZ AUX)
    Blend: AUG-CC-PVTZ-RI
    Molecular point group: c1

    Geometry (in Angstrom), charge = 0, multiplicity = 1:

       Center              X                  Y                   Z               Mass
    ------------   -----------------  -----------------  -----------------  -----------------
         S           -1.422427741590    -1.063534423606     0.155824567698    31.972071174400
         O            1.531740258410    -1.416441423606    -0.342694432302    15.994914619570
         N            2.076322658410     0.771929676394     0.108766167698    14.003074004430
         C           -0.227905741590     0.159375576394    -0.047069432302    12.000000000000
         C            1.193632258410    -0.251782423606    -0.103693432302    12.000000000000
         C           -0.803614741590     1.412847576394    -0.177159432302    12.000000000000
         C           -2.214317741590     1.372442576394    -0.088466432302    12.000000000000
         C           -2.688585741590     0.090401576394     0.097405567698    12.000000000000
         C            3.513371258410     0.447892576394     0.169248567698    12.000000000000
         H           -0.232094741590     2.316478576394    -0.367954432302     1.007825032230
         H            1.763791258410     1.584210576394     0.584455567698     1.007825032230
         H           -2.858941741590     2.241648576394    -0.168959432302     1.007825032230
         H           -3.718623741590    -0.228264423606     0.200423567698     1.007825032230
         H            3.758993258410    -0.218997423606    -0.656530432302     1.007825032230
         H            3.787381258410    -0.049274423606     1.106131567698     1.007825032230
         H            4.080053258410     1.375000576394     0.069519567698     1.007825032230

  Basis Set: AUG-CC-PVTZ
    Blend: AUG-CC-PVTZ
  Basis Set: (AUG-CC-PVTZ AUX)
    Blend: AUG-CC-PVTZ-JKFIT
	 Reference Energy          =    -758.2680178179949735 [Eh]
	 Singles Energy            =      -0.0000000000000000 [Eh]
	 Same-Spin Energy          =      -0.4433547950806215 [Eh]
	 Opposite-Spin Energy      =      -1.3477103906640995 [Eh]
	 Correlation Energy        =      -1.7910651857447211 [Eh]
	 Total Energy              =    -760.0590830037397154 [Eh]

	 ================> DF-SCS-MP2 Energies <==================
	-----------------------------------------------------------
	 SCS Same-Spin Scale       =       0.3333333333333333 [-]
	 SCS Opposite-Spin Scale   =       1.2000000000000000 [-]
	 SCS Same-Spin Energy      =      -0.1477849316935405 [Eh]
	 SCS Opposite-Spin Energy  =      -1.6172524687969194 [Eh]
	 SCS Correlation Energy    =      -1.7650374004904599 [Eh]
	 SCS Total Energy          =    -760.0330552184854014 [Eh]
	-----------------------------------------------------------

  Dipole Moment: [D]
     X:    -0.2662      Y:     3.5870      Z:     1.0865     Total:     3.7574

*** Psi4 exiting successfully. Buy a developer a beer!
