                               Psi4 1.3.2 release

  ==> Input File <==

--------------------------------------------------------------------------
#psi4
#
memory 32 gb

molecule  {
0 1
  O       -0.0417540     2.1858230    -0.3073980
  N        2.4805920     1.9330880     0.7500480
  C        1.1269255     0.0822285    -0.1450224
  C       -1.4416830     0.3069060    -0.0388060
  C       -0.1006150     0.9516510    -0.1728080
  C        2.3683100     0.6434780     0.2543940
  C        1.0541080    -1.2200940    -0.6155900
  C        3.4881200    -0.2081800     0.2578510
  C       -1.6559060    -0.7921710     0.8065690
  C       -2.5248970     0.8906690    -0.7109620
  C        2.1811870    -2.0318670    -0.6465910
  C        3.4033030    -1.5159070    -0.2032770
  C       -2.9440810    -1.3050920     0.9648860
  C       -3.8044560     0.3593180    -0.5664320
  C       -4.0170070    -0.7392060     0.2722830
  H        0.1024420    -1.6051810    -0.9713120
  H        4.4463530     0.1894450     0.5890330
  H       -0.8230280    -1.2242950     1.3551890
  H       -2.3449380     1.7597130    -1.3385060
  H        2.1152040    -3.0473210    -1.0273030
  H        4.2948280    -2.1392510    -0.2075020
  H       -3.1109310    -2.1478130     1.6315680
  H       -4.6398270     0.8046650    -1.1014830
  H       -5.0175780    -1.1483650     0.3907290
  H        1.7883890     2.5757360     0.3792320
  H        3.4241960     2.3021350     0.7487690
units angstrom
no_reorient  #important for SAPT in psi4, default
symmetry c1  #important for SAPT in psi4, default
}

set PROPERTIES_ORIGIN ["COM"]
properties('MP2/aug-cc-pvtz', properties = ['dipole'])
--------------------------------------------------------------------------

    Molecular point group: c1
  Charge       = 0
  Multiplicity = 1
  Basis Set: AUG-CC-PVTZ
    Blend: AUG-CC-PVTZ
  Basis Set: (AUG-CC-PVTZ AUX)
    Blend: AUG-CC-PVTZ-JKFIT

    Orbital Energies [Eh]
    ---------------------

    Doubly Occupied:

       1A    -20.543523     2A    -15.562087     3A    -11.343629
       4A    -11.297958     5A    -11.252945     6A    -11.252902
       7A    -11.251790     8A    -11.251282     9A    -11.250445
      10A    -11.248456    11A    -11.246125    12A    -11.244715
      13A    -11.241415    14A    -11.232640    15A    -11.229049
      16A     -1.375151    17A     -1.228356    18A     -1.164721
      19A     -1.140211    20A     -1.056899    21A     -1.026924
      22A     -1.021788    23A     -0.997155    24A     -0.891801
      25A     -0.848053    26A     -0.839179    27A     -0.821032
      28A     -0.770548    29A     -0.717917    30A     -0.702201
      31A     -0.689052    32A     -0.669534    33A     -0.648115
      34A     -0.634481    35A     -0.615789    36A     -0.610463
      37A     -0.604985    38A     -0.597570    39A     -0.589421
      40A     -0.554816    41A     -0.535348    42A     -0.527356
      43A     -0.519663    44A     -0.510135    45A     -0.502583
      46A     -0.491859    47A     -0.454656    48A     -0.420669
      49A     -0.353438    50A     -0.346810    51A     -0.344986
      52A     -0.301024

  @DF-RHF Final Energy:  -628.22561143864857

   => Energetics <=

    Nuclear Repulsion Energy =            893.1771125899507524
    One-Electron Energy =               -2625.6581454100187329
    Two-Electron Energy =                1104.2554213814194100
    Total Energy =                       -628.2256114386484569
  Basis Set: (AUG-CC-PVTZ AUX)
    Blend: AUG-CC-PVTZ-RI
    Molecular point group: c1

    Geometry (in Angstrom), charge = 0, multiplicity = 1:

       Center              X                  Y                   Z               Mass
    ------------   -----------------  -----------------  -----------------  -----------------
         O           -0.041270518135     2.168659276918    -0.304942352143    15.994914619570
         N            2.481075481865     1.915924276918     0.752503647857    14.003074004430
         C            1.127408981865     0.065064776918    -0.142566752143    12.000000000000
         C           -1.441199518135     0.289742276918    -0.036350352143    12.000000000000
         C           -0.100131518135     0.934487276918    -0.170352352143    12.000000000000
         C            2.368793481865     0.626314276918     0.256849647857    12.000000000000
         C            1.054591481865    -1.237257723082    -0.613134352143    12.000000000000
         C            3.488603481865    -0.225343723082     0.260306647857    12.000000000000
         C           -1.655422518135    -0.809334723082     0.809024647857    12.000000000000
         C           -2.524413518135     0.873505276918    -0.708506352143    12.000000000000
         C            2.181670481865    -2.049030723082    -0.644135352143    12.000000000000
         C            3.403786481865    -1.533070723082    -0.200821352143    12.000000000000
         C           -2.943597518135    -1.322255723082     0.967341647857    12.000000000000
         C           -3.803972518135     0.342154276918    -0.563976352143    12.000000000000
         C           -4.016523518135    -0.756369723082     0.274738647857    12.000000000000
         H            0.102925481865    -1.622344723082    -0.968856352143     1.007825032230
         H            4.446836481865     0.172281276918     0.591488647857     1.007825032230
         H           -0.822544518135    -1.241458723082     1.357644647857     1.007825032230
         H           -2.344454518135     1.742549276918    -1.336050352143     1.007825032230
         H            2.115687481865    -3.064484723082    -1.024847352143     1.007825032230
         H            4.295311481865    -2.156414723082    -0.205046352143     1.007825032230
         H           -3.110447518135    -2.164976723082     1.634023647857     1.007825032230
         H           -4.639343518135     0.787501276918    -1.099027352143     1.007825032230
         H           -5.017094518135    -1.165528723082     0.393184647857     1.007825032230
         H            1.788872481865     2.558572276918     0.381687647857     1.007825032230
         H            3.424679481865     2.284971276918     0.751224647857     1.007825032230

  Basis Set: AUG-CC-PVTZ
    Blend: AUG-CC-PVTZ
  Basis Set: (AUG-CC-PVTZ AUX)
    Blend: AUG-CC-PVTZ-JKFIT
	 Reference Energy          =    -628.2256114386485706 [Eh]
	 Singles Energy            =      -0.0000000000000000 [Eh]
	 Same-Spin Energy          =      -0.6914834948388852 [Eh]
	 Opposite-Spin Energy      =      -2.1094324549247161 [Eh]
	 Correlation Energy        =      -2.8009159497636014 [Eh]
	 Total Energy              =    -631.0265273884122053 [Eh]

	 ================> DF-SCS-MP2 Energies <==================
	-----------------------------------------------------------
	 SCS Same-Spin Scale       =       0.3333333333333333 [-]
	 SCS Opposite-Spin Scale   =       1.2000000000000000 [-]
	 SCS Same-Spin Energy      =      -0.2304944982796284 [Eh]
	 SCS Opposite-Spin Energy  =      -2.5313189459096592 [Eh]
	 SCS Correlation Energy    =      -2.7618134441892876 [Eh]
	 SCS Total Energy          =    -630.9874248828378995 [Eh]
	-----------------------------------------------------------

  Dipole Moment: [D]
     X:     0.2675      Y:    -1.5907      Z:    -0.1067     Total:     1.6166

*** Psi4 exiting successfully. Buy a developer a beer!
