                               Psi4 1.3.2 release

  ==> Input File <==

--------------------------------------------------------------------------
#psi4
#
memory 32 gb

molecule  {
0 1
  O       -0.0417540     2.1858230    -0.3073980
  N        2.3870811     1.9457980     0.7287192
  C        1.1160800     0.1042180    -0.1414450
  C       -1.4416830     0.3069060    -0.0388060
  C       -0.1006150     0.9516510    -0.1728080
  C        2.3683100     0.6434780     0.2543940
  C        1.0541080    -1.2200940    -0.6155900
  C        3.4881200    -0.2081800     0.2578510
  C       -1.6559060    -0.7921710     0.8065690
  C       -2.5248970     0.8906690    -0.7109620
  C        2.1811870    -2.0318670    -0.6465910
  C        3.4033030    -1.5159070    -0.2032770
  C       -2.9440810    -1.3050920     0.9648860
  C       -3.8044560     0.3593180    -0.5664320
  C       -4.0170070    -0.7392060     0.2722830
  H        0.1024420    -1.6051810    -0.9713120
  H        4.4463530     0.1894450     0.5890330
  H       -0.8230280    -1.2242950     1.3551890
  H       -2.3449380     1.7597130    -1.3385060
  H        2.1152040    -3.0473210    -1.0273030
  H        4.2948280    -2.1392510    -0.2075020
  H       -3.1109310    -2.1478130     1.6315680
  H       -4.6398270     0.8046650    -1.1014830
  H       -5.0175780    -1.1483650     0.3907290
  H        1.7883890     2.5757360     0.3792320
  H        3.4241960     2.3021350     0.7487690
units angstrom
no_reorient  #important for SAPT in psi4, default
symmetry c1  #important for SAPT in psi4, default
}

set PROPERTIES_ORIGIN ["COM"]
properties('MP2/aug-cc-pvtz', properties = ['dipole'])
--------------------------------------------------------------------------

    Molecular point group: c1
  Charge       = 0
  Multiplicity = 1
  Basis Set: AUG-CC-PVTZ
    Blend: AUG-CC-PVTZ
  Basis Set: (AUG-CC-PVTZ AUX)
    Blend: AUG-CC-PVTZ-JKFIT

    Orbital Energies [Eh]
    ---------------------

    Doubly Occupied:

       1A    -20.540328     2A    -15.563335     3A    -11.340498
       4A    -11.299868     5A    -11.255921     6A    -11.253917
       7A    -11.252174     8A    -11.251076     9A    -11.249777
      10A    -11.247647    11A    -11.245493    12A    -11.244062
      13A    -11.239657    14A    -11.236167    15A    -11.230361
      16A     -1.373671    17A     -1.229832    18A     -1.164000
      19A     -1.139397    20A     -1.057411    21A     -1.026164
      22A     -1.020942    23A     -0.999681    24A     -0.893750
      25A     -0.848981    26A     -0.838458    27A     -0.821595
      28A     -0.772826    29A     -0.718304    30A     -0.705585
      31A     -0.690399    32A     -0.666064    33A     -0.646889
      34A     -0.636069    35A     -0.615494    36A     -0.608020
      37A     -0.606705    38A     -0.596891    39A     -0.582703
      40A     -0.555507    41A     -0.537127    42A     -0.526346
      43A     -0.519620    44A     -0.507045    45A     -0.501921
      46A     -0.489983    47A     -0.454974    48A     -0.421864
      49A     -0.352239    50A     -0.345856    51A     -0.344196
      52A     -0.303192

  @DF-RHF Final Energy:  -628.21205608915125

   => Energetics <=

    Nuclear Repulsion Energy =            894.2195489700751523
    One-Electron Energy =               -2627.7232432006558156
    Two-Electron Energy =                1105.2916381414293028
    Total Energy =                       -628.2120560891512469
  Basis Set: (AUG-CC-PVTZ AUX)
    Blend: AUG-CC-PVTZ-RI
    Molecular point group: c1

    Geometry (in Angstrom), charge = 0, multiplicity = 1:

       Center              X                  Y                   Z               Mass
    ------------   -----------------  -----------------  -----------------  -----------------
         O           -0.033966091669     2.166417324617    -0.303644733454    15.994914619570
         N            2.394869008331     1.926392324617     0.732472466546    14.003074004430
         C            1.123867908331     0.084812324617    -0.137691733454    12.000000000000
         C           -1.433895091669     0.287500324617    -0.035052733454    12.000000000000
         C           -0.092827091669     0.932245324617    -0.169054733454    12.000000000000
         C            2.376097908331     0.624072324617     0.258147266546    12.000000000000
         C            1.061895908331    -1.239499675383    -0.611836733454    12.000000000000
         C            3.495907908331    -0.227585675383     0.261604266546    12.000000000000
         C           -1.648118091669    -0.811576675383     0.810322266546    12.000000000000
         C           -2.517109091669     0.871263324617    -0.707208733454    12.000000000000
         C            2.188974908331    -2.051272675383    -0.642837733454    12.000000000000
         C            3.411090908331    -1.535312675383    -0.199523733454    12.000000000000
         C           -2.936293091669    -1.324497675383     0.968639266546    12.000000000000
         C           -3.796668091669     0.339912324617    -0.562678733454    12.000000000000
         C           -4.009219091669    -0.758611675383     0.276036266546    12.000000000000
         H            0.110229908331    -1.624586675383    -0.967558733454     1.007825032230
         H            4.454140908331     0.170039324617     0.592786266546     1.007825032230
         H           -0.815240091669    -1.243700675383     1.358942266546     1.007825032230
         H           -2.337150091669     1.740307324617    -1.334752733454     1.007825032230
         H            2.122991908331    -3.066726675383    -1.023549733454     1.007825032230
         H            4.302615908331    -2.158656675383    -0.203748733454     1.007825032230
         H           -3.103143091669    -2.167218675383     1.635321266546     1.007825032230
         H           -4.632039091669     0.785259324617    -1.097729733454     1.007825032230
         H           -5.009790091669    -1.167770675383     0.394482266546     1.007825032230
         H            1.796176908331     2.556330324617     0.382985266546     1.007825032230
         H            3.431983908331     2.282729324617     0.752522266546     1.007825032230

  Basis Set: AUG-CC-PVTZ
    Blend: AUG-CC-PVTZ
  Basis Set: (AUG-CC-PVTZ AUX)
    Blend: AUG-CC-PVTZ-JKFIT
	 Reference Energy          =    -628.2120560891512469 [Eh]
	 Singles Energy            =      -0.0000000000000000 [Eh]
	 Same-Spin Energy          =      -0.6917912997571515 [Eh]
	 Opposite-Spin Energy      =      -2.1104142062165856 [Eh]
	 Correlation Energy        =      -2.8022055059737370 [Eh]
	 Total Energy              =    -631.0142615951249354 [Eh]

	 ================> DF-SCS-MP2 Energies <==================
	-----------------------------------------------------------
	 SCS Same-Spin Scale       =       0.3333333333333333 [-]
	 SCS Opposite-Spin Scale   =       1.2000000000000000 [-]
	 SCS Same-Spin Energy      =      -0.2305970999190505 [Eh]
	 SCS Opposite-Spin Energy  =      -2.5324970474599025 [Eh]
	 SCS Correlation Energy    =      -2.7630941473789528 [Eh]
	 SCS Total Energy          =    -630.9751502365302258 [Eh]
	-----------------------------------------------------------

  Dipole Moment: [D]
     X:     0.4578      Y:    -1.6710      Z:    -0.0895     Total:     1.7349

*** Psi4 exiting successfully. Buy a developer a beer!
