                               Psi4 1.3.2 release

  ==> Input File <==

--------------------------------------------------------------------------
#psi4
#
memory 32 gb

molecule  {
0 1
  O       -0.0417540     2.1858230    -0.3073980
  N        2.4805920     1.9330880     0.7500480
  C        1.1160800     0.1042180    -0.1414450
  C       -1.4416830     0.3069060    -0.0388060
  C       -0.1006150     0.9516510    -0.1728080
  C        2.3683100     0.6434780     0.2543940
  C        1.0541080    -1.2200940    -0.6155900
  C        3.4881200    -0.2081800     0.2578510
  C       -1.6711745    -0.8705064     0.8668221
  C       -2.5248970     0.8906690    -0.7109620
  C        2.1811870    -2.0318670    -0.6465910
  C        3.4033030    -1.5159070    -0.2032770
  C       -2.9440810    -1.3050920     0.9648860
  C       -3.8044560     0.3593180    -0.5664320
  C       -4.0170070    -0.7392060     0.2722830
  H        0.1024420    -1.6051810    -0.9713120
  H        4.4463530     0.1894450     0.5890330
  H       -0.8230280    -1.2242950     1.3551890
  H       -2.3449380     1.7597130    -1.3385060
  H        2.1152040    -3.0473210    -1.0273030
  H        4.2948280    -2.1392510    -0.2075020
  H       -3.1109310    -2.1478130     1.6315680
  H       -4.6398270     0.8046650    -1.1014830
  H       -5.0175780    -1.1483650     0.3907290
  H        1.7883890     2.5757360     0.3792320
  H        3.4241960     2.3021350     0.7487690
units angstrom
no_reorient  #important for SAPT in psi4, default
symmetry c1  #important for SAPT in psi4, default
}

set PROPERTIES_ORIGIN ["COM"]
properties('MP2/aug-cc-pvtz', properties = ['dipole'])
--------------------------------------------------------------------------

    Molecular point group: c1
  Charge       = 0
  Multiplicity = 1
  Basis Set: AUG-CC-PVTZ
    Blend: AUG-CC-PVTZ
  Basis Set: (AUG-CC-PVTZ AUX)
    Blend: AUG-CC-PVTZ-JKFIT

    Orbital Energies [Eh]
    ---------------------

    Doubly Occupied:

       1A    -20.540314     2A    -15.561696     3A    -11.340895
       4A    -11.298848     5A    -11.257674     6A    -11.254398
       7A    -11.254084     8A    -11.253147     9A    -11.252809
      10A    -11.249299    11A    -11.246184    12A    -11.241906
      13A    -11.241043    14A    -11.233551    15A    -11.229859
      16A     -1.373234    17A     -1.228367    18A     -1.159930
      19A     -1.138525    20A     -1.053807    21A     -1.034800
      22A     -1.016276    23A     -0.997523    24A     -0.895375
      25A     -0.852098    26A     -0.837886    27A     -0.816820
      28A     -0.767190    29A     -0.719004    30A     -0.704834
      31A     -0.688419    32A     -0.674280    33A     -0.646482
      34A     -0.637702    35A     -0.613650    36A     -0.606676
      37A     -0.604694    38A     -0.602597    39A     -0.586239
      40A     -0.556342    41A     -0.535504    42A     -0.532811
      43A     -0.519042    44A     -0.509665    45A     -0.493079
      46A     -0.487950    47A     -0.454154    48A     -0.420956
      49A     -0.355966    50A     -0.349744    51A     -0.336375
      52A     -0.301851

  @DF-RHF Final Energy:  -628.21410043883168

   => Energetics <=

    Nuclear Repulsion Energy =            891.7496367255261021
    One-Electron Energy =               -2622.7963657049508583
    Two-Electron Energy =                1102.8326285405928502
    Total Energy =                       -628.2141004388317924
  Basis Set: (AUG-CC-PVTZ AUX)
    Blend: AUG-CC-PVTZ-RI
    Molecular point group: c1

    Geometry (in Angstrom), charge = 0, multiplicity = 1:

       Center              X                  Y                   Z               Mass
    ------------   -----------------  -----------------  -----------------  -----------------
         O           -0.039680496122     2.172090050499    -0.308828845980    15.994914619570
         N            2.482665503878     1.919355050499     0.748617154020    14.003074004430
         C            1.118153503878     0.090485050499    -0.142875845980    12.000000000000
         C           -1.439609496122     0.293173050499    -0.040236845980    12.000000000000
         C           -0.098541496122     0.937918050499    -0.174238845980    12.000000000000
         C            2.370383503878     0.629745050499     0.252963154020    12.000000000000
         C            1.056181503878    -1.233826949501    -0.617020845980    12.000000000000
         C            3.490193503878    -0.221912949501     0.256420154020    12.000000000000
         C           -1.669100996122    -0.884239349501     0.865391254020    12.000000000000
         C           -2.522823496122     0.876936050499    -0.712392845980    12.000000000000
         C            2.183260503878    -2.045599949501    -0.648021845980    12.000000000000
         C            3.405376503878    -1.529639949501    -0.204707845980    12.000000000000
         C           -2.942007496122    -1.318824949501     0.963455154020    12.000000000000
         C           -3.802382496122     0.345585050499    -0.567862845980    12.000000000000
         C           -4.014933496122    -0.752938949501     0.270852154020    12.000000000000
         H            0.104515503878    -1.618913949501    -0.972742845980     1.007825032230
         H            4.448426503878     0.175712050499     0.587602154020     1.007825032230
         H           -0.820954496122    -1.238027949501     1.353758154020     1.007825032230
         H           -2.342864496122     1.745980050499    -1.339936845980     1.007825032230
         H            2.117277503878    -3.061053949501    -1.028733845980     1.007825032230
         H            4.296901503878    -2.152983949501    -0.208932845980     1.007825032230
         H           -3.108857496122    -2.161545949501     1.630137154020     1.007825032230
         H           -4.637753496122     0.790932050499    -1.102913845980     1.007825032230
         H           -5.015504496122    -1.162097949501     0.389298154020     1.007825032230
         H            1.790462503878     2.562003050499     0.377801154020     1.007825032230
         H            3.426269503878     2.288402050499     0.747338154020     1.007825032230

  Basis Set: AUG-CC-PVTZ
    Blend: AUG-CC-PVTZ
  Basis Set: (AUG-CC-PVTZ AUX)
    Blend: AUG-CC-PVTZ-JKFIT
	 Reference Energy          =    -628.2141004388316787 [Eh]
	 Singles Energy            =      -0.0000000000000000 [Eh]
	 Same-Spin Energy          =      -0.6915658642854013 [Eh]
	 Opposite-Spin Energy      =      -2.1105026311733237 [Eh]
	 Correlation Energy        =      -2.8020684954587249 [Eh]
	 Total Energy              =    -631.0161689342903628 [Eh]

	 ================> DF-SCS-MP2 Energies <==================
	-----------------------------------------------------------
	 SCS Same-Spin Scale       =       0.3333333333333333 [-]
	 SCS Opposite-Spin Scale   =       1.2000000000000000 [-]
	 SCS Same-Spin Energy      =      -0.2305219547618004 [Eh]
	 SCS Opposite-Spin Energy  =      -2.5326031574079884 [Eh]
	 SCS Correlation Energy    =      -2.7631251121697886 [Eh]
	 SCS Total Energy          =    -630.9772255510014247 [Eh]
	-----------------------------------------------------------

  Dipole Moment: [D]
     X:     0.3193      Y:    -1.6232      Z:    -0.1177     Total:     1.6584

*** Psi4 exiting successfully. Buy a developer a beer!
