                               Psi4 1.3.2 release

  ==> Input File <==

--------------------------------------------------------------------------
#psi4
#
memory 32 gb

molecule  {
0 1
  O       -0.0417540     2.1858230    -0.3073980
  N        2.4805920     1.9330880     0.7500480
  C        1.1160800     0.1042180    -0.1414450
  C       -1.4416830     0.3069060    -0.0388060
  C       -0.0865160     0.9717974    -0.1647258
  C        2.3683100     0.6434780     0.2543940
  C        1.0541080    -1.2200940    -0.6155900
  C        3.4881200    -0.2081800     0.2578510
  C       -1.6559060    -0.7921710     0.8065690
  C       -2.5248970     0.8906690    -0.7109620
  C        2.1811870    -2.0318670    -0.6465910
  C        3.4033030    -1.5159070    -0.2032770
  C       -2.9440810    -1.3050920     0.9648860
  C       -3.8044560     0.3593180    -0.5664320
  C       -4.0170070    -0.7392060     0.2722830
  H        0.1024420    -1.6051810    -0.9713120
  H        4.4463530     0.1894450     0.5890330
  H       -0.8230280    -1.2242950     1.3551890
  H       -2.3449380     1.7597130    -1.3385060
  H        2.1152040    -3.0473210    -1.0273030
  H        4.2948280    -2.1392510    -0.2075020
  H       -3.1109310    -2.1478130     1.6315680
  H       -4.6398270     0.8046650    -1.1014830
  H       -5.0175780    -1.1483650     0.3907290
  H        1.7883890     2.5757360     0.3792320
  H        3.4241960     2.3021350     0.7487690
units angstrom
no_reorient  #important for SAPT in psi4, default
symmetry c1  #important for SAPT in psi4, default
}

set PROPERTIES_ORIGIN ["COM"]
properties('MP2/aug-cc-pvtz', properties = ['dipole'])
--------------------------------------------------------------------------

    Molecular point group: c1
  Charge       = 0
  Multiplicity = 1
  Basis Set: AUG-CC-PVTZ
    Blend: AUG-CC-PVTZ
  Basis Set: (AUG-CC-PVTZ AUX)
    Blend: AUG-CC-PVTZ-JKFIT

    Orbital Energies [Eh]
    ---------------------

    Doubly Occupied:

       1A    -20.544410     2A    -15.562663     3A    -11.341198
       4A    -11.298671     5A    -11.254549     6A    -11.254490
       7A    -11.251028     8A    -11.249908     9A    -11.249441
      10A    -11.246630    11A    -11.244817    12A    -11.243458
      13A    -11.240791    14A    -11.233576    15A    -11.230088
      16A     -1.388254    17A     -1.229431    18A     -1.162612
      19A     -1.138603    20A     -1.055637    21A     -1.025011
      22A     -1.019978    23A     -0.998084    24A     -0.891238
      25A     -0.848614    26A     -0.837683    27A     -0.819312
      28A     -0.770089    29A     -0.717951    30A     -0.702451
      31A     -0.689560    32A     -0.670799    33A     -0.648829
      34A     -0.634225    35A     -0.616291    36A     -0.611539
      37A     -0.605098    38A     -0.596224    39A     -0.590295
      40A     -0.557420    41A     -0.537430    42A     -0.527150
      43A     -0.519315    44A     -0.509957    45A     -0.501400
      46A     -0.494136    47A     -0.454510    48A     -0.419975
      49A     -0.352040    50A     -0.345521    51A     -0.343596
      52A     -0.302458

  @DF-RHF Final Energy:  -628.22744998998201

   => Energetics <=

    Nuclear Repulsion Energy =            893.2274979559849726
    One-Electron Energy =               -2625.7530353685338014
    Two-Electron Energy =                1104.2980874225668231
    Total Energy =                       -628.2274499899820057
  Basis Set: (AUG-CC-PVTZ AUX)
    Blend: AUG-CC-PVTZ-RI
    Molecular point group: c1

    Geometry (in Angstrom), charge = 0, multiplicity = 1:

       Center              X                  Y                   Z               Mass
    ------------   -----------------  -----------------  -----------------  -----------------
         O           -0.041468616343     2.166093717888    -0.305652278644    15.994914619570
         N            2.480877383657     1.913358717888     0.751793721356    14.003074004430
         C            1.116365383657     0.084488717888    -0.139699278644    12.000000000000
         C           -1.441397616343     0.287176717888    -0.037060278644    12.000000000000
         C           -0.086230616343     0.952068117888    -0.162980078644    12.000000000000
         C            2.368595383657     0.623748717888     0.256139721356    12.000000000000
         C            1.054393383657    -1.239823282112    -0.613844278644    12.000000000000
         C            3.488405383657    -0.227909282112     0.259596721356    12.000000000000
         C           -1.655620616343    -0.811900282112     0.808314721356    12.000000000000
         C           -2.524611616343     0.870939717888    -0.709216278644    12.000000000000
         C            2.181472383657    -2.051596282112    -0.644845278644    12.000000000000
         C            3.403588383657    -1.535636282112    -0.201531278644    12.000000000000
         C           -2.943795616343    -1.324821282112     0.966631721356    12.000000000000
         C           -3.804170616343     0.339588717888    -0.564686278644    12.000000000000
         C           -4.016721616343    -0.758935282112     0.274028721356    12.000000000000
         H            0.102727383657    -1.624910282112    -0.969566278644     1.007825032230
         H            4.446638383657     0.169715717888     0.590778721356     1.007825032230
         H           -0.822742616343    -1.244024282112     1.356934721356     1.007825032230
         H           -2.344652616343     1.739983717888    -1.336760278644     1.007825032230
         H            2.115489383657    -3.067050282112    -1.025557278644     1.007825032230
         H            4.295113383657    -2.158980282112    -0.205756278644     1.007825032230
         H           -3.110645616343    -2.167542282112     1.633313721356     1.007825032230
         H           -4.639541616343     0.784935717888    -1.099737278644     1.007825032230
         H           -5.017292616343    -1.168094282112     0.392474721356     1.007825032230
         H            1.788674383657     2.556006717888     0.380977721356     1.007825032230
         H            3.424481383657     2.282405717888     0.750514721356     1.007825032230

  Basis Set: AUG-CC-PVTZ
    Blend: AUG-CC-PVTZ
  Basis Set: (AUG-CC-PVTZ AUX)
    Blend: AUG-CC-PVTZ-JKFIT
	 Reference Energy          =    -628.2274499899820057 [Eh]
	 Singles Energy            =      -0.0000000000000000 [Eh]
	 Same-Spin Energy          =      -0.6909482139855856 [Eh]
	 Opposite-Spin Energy      =      -2.1083961304169176 [Eh]
	 Correlation Energy        =      -2.7993443444025035 [Eh]
	 Total Energy              =    -631.0267943343844763 [Eh]

	 ================> DF-SCS-MP2 Energies <==================
	-----------------------------------------------------------
	 SCS Same-Spin Scale       =       0.3333333333333333 [-]
	 SCS Opposite-Spin Scale   =       1.2000000000000000 [-]
	 SCS Same-Spin Energy      =      -0.2303160713285285 [Eh]
	 SCS Opposite-Spin Energy  =      -2.5300753565003009 [Eh]
	 SCS Correlation Energy    =      -2.7603914278288295 [Eh]
	 SCS Total Energy          =    -630.9878414178108414 [Eh]
	-----------------------------------------------------------

  Dipole Moment: [D]
     X:     0.4608      Y:    -1.5463      Z:    -0.1145     Total:     1.6176

*** Psi4 exiting successfully. Buy a developer a beer!
