                               Psi4 1.3.2 release

  ==> Input File <==

--------------------------------------------------------------------------
#psi4
#
memory 32 gb

molecule  {
0 1
  O       -0.0850667     2.1873380    -0.3054562
  N        2.4805920     1.9330880     0.7500480
  C        1.1160800     0.1042180    -0.1414450
  C       -1.4416830     0.3069060    -0.0388060
  C       -0.1006150     0.9516510    -0.1728080
  C        2.3683100     0.6434780     0.2543940
  C        1.0541080    -1.2200940    -0.6155900
  C        3.4881200    -0.2081800     0.2578510
  C       -1.6559060    -0.7921710     0.8065690
  C       -2.5248970     0.8906690    -0.7109620
  C        2.1811870    -2.0318670    -0.6465910
  C        3.4033030    -1.5159070    -0.2032770
  C       -2.9440810    -1.3050920     0.9648860
  C       -3.8044560     0.3593180    -0.5664320
  C       -4.0170070    -0.7392060     0.2722830
  H        0.1024420    -1.6051810    -0.9713120
  H        4.4463530     0.1894450     0.5890330
  H       -0.8230280    -1.2242950     1.3551890
  H       -2.3449380     1.7597130    -1.3385060
  H        2.1152040    -3.0473210    -1.0273030
  H        4.2948280    -2.1392510    -0.2075020
  H       -3.1109310    -2.1478130     1.6315680
  H       -4.6398270     0.8046650    -1.1014830
  H       -5.0175780    -1.1483650     0.3907290
  H        1.7883890     2.5757360     0.3792320
  H        3.4241960     2.3021350     0.7487690
units angstrom
no_reorient  #important for SAPT in psi4, default
symmetry c1  #important for SAPT in psi4, default
}

set PROPERTIES_ORIGIN ["COM"]
properties('MP2/aug-cc-pvtz', properties = ['dipole'])
--------------------------------------------------------------------------

    Molecular point group: c1
  Charge       = 0
  Multiplicity = 1
  Basis Set: AUG-CC-PVTZ
    Blend: AUG-CC-PVTZ
  Basis Set: (AUG-CC-PVTZ AUX)
    Blend: AUG-CC-PVTZ-JKFIT

    Orbital Energies [Eh]
    ---------------------

    Doubly Occupied:

       1A    -20.541443     2A    -15.563851     3A    -11.341288
       4A    -11.300325     5A    -11.255626     6A    -11.255480
       7A    -11.251060     8A    -11.250122     9A    -11.248469
      10A    -11.246499    11A    -11.244686    12A    -11.243248
      13A    -11.242785    14A    -11.234558    15A    -11.230831
      16A     -1.374076    17A     -1.230287    18A     -1.162972
      19A     -1.139642    20A     -1.057414    21A     -1.025387
      22A     -1.020736    23A     -0.998897    24A     -0.893422
      25A     -0.849494    26A     -0.838090    27A     -0.820397
      28A     -0.769912    29A     -0.718202    30A     -0.702668
      31A     -0.689959    32A     -0.670684    33A     -0.646041
      34A     -0.634267    35A     -0.615657    36A     -0.611169
      37A     -0.605557    38A     -0.596147    39A     -0.589170
      40A     -0.555087    41A     -0.536012    42A     -0.526584
      43A     -0.519402    44A     -0.510077    45A     -0.500989
      46A     -0.490652    47A     -0.455274    48A     -0.422091
      49A     -0.352862    50A     -0.345223    51A     -0.343131
      52A     -0.303373

  @DF-RHF Final Energy:  -628.22568129210651

   => Energetics <=

    Nuclear Repulsion Energy =            893.0763697692293590
    One-Electron Energy =               -2625.4615535628013276
    Two-Electron Energy =                1104.1595025014655675
    Total Energy =                       -628.2256812921064011
  Basis Set: (AUG-CC-PVTZ AUX)
    Blend: AUG-CC-PVTZ-RI
    Molecular point group: c1

    Geometry (in Angstrom), charge = 0, multiplicity = 1:

       Center              X                  Y                   Z               Mass
    ------------   -----------------  -----------------  -----------------  -----------------
         O           -0.080407695660     2.168712432211    -0.303375964156    15.994914619570
         N            2.485251004340     1.914462432211     0.752128235844    14.003074004430
         C            1.120739004340     0.085592432211    -0.139364764156    12.000000000000
         C           -1.437023995660     0.288280432211    -0.036725764156    12.000000000000
         C           -0.095955995660     0.933025432211    -0.170727764156    12.000000000000
         C            2.372969004340     0.624852432211     0.256474235844    12.000000000000
         C            1.058767004340    -1.238719567789    -0.613509764156    12.000000000000
         C            3.492779004340    -0.226805567789     0.259931235844    12.000000000000
         C           -1.651246995660    -0.810796567789     0.808649235844    12.000000000000
         C           -2.520237995660     0.872043432211    -0.708881764156    12.000000000000
         C            2.185846004340    -2.050492567789    -0.644510764156    12.000000000000
         C            3.407962004340    -1.534532567789    -0.201196764156    12.000000000000
         C           -2.939421995660    -1.323717567789     0.966966235844    12.000000000000
         C           -3.799796995660     0.340692432211    -0.564351764156    12.000000000000
         C           -4.012347995660    -0.757831567789     0.274363235844    12.000000000000
         H            0.107101004340    -1.623806567789    -0.969231764156     1.007825032230
         H            4.451012004340     0.170819432211     0.591113235844     1.007825032230
         H           -0.818368995660    -1.242920567789     1.357269235844     1.007825032230
         H           -2.340278995660     1.741087432211    -1.336425764156     1.007825032230
         H            2.119863004340    -3.065946567789    -1.025222764156     1.007825032230
         H            4.299487004340    -2.157876567789    -0.205421764156     1.007825032230
         H           -3.106271995660    -2.166438567789     1.633648235844     1.007825032230
         H           -4.635167995660     0.786039432211    -1.099402764156     1.007825032230
         H           -5.012918995660    -1.166990567789     0.392809235844     1.007825032230
         H            1.793048004340     2.557110432211     0.381312235844     1.007825032230
         H            3.428855004340     2.283509432211     0.750849235844     1.007825032230

  Basis Set: AUG-CC-PVTZ
    Blend: AUG-CC-PVTZ
  Basis Set: (AUG-CC-PVTZ AUX)
    Blend: AUG-CC-PVTZ-JKFIT
	 Reference Energy          =    -628.2256812921065148 [Eh]
	 Singles Energy            =      -0.0000000000000000 [Eh]
	 Same-Spin Energy          =      -0.6914890154361628 [Eh]
	 Opposite-Spin Energy      =      -2.1095662236145705 [Eh]
	 Correlation Energy        =      -2.8010552390507333 [Eh]
	 Total Energy              =    -631.0267365311572121 [Eh]

	 ================> DF-SCS-MP2 Energies <==================
	-----------------------------------------------------------
	 SCS Same-Spin Scale       =       0.3333333333333333 [-]
	 SCS Opposite-Spin Scale   =       1.2000000000000000 [-]
	 SCS Same-Spin Energy      =      -0.2304963384787209 [Eh]
	 SCS Opposite-Spin Energy  =      -2.5314794683374844 [Eh]
	 SCS Correlation Energy    =      -2.7619758068162055 [Eh]
	 SCS Total Energy          =    -630.9876570989226821 [Eh]
	-----------------------------------------------------------

  Dipole Moment: [D]
     X:     0.5407      Y:    -1.6369      Z:    -0.1108     Total:     1.7275

*** Psi4 exiting successfully. Buy a developer a beer!
