                               Psi4 1.3.2 release

  ==> Input File <==

--------------------------------------------------------------------------
#psi4
#
memory 32 gb

molecule  {
0 1
  O       -0.0417540     2.1858230    -0.3073980
  N        2.4805920     1.9330880     0.7500480
  C        1.1160800     0.1042180    -0.1414450
  C       -1.4416830     0.3069060    -0.0388060
  C       -0.1006150     0.9516510    -0.1728080
  C        2.3683100     0.6434780     0.2543940
  C        1.0541080    -1.2200940    -0.6155900
  C        3.4881200    -0.2081800     0.2578510
  C       -1.6253690    -0.6355002     0.6860628
  C       -2.5248970     0.8906690    -0.7109620
  C        2.1811870    -2.0318670    -0.6465910
  C        3.4033030    -1.5159070    -0.2032770
  C       -2.9440810    -1.3050920     0.9648860
  C       -3.8044560     0.3593180    -0.5664320
  C       -4.0170070    -0.7392060     0.2722830
  H        0.1024420    -1.6051810    -0.9713120
  H        4.4463530     0.1894450     0.5890330
  H       -0.8230280    -1.2242950     1.3551890
  H       -2.3449380     1.7597130    -1.3385060
  H        2.1152040    -3.0473210    -1.0273030
  H        4.2948280    -2.1392510    -0.2075020
  H       -3.1109310    -2.1478130     1.6315680
  H       -4.6398270     0.8046650    -1.1014830
  H       -5.0175780    -1.1483650     0.3907290
  H        1.7883890     2.5757360     0.3792320
  H        3.4241960     2.3021350     0.7487690
units angstrom
no_reorient  #important for SAPT in psi4, default
symmetry c1  #important for SAPT in psi4, default
}

set PROPERTIES_ORIGIN ["COM"]
properties('MP2/aug-cc-pvtz', properties = ['dipole'])
--------------------------------------------------------------------------

    Molecular point group: c1
  Charge       = 0
  Multiplicity = 1
  Basis Set: AUG-CC-PVTZ
    Blend: AUG-CC-PVTZ
  Basis Set: (AUG-CC-PVTZ AUX)
    Blend: AUG-CC-PVTZ-JKFIT

    Orbital Energies [Eh]
    ---------------------

    Doubly Occupied:

       1A    -20.544873     2A    -15.562438     3A    -11.343335
       4A    -11.299386     5A    -11.254696     6A    -11.254659
       7A    -11.254183     8A    -11.248391     9A    -11.246559
      10A    -11.246436    11A    -11.242047    12A    -11.241481
      13A    -11.233626    14A    -11.229856    15A    -11.226768
      16A     -1.377387    17A     -1.229020    18A     -1.184710
      19A     -1.138820    20A     -1.071243    21A     -1.032520
      22A     -1.007774    23A     -0.998224    24A     -0.890750
      25A     -0.849344    26A     -0.843754    27A     -0.821540
      28A     -0.773004    29A     -0.717689    30A     -0.700135
      31A     -0.689297    32A     -0.670824    33A     -0.647837
      34A     -0.635815    35A     -0.625269    36A     -0.611561
      37A     -0.605795    38A     -0.589215    39A     -0.580637
      40A     -0.554069    41A     -0.537987    42A     -0.530186
      43A     -0.522032    44A     -0.511932    45A     -0.494426
      46A     -0.483740    47A     -0.453209    48A     -0.417826
      49A     -0.376595    50A     -0.349757    51A     -0.329700
      52A     -0.302547

  @DF-RHF Final Energy:  -628.16626616307212

   => Energetics <=

    Nuclear Repulsion Energy =            896.5523177004243962
    One-Electron Energy =               -2632.2673539361612711
    Two-Electron Energy =                1107.5487700726648654
    Total Energy =                       -628.1662661630721232
  Basis Set: (AUG-CC-PVTZ AUX)
    Blend: AUG-CC-PVTZ-RI
    Molecular point group: c1

    Geometry (in Angstrom), charge = 0, multiplicity = 1:

       Center              X                  Y                   Z               Mass
    ------------   -----------------  -----------------  -----------------  -----------------
         O           -0.042469488742     2.157781057965    -0.297822823696    15.994914619570
         N            2.479876511258     1.905046057965     0.759623176304    14.003074004430
         C            1.115364511258     0.076176057965    -0.131869823696    12.000000000000
         C           -1.442398488742     0.278864057965    -0.029230823696    12.000000000000
         C           -0.101330488742     0.923609057965    -0.163232823696    12.000000000000
         C            2.367594511258     0.615436057965     0.263969176304    12.000000000000
         C            1.053392511258    -1.248135942035    -0.606014823696    12.000000000000
         C            3.487404511258    -0.236221942035     0.267426176304    12.000000000000
         C           -1.626084488742    -0.663542142035     0.695637976304    12.000000000000
         C           -2.525612488742     0.862627057965    -0.701386823696    12.000000000000
         C            2.180471511258    -2.059908942035    -0.637015823696    12.000000000000
         C            3.402587511258    -1.543948942035    -0.193701823696    12.000000000000
         C           -2.944796488742    -1.333133942035     0.974461176304    12.000000000000
         C           -3.805171488742     0.331276057965    -0.556856823696    12.000000000000
         C           -4.017722488742    -0.767247942035     0.281858176304    12.000000000000
         H            0.101726511258    -1.633222942035    -0.961736823696     1.007825032230
         H            4.445637511258     0.161403057965     0.598608176304     1.007825032230
         H           -0.823743488742    -1.252336942035     1.364764176304     1.007825032230
         H           -2.345653488742     1.731671057965    -1.328930823696     1.007825032230
         H            2.114488511258    -3.075362942035    -1.017727823696     1.007825032230
         H            4.294112511258    -2.167292942035    -0.197926823696     1.007825032230
         H           -3.111646488742    -2.175854942035     1.641143176304     1.007825032230
         H           -4.640542488742     0.776623057965    -1.091907823696     1.007825032230
         H           -5.018293488742    -1.176406942035     0.400304176304     1.007825032230
         H            1.787673511258     2.547694057965     0.388807176304     1.007825032230
         H            3.423480511258     2.274093057965     0.758344176304     1.007825032230

  Basis Set: AUG-CC-PVTZ
    Blend: AUG-CC-PVTZ
  Basis Set: (AUG-CC-PVTZ AUX)
    Blend: AUG-CC-PVTZ-JKFIT
	 Reference Energy          =    -628.1662661630721232 [Eh]
	 Singles Energy            =      -0.0000000000000000 [Eh]
	 Same-Spin Energy          =      -0.6908420099286163 [Eh]
	 Opposite-Spin Energy      =      -2.1111363562428256 [Eh]
	 Correlation Energy        =      -2.8019783661714417 [Eh]
	 Total Energy              =    -630.9682445292435204 [Eh]

	 ================> DF-SCS-MP2 Energies <==================
	-----------------------------------------------------------
	 SCS Same-Spin Scale       =       0.3333333333333333 [-]
	 SCS Opposite-Spin Scale   =       1.2000000000000000 [-]
	 SCS Same-Spin Energy      =      -0.2302806699762054 [Eh]
	 SCS Opposite-Spin Energy  =      -2.5333636274913904 [Eh]
	 SCS Correlation Energy    =      -2.7636442974675957 [Eh]
	 SCS Total Energy          =    -630.9299104605397588 [Eh]
	-----------------------------------------------------------

  Dipole Moment: [D]
     X:     0.4261      Y:    -1.6292      Z:    -0.0910     Total:     1.6865

*** Psi4 exiting successfully. Buy a developer a beer!
