                               Psi4 1.3.2 release

  ==> Input File <==

--------------------------------------------------------------------------
#psi4
#
memory 32 gb

molecule  {
0 1
  O       -0.0417540     2.1858230    -0.3073980
  N        2.4805920     1.9330880     0.7500480
  C        1.1160800     0.1042180    -0.1414450
  C       -1.4416830     0.3069060    -0.0388060
  C       -0.1143434     0.9312465    -0.1808806
  C        2.3683100     0.6434780     0.2543940
  C        1.0541080    -1.2200940    -0.6155900
  C        3.4881200    -0.2081800     0.2578510
  C       -1.6559060    -0.7921710     0.8065690
  C       -2.5248970     0.8906690    -0.7109620
  C        2.1811870    -2.0318670    -0.6465910
  C        3.4033030    -1.5159070    -0.2032770
  C       -2.9440810    -1.3050920     0.9648860
  C       -3.8044560     0.3593180    -0.5664320
  C       -4.0170070    -0.7392060     0.2722830
  H        0.1024420    -1.6051810    -0.9713120
  H        4.4463530     0.1894450     0.5890330
  H       -0.8230280    -1.2242950     1.3551890
  H       -2.3449380     1.7597130    -1.3385060
  H        2.1152040    -3.0473210    -1.0273030
  H        4.2948280    -2.1392510    -0.2075020
  H       -3.1109310    -2.1478130     1.6315680
  H       -4.6398270     0.8046650    -1.1014830
  H       -5.0175780    -1.1483650     0.3907290
  H        1.7883890     2.5757360     0.3792320
  H        3.4241960     2.3021350     0.7487690
units angstrom
no_reorient  #important for SAPT in psi4, default
symmetry c1  #important for SAPT in psi4, default
}

set PROPERTIES_ORIGIN ["COM"]
properties('MP2/aug-cc-pvtz', properties = ['dipole'])
--------------------------------------------------------------------------

    Molecular point group: c1
  Charge       = 0
  Multiplicity = 1
  Basis Set: AUG-CC-PVTZ
    Blend: AUG-CC-PVTZ
  Basis Set: (AUG-CC-PVTZ AUX)
    Blend: AUG-CC-PVTZ-JKFIT

    Orbital Energies [Eh]
    ---------------------

    Doubly Occupied:

       1A    -20.538564     2A    -15.561201     3A    -11.341924
       4A    -11.299396     5A    -11.254532     6A    -11.254220
       7A    -11.253917     8A    -11.253063     9A    -11.250784
      10A    -11.249465    11A    -11.246839    12A    -11.245370
      13A    -11.241626    14A    -11.233586    15A    -11.229613
      16A     -1.360754    17A     -1.227705    18A     -1.166091
      19A     -1.138575    20A     -1.059524    21A     -1.027970
      22A     -1.022174    23A     -0.997509    24A     -0.895655
      25A     -0.849944    26A     -0.839994    27A     -0.820818
      28A     -0.770929    29A     -0.718629    30A     -0.702312
      31A     -0.687752    32A     -0.670553    33A     -0.647020
      34A     -0.634571    35A     -0.615505    36A     -0.610841
      37A     -0.604409    38A     -0.598205    39A     -0.584367
      40A     -0.552930    41A     -0.534101    42A     -0.526705
      43A     -0.520338    44A     -0.509309    45A     -0.503124
      46A     -0.487079    47A     -0.453566    48A     -0.423278
      49A     -0.352211    50A     -0.346938    51A     -0.345432
      52A     -0.301746

  @DF-RHF Final Energy:  -628.22299672778513

   => Energetics <=

    Nuclear Repulsion Energy =            893.1883877122922968
    One-Electron Energy =               -2625.6974413371353876
    Two-Electron Energy =                1104.2860568970579607
    Total Energy =                       -628.2229967277851301
  Basis Set: (AUG-CC-PVTZ AUX)
    Blend: AUG-CC-PVTZ-RI
    Molecular point group: c1

    Geometry (in Angstrom), charge = 0, multiplicity = 1:

       Center              X                  Y                   Z               Mass
    ------------   -----------------  -----------------  -----------------  -----------------
         O           -0.039774269305     2.168562769876    -0.304668649648    15.994914619570
         N            2.482571730695     1.915827769876     0.752777350352    14.003074004430
         C            1.118059730695     0.086957769876    -0.138715649648    12.000000000000
         C           -1.439703269305     0.289645769876    -0.036076649648    12.000000000000
         C           -0.112363669305     0.913986269876    -0.178151249648    12.000000000000
         C            2.370289730695     0.626217769876     0.257123350352    12.000000000000
         C            1.056087730695    -1.237354230124    -0.612860649648    12.000000000000
         C            3.490099730695    -0.225440230124     0.260580350352    12.000000000000
         C           -1.653926269305    -0.809431230124     0.809298350352    12.000000000000
         C           -2.522917269305     0.873408769876    -0.708232649648    12.000000000000
         C            2.183166730695    -2.049127230124    -0.643861649648    12.000000000000
         C            3.405282730695    -1.533167230124    -0.200547649648    12.000000000000
         C           -2.942101269305    -1.322352230124     0.967615350352    12.000000000000
         C           -3.802476269305     0.342057769876    -0.563702649648    12.000000000000
         C           -4.015027269305    -0.756466230124     0.275012350352    12.000000000000
         H            0.104421730695    -1.622441230124    -0.968582649648     1.007825032230
         H            4.448332730695     0.172184769876     0.591762350352     1.007825032230
         H           -0.821048269305    -1.241555230124     1.357918350352     1.007825032230
         H           -2.342958269305     1.742452769876    -1.335776649648     1.007825032230
         H            2.117183730695    -3.064581230124    -1.024573649648     1.007825032230
         H            4.296807730695    -2.156511230124    -0.204772649648     1.007825032230
         H           -3.108951269305    -2.165073230124     1.634297350352     1.007825032230
         H           -4.637847269305     0.787404769876    -1.098753649648     1.007825032230
         H           -5.015598269305    -1.165625230124     0.393458350352     1.007825032230
         H            1.790368730695     2.558475769876     0.381961350352     1.007825032230
         H            3.426175730695     2.284874769876     0.751498350352     1.007825032230

  Basis Set: AUG-CC-PVTZ
    Blend: AUG-CC-PVTZ
  Basis Set: (AUG-CC-PVTZ AUX)
    Blend: AUG-CC-PVTZ-JKFIT
	 Reference Energy          =    -628.2229967277851301 [Eh]
	 Singles Energy            =      -0.0000000000000000 [Eh]
	 Same-Spin Energy          =      -0.6922302424328525 [Eh]
	 Opposite-Spin Energy      =      -2.1109079949769267 [Eh]
	 Correlation Energy        =      -2.8031382374097791 [Eh]
	 Total Energy              =    -631.0261349651949558 [Eh]

	 ================> DF-SCS-MP2 Energies <==================
	-----------------------------------------------------------
	 SCS Same-Spin Scale       =       0.3333333333333333 [-]
	 SCS Opposite-Spin Scale   =       1.2000000000000000 [-]
	 SCS Same-Spin Energy      =      -0.2307434141442841 [Eh]
	 SCS Opposite-Spin Energy  =      -2.5330895939723121 [Eh]
	 SCS Correlation Energy    =      -2.7638330081165963 [Eh]
	 SCS Total Energy          =    -630.9868297359017788 [Eh]
	-----------------------------------------------------------

  Dipole Moment: [D]
     X:     0.2496      Y:    -1.7215      Z:    -0.0890     Total:     1.7417

*** Psi4 exiting successfully. Buy a developer a beer!
