                               Psi4 1.3.2 release

  ==> Input File <==

--------------------------------------------------------------------------
#psi4
#
memory 32 gb

molecule  {
0 1
  O       -0.0417540     2.1858230    -0.3073980
  N        2.4805920     1.9330880     0.7500480
  C        1.1160800     0.1042180    -0.1414450
  C       -1.4416830     0.3069060    -0.0388060
  C       -0.1006150     0.9516510    -0.1728080
  C        2.3683100     0.6434780     0.2543940
  C        1.0541080    -1.2200940    -0.6155900
  C        3.4881200    -0.2081800     0.2578510
  C       -1.6319311    -0.7927653     0.8115171
  C       -2.5248970     0.8906690    -0.7109620
  C        2.1811870    -2.0318670    -0.6465910
  C        3.4033030    -1.5159070    -0.2032770
  C       -2.9440810    -1.3050920     0.9648860
  C       -3.8044560     0.3593180    -0.5664320
  C       -4.0170070    -0.7392060     0.2722830
  H        0.1024420    -1.6051810    -0.9713120
  H        4.4463530     0.1894450     0.5890330
  H       -0.8230280    -1.2242950     1.3551890
  H       -2.3449380     1.7597130    -1.3385060
  H        2.1152040    -3.0473210    -1.0273030
  H        4.2948280    -2.1392510    -0.2075020
  H       -3.1109310    -2.1478130     1.6315680
  H       -4.6398270     0.8046650    -1.1014830
  H       -5.0175780    -1.1483650     0.3907290
  H        1.7883890     2.5757360     0.3792320
  H        3.4241960     2.3021350     0.7487690
units angstrom
no_reorient  #important for SAPT in psi4, default
symmetry c1  #important for SAPT in psi4, default
}

set PROPERTIES_ORIGIN ["COM"]
properties('MP2/aug-cc-pvtz', properties = ['dipole'])
--------------------------------------------------------------------------

    Molecular point group: c1
  Charge       = 0
  Multiplicity = 1
  Basis Set: AUG-CC-PVTZ
    Blend: AUG-CC-PVTZ
  Basis Set: (AUG-CC-PVTZ AUX)
    Blend: AUG-CC-PVTZ-JKFIT

    Orbital Energies [Eh]
    ---------------------

    Doubly Occupied:

       1A    -20.541199     2A    -15.561879     3A    -11.340947
       4A    -11.299006     5A    -11.254500     6A    -11.254173
       7A    -11.253505     8A    -11.251381     9A    -11.250748
      10A    -11.248289    11A    -11.248055    12A    -11.244891
      13A    -11.241128    14A    -11.233581    15A    -11.229854
      16A     -1.374104    17A     -1.228533    18A     -1.162682
      19A     -1.138465    20A     -1.057923    21A     -1.024823
      22A     -1.020877    23A     -0.997785    24A     -0.892829
      25A     -0.849254    26A     -0.840558    27A     -0.819791
      28A     -0.769728    29A     -0.718563    30A     -0.702617
      31A     -0.688604    32A     -0.670525    33A     -0.649077
      34A     -0.634092    35A     -0.616159    36A     -0.611710
      37A     -0.604688    38A     -0.597142    39A     -0.587439
      40A     -0.554807    41A     -0.535749    42A     -0.526333
      43A     -0.518839    44A     -0.509239    45A     -0.504950
      46A     -0.490392    47A     -0.454066    48A     -0.421250
      49A     -0.351996    50A     -0.346959    51A     -0.342655
      52A     -0.302093

  @DF-RHF Final Energy:  -628.22499321837881

   => Energetics <=

    Nuclear Repulsion Energy =            893.1052458162034782
    One-Electron Energy =               -2625.5196251064171520
    Two-Electron Energy =                1104.1893860718348606
    Total Energy =                       -628.2249932183788133
  Basis Set: (AUG-CC-PVTZ AUX)
    Blend: AUG-CC-PVTZ-RI
    Molecular point group: c1

    Geometry (in Angstrom), charge = 0, multiplicity = 1:

       Center              X                  Y                   Z               Mass
    ------------   -----------------  -----------------  -----------------  -----------------
         O           -0.042069937412     2.167356571895    -0.305461450430    15.994914619570
         N            2.480276062588     1.914621571895     0.751984549570    14.003074004430
         C            1.115764062588     0.085751571895    -0.139508450430    12.000000000000
         C           -1.441998937412     0.288439571895    -0.036869450430    12.000000000000
         C           -0.100930937412     0.933184571895    -0.170871450430    12.000000000000
         C            2.367994062588     0.625011571895     0.256330549570    12.000000000000
         C            1.053792062588    -1.238560428105    -0.613653450430    12.000000000000
         C            3.487804062588    -0.226646428105     0.259787549570    12.000000000000
         C           -1.632247037412    -0.811231728105     0.813453649570    12.000000000000
         C           -2.525212937412     0.872202571895    -0.709025450430    12.000000000000
         C            2.180871062588    -2.050333428105    -0.644654450430    12.000000000000
         C            3.402987062588    -1.534373428105    -0.201340450430    12.000000000000
         C           -2.944396937412    -1.323558428105     0.966822549570    12.000000000000
         C           -3.804771937412     0.340851571895    -0.564495450430    12.000000000000
         C           -4.017322937412    -0.757672428105     0.274219549570    12.000000000000
         H            0.102126062588    -1.623647428105    -0.969375450430     1.007825032230
         H            4.446037062588     0.170978571895     0.590969549570     1.007825032230
         H           -0.823343937412    -1.242761428105     1.357125549570     1.007825032230
         H           -2.345253937412     1.741246571895    -1.336569450430     1.007825032230
         H            2.114888062588    -3.065787428105    -1.025366450430     1.007825032230
         H            4.294512062588    -2.157717428105    -0.205565450430     1.007825032230
         H           -3.111246937412    -2.166279428105     1.633504549570     1.007825032230
         H           -4.640142937412     0.786198571895    -1.099546450430     1.007825032230
         H           -5.017893937412    -1.166831428105     0.392665549570     1.007825032230
         H            1.788073062588     2.557269571895     0.381168549570     1.007825032230
         H            3.423880062588     2.283668571895     0.750705549570     1.007825032230

  Basis Set: AUG-CC-PVTZ
    Blend: AUG-CC-PVTZ
  Basis Set: (AUG-CC-PVTZ AUX)
    Blend: AUG-CC-PVTZ-JKFIT
	 Reference Energy          =    -628.2249932183788133 [Eh]
	 Singles Energy            =      -0.0000000000000000 [Eh]
	 Same-Spin Energy          =      -0.6915692404563618 [Eh]
	 Opposite-Spin Energy      =      -2.1097720566946538 [Eh]
	 Correlation Energy        =      -2.8013412971510157 [Eh]
	 Total Energy              =    -631.0263345155298111 [Eh]

	 ================> DF-SCS-MP2 Energies <==================
	-----------------------------------------------------------
	 SCS Same-Spin Scale       =       0.3333333333333333 [-]
	 SCS Opposite-Spin Scale   =       1.2000000000000000 [-]
	 SCS Same-Spin Energy      =      -0.2305230801521206 [Eh]
	 SCS Opposite-Spin Energy  =      -2.5317264680335847 [Eh]
	 SCS Correlation Energy    =      -2.7622495481857055 [Eh]
	 SCS Total Energy          =    -630.9872427665644636 [Eh]
	-----------------------------------------------------------

  Dipole Moment: [D]
     X:     0.3460      Y:    -1.6392      Z:    -0.0988     Total:     1.6782

*** Psi4 exiting successfully. Buy a developer a beer!
