                               Psi4 1.3.2 release

  ==> Input File <==

--------------------------------------------------------------------------
#psi4
#
memory 32 gb

molecule  {
0 1
  O       -0.0417540     2.1858230    -0.3073980
  N        2.4805920     1.9330880     0.7500480
  C        1.1160800     0.1042180    -0.1414450
  C       -1.4416830     0.3069060    -0.0388060
  C       -0.1006150     0.9516510    -0.1728080
  C        2.4275289     0.5120897     0.2181552
  C        1.0541080    -1.2200940    -0.6155900
  C        3.4881200    -0.2081800     0.2578510
  C       -1.6559060    -0.7921710     0.8065690
  C       -2.5248970     0.8906690    -0.7109620
  C        2.1811870    -2.0318670    -0.6465910
  C        3.4033030    -1.5159070    -0.2032770
  C       -2.9440810    -1.3050920     0.9648860
  C       -3.8044560     0.3593180    -0.5664320
  C       -4.0170070    -0.7392060     0.2722830
  H        0.1024420    -1.6051810    -0.9713120
  H        4.4463530     0.1894450     0.5890330
  H       -0.8230280    -1.2242950     1.3551890
  H       -2.3449380     1.7597130    -1.3385060
  H        2.1152040    -3.0473210    -1.0273030
  H        4.2948280    -2.1392510    -0.2075020
  H       -3.1109310    -2.1478130     1.6315680
  H       -4.6398270     0.8046650    -1.1014830
  H       -5.0175780    -1.1483650     0.3907290
  H        1.7883890     2.5757360     0.3792320
  H        3.4241960     2.3021350     0.7487690
units angstrom
no_reorient  #important for SAPT in psi4, default
symmetry c1  #important for SAPT in psi4, default
}

set PROPERTIES_ORIGIN ["COM"]
properties('MP2/aug-cc-pvtz', properties = ['dipole'])
--------------------------------------------------------------------------

    Molecular point group: c1
  Charge       = 0
  Multiplicity = 1
  Basis Set: AUG-CC-PVTZ
    Blend: AUG-CC-PVTZ
  Basis Set: (AUG-CC-PVTZ AUX)
    Blend: AUG-CC-PVTZ-JKFIT

    Orbital Energies [Eh]
    ---------------------

    Doubly Occupied:

       1A    -20.544038     2A    -15.543254     3A    -11.346642
       4A    -11.285630     5A    -11.259911     6A    -11.258139
       7A    -11.254721     8A    -11.253202     9A    -11.253063
      10A    -11.250151    11A    -11.248426    12A    -11.247498
      13A    -11.246076    14A    -11.237012    15A    -11.224813
      16A     -1.375486    17A     -1.204201    18A     -1.165777
      19A     -1.129546    20A     -1.065018    21A     -1.031887
      22A     -1.026161    23A     -1.007043    24A     -0.900470
      25A     -0.854348    26A     -0.840107    27A     -0.818071
      28A     -0.775904    29A     -0.722760    30A     -0.695500
      31A     -0.676039    32A     -0.665027    33A     -0.649192
      34A     -0.633632    35A     -0.626142    36A     -0.612919
      37A     -0.599135    38A     -0.592667    39A     -0.586967
      40A     -0.555686    41A     -0.540330    42A     -0.527864
      43A     -0.523481    44A     -0.505311    45A     -0.503059
      46A     -0.487497    47A     -0.434865    48A     -0.426969
      49A     -0.357056    50A     -0.347972    51A     -0.346525
      52A     -0.317332

  @DF-RHF Final Energy:  -628.19768424974825

   => Energetics <=

    Nuclear Repulsion Energy =            893.4610227215875966
    One-Electron Energy =               -2626.1563673387558993
    Two-Electron Energy =                1104.4976603674199396
    Total Energy =                       -628.1976842497483631
  Basis Set: (AUG-CC-PVTZ AUX)
    Blend: AUG-CC-PVTZ-RI
    Molecular point group: c1

    Geometry (in Angstrom), charge = 0, multiplicity = 1:

       Center              X                  Y                   Z               Mass
    ------------   -----------------  -----------------  -----------------  -----------------
         O           -0.044215864340     2.175320320807    -0.302953673850    15.994914619570
         N            2.478130135660     1.922585320807     0.754492326150    14.003074004430
         C            1.113618135660     0.093715320807    -0.137000673850    12.000000000000
         C           -1.444144864340     0.296403320807    -0.034361673850    12.000000000000
         C           -0.103076864340     0.941148320807    -0.168363673850    12.000000000000
         C            2.425067035660     0.501587020807     0.222599526150    12.000000000000
         C            1.051646135660    -1.230596679193    -0.611145673850    12.000000000000
         C            3.485658135660    -0.218682679193     0.262295326150    12.000000000000
         C           -1.658367864340    -0.802673679193     0.811013326150    12.000000000000
         C           -2.527358864340     0.880166320807    -0.706517673850    12.000000000000
         C            2.178725135660    -2.042369679193    -0.642146673850    12.000000000000
         C            3.400841135660    -1.526409679193    -0.198832673850    12.000000000000
         C           -2.946542864340    -1.315594679193     0.969330326150    12.000000000000
         C           -3.806917864340     0.348815320807    -0.561987673850    12.000000000000
         C           -4.019468864340    -0.749708679193     0.276727326150    12.000000000000
         H            0.099980135660    -1.615683679193    -0.966867673850     1.007825032230
         H            4.443891135660     0.178942320807     0.593477326150     1.007825032230
         H           -0.825489864340    -1.234797679193     1.359633326150     1.007825032230
         H           -2.347399864340     1.749210320807    -1.334061673850     1.007825032230
         H            2.112742135660    -3.057823679193    -1.022858673850     1.007825032230
         H            4.292366135660    -2.149753679193    -0.203057673850     1.007825032230
         H           -3.113392864340    -2.158315679193     1.636012326150     1.007825032230
         H           -4.642288864340     0.794162320807    -1.097038673850     1.007825032230
         H           -5.020039864340    -1.158867679193     0.395173326150     1.007825032230
         H            1.785927135660     2.565233320807     0.383676326150     1.007825032230
         H            3.421734135660     2.291632320807     0.753213326150     1.007825032230

  Basis Set: AUG-CC-PVTZ
    Blend: AUG-CC-PVTZ
  Basis Set: (AUG-CC-PVTZ AUX)
    Blend: AUG-CC-PVTZ-JKFIT
	 Reference Energy          =    -628.1976842497482494 [Eh]
	 Singles Energy            =      -0.0000000000000000 [Eh]
	 Same-Spin Energy          =      -0.6914442158659039 [Eh]
	 Opposite-Spin Energy      =      -2.1109093274191744 [Eh]
	 Correlation Energy        =      -2.8023535432850784 [Eh]
	 Total Energy              =    -631.0000377930333570 [Eh]

	 ================> DF-SCS-MP2 Energies <==================
	-----------------------------------------------------------
	 SCS Same-Spin Scale       =       0.3333333333333333 [-]
	 SCS Opposite-Spin Scale   =       1.2000000000000000 [-]
	 SCS Same-Spin Energy      =      -0.2304814052886346 [Eh]
	 SCS Opposite-Spin Energy  =      -2.5330911929030093 [Eh]
	 SCS Correlation Energy    =      -2.7635725981916441 [Eh]
	 SCS Total Energy          =    -630.9612568479399215 [Eh]
	-----------------------------------------------------------

  Dipole Moment: [D]
     X:     0.0679      Y:    -2.4357      Z:    -0.4245     Total:     2.4733

*** Psi4 exiting successfully. Buy a developer a beer!
