                               Psi4 1.3.2 release

  ==> Input File <==

--------------------------------------------------------------------------
#psi4
#
memory 32 gb

molecule  {
0 1
  O       -0.0417540     2.1858230    -0.3073980
  N        2.4805920     1.9330880     0.7500480
  C        1.1160800     0.1042180    -0.1414450
  C       -1.4416830     0.3069060    -0.0388060
  C       -0.1532637     0.8685467    -0.2050167
  C        2.3683100     0.6434780     0.2543940
  C        1.0541080    -1.2200940    -0.6155900
  C        3.4881200    -0.2081800     0.2578510
  C       -1.6559060    -0.7921710     0.8065690
  C       -2.5248970     0.8906690    -0.7109620
  C        2.1811870    -2.0318670    -0.6465910
  C        3.4033030    -1.5159070    -0.2032770
  C       -2.9440810    -1.3050920     0.9648860
  C       -3.8044560     0.3593180    -0.5664320
  C       -4.0170070    -0.7392060     0.2722830
  H        0.1024420    -1.6051810    -0.9713120
  H        4.4463530     0.1894450     0.5890330
  H       -0.8230280    -1.2242950     1.3551890
  H       -2.3449380     1.7597130    -1.3385060
  H        2.1152040    -3.0473210    -1.0273030
  H        4.2948280    -2.1392510    -0.2075020
  H       -3.1109310    -2.1478130     1.6315680
  H       -4.6398270     0.8046650    -1.1014830
  H       -5.0175780    -1.1483650     0.3907290
  H        1.7883890     2.5757360     0.3792320
  H        3.4241960     2.3021350     0.7487690
units angstrom
no_reorient  #important for SAPT in psi4, default
symmetry c1  #important for SAPT in psi4, default
}

set PROPERTIES_ORIGIN ["COM"]
properties('MP2/aug-cc-pvtz', properties = ['dipole'])
--------------------------------------------------------------------------

    Molecular point group: c1
  Charge       = 0
  Multiplicity = 1
  Basis Set: AUG-CC-PVTZ
    Blend: AUG-CC-PVTZ
  Basis Set: (AUG-CC-PVTZ AUX)
    Blend: AUG-CC-PVTZ-JKFIT

    Orbital Energies [Eh]
    ---------------------

    Doubly Occupied:

       1A    -20.529012     2A    -15.559233     3A    -11.342703
       4A    -11.300665     5A    -11.259016     6A    -11.257908
       7A    -11.254761     8A    -11.254562     9A    -11.253207
      10A    -11.250452    11A    -11.249686    12A    -11.248101
      13A    -11.243553    14A    -11.233738    15A    -11.229026
      16A     -1.322164    17A     -1.225129    18A     -1.171041
      19A     -1.138715    20A     -1.066340    21A     -1.032097
      22A     -1.025085    23A     -0.996829    24A     -0.903239
      25A     -0.851968    26A     -0.842723    27A     -0.823169
      28A     -0.772362    29A     -0.720366    30A     -0.702430
      31A     -0.685541    32A     -0.672572    33A     -0.647585
      34A     -0.633380    35A     -0.614888    36A     -0.610236
      37A     -0.603817    38A     -0.600997    39A     -0.572286
      40A     -0.549449    41A     -0.528949    42A     -0.527019
      43A     -0.523586    44A     -0.508543    45A     -0.504180
      46A     -0.473289    47A     -0.452183    48A     -0.422746
      49A     -0.353650    50A     -0.347925    51A     -0.346742
      52A     -0.300790

  @DF-RHF Final Energy:  -628.20410406852795

   => Energetics <=

    Nuclear Repulsion Energy =            893.1918120669045038
    One-Electron Energy =               -2625.7125639943778879
    Two-Electron Energy =                1104.3166478589453163
    Total Energy =                       -628.2041040685280677
  Basis Set: (AUG-CC-PVTZ AUX)
    Blend: AUG-CC-PVTZ-RI
    Molecular point group: c1

    Geometry (in Angstrom), charge = 0, multiplicity = 1:

       Center              X                  Y                   Z               Mass
    ------------   -----------------  -----------------  -----------------  -----------------
         O           -0.037404500839     2.172380417964    -0.303199057464    15.994914619570
         N            2.484941499161     1.919645417964     0.754246942536    14.003074004430
         C            1.120429499161     0.090775417964    -0.137246057464    12.000000000000
         C           -1.437333500839     0.293463417964    -0.034607057464    12.000000000000
         C           -0.148914200839     0.855104117964    -0.200817757464    12.000000000000
         C            2.372659499161     0.630035417964     0.258592942536    12.000000000000
         C            1.058457499161    -1.233536582036    -0.611391057464    12.000000000000
         C            3.492469499161    -0.221622582036     0.262049942536    12.000000000000
         C           -1.651556500839    -0.805613582036     0.810767942536    12.000000000000
         C           -2.520547500839     0.877226417964    -0.706763057464    12.000000000000
         C            2.185536499161    -2.045309582036    -0.642392057464    12.000000000000
         C            3.407652499161    -1.529349582036    -0.199078057464    12.000000000000
         C           -2.939731500839    -1.318534582036     0.969084942536    12.000000000000
         C           -3.800106500839     0.345875417964    -0.562233057464    12.000000000000
         C           -4.012657500839    -0.752648582036     0.276481942536    12.000000000000
         H            0.106791499161    -1.618623582036    -0.967113057464     1.007825032230
         H            4.450702499161     0.176002417964     0.593231942536     1.007825032230
         H           -0.818678500839    -1.237737582036     1.359387942536     1.007825032230
         H           -2.340588500839     1.746270417964    -1.334307057464     1.007825032230
         H            2.119553499161    -3.060763582036    -1.023104057464     1.007825032230
         H            4.299177499161    -2.152693582036    -0.203303057464     1.007825032230
         H           -3.106581500839    -2.161255582036     1.635766942536     1.007825032230
         H           -4.635477500839     0.791222417964    -1.097284057464     1.007825032230
         H           -5.013228500839    -1.161807582036     0.394927942536     1.007825032230
         H            1.792738499161     2.562293417964     0.383430942536     1.007825032230
         H            3.428545499161     2.288692417964     0.752967942536     1.007825032230

  Basis Set: AUG-CC-PVTZ
    Blend: AUG-CC-PVTZ
  Basis Set: (AUG-CC-PVTZ AUX)
    Blend: AUG-CC-PVTZ-JKFIT
	 Reference Energy          =    -628.2041040685279540 [Eh]
	 Singles Energy            =      -0.0000000000000000 [Eh]
	 Same-Spin Energy          =      -0.6946496827666673 [Eh]
	 Opposite-Spin Energy      =      -2.1155476919102858 [Eh]
	 Correlation Energy        =      -2.8101973746769531 [Eh]
	 Total Energy              =    -631.0143014432048858 [Eh]

	 ================> DF-SCS-MP2 Energies <==================
	-----------------------------------------------------------
	 SCS Same-Spin Scale       =       0.3333333333333333 [-]
	 SCS Opposite-Spin Scale   =       1.2000000000000000 [-]
	 SCS Same-Spin Energy      =      -0.2315498942555557 [Eh]
	 SCS Opposite-Spin Energy  =      -2.5386572302923427 [Eh]
	 SCS Correlation Energy    =      -2.7702071245478983 [Eh]
	 SCS Total Energy          =    -630.9743111930758914 [Eh]
	-----------------------------------------------------------

  Dipole Moment: [D]
     X:    -0.0179      Y:    -1.9524      Z:    -0.0497     Total:     1.9531

*** Psi4 exiting successfully. Buy a developer a beer!
