                               Psi4 1.4a3.dev225

  ==> Input File <==

--------------------------------------------------------------------------
#psi4
#
memory 32 gb

molecule  {
0 1
  O       -0.0417540     2.1858230    -0.3073980
  N        2.4805920     1.9330880     0.7500480
  C        1.1160800     0.1042180    -0.1414450
  C       -1.4416830     0.3069060    -0.0388060
  C       -0.1170229     0.9630792    -0.1732309
  C        2.3683100     0.6434780     0.2543940
  C        1.0541080    -1.2200940    -0.6155900
  C        3.4881200    -0.2081800     0.2578510
  C       -1.6559060    -0.7921710     0.8065690
  C       -2.5248970     0.8906690    -0.7109620
  C        2.1811870    -2.0318670    -0.6465910
  C        3.4033030    -1.5159070    -0.2032770
  C       -2.9440810    -1.3050920     0.9648860
  C       -3.8044560     0.3593180    -0.5664320
  C       -4.0170070    -0.7392060     0.2722830
  H        0.1024420    -1.6051810    -0.9713120
  H        4.4463530     0.1894450     0.5890330
  H       -0.8230280    -1.2242950     1.3551890
  H       -2.3449380     1.7597130    -1.3385060
  H        2.1152040    -3.0473210    -1.0273030
  H        4.2948280    -2.1392510    -0.2075020
  H       -3.1109310    -2.1478130     1.6315680
  H       -4.6398270     0.8046650    -1.1014830
  H       -5.0175780    -1.1483650     0.3907290
  H        1.7883890     2.5757360     0.3792320
  H        3.4241960     2.3021350     0.7487690
units angstrom
no_reorient  #important for SAPT in psi4, default
symmetry c1  #important for SAPT in psi4, default
}

set PROPERTIES_ORIGIN ["COM"]
properties('MP2/aug-cc-pvtz', properties = ['dipole'])
--------------------------------------------------------------------------

    Molecular point group: c1
  Charge       = 0
  Multiplicity = 1
  Basis Set: AUG-CC-PVTZ
    Blend: AUG-CC-PVTZ
  Basis Set: (AUG-CC-PVTZ AUX)
    Blend: AUG-CC-PVTZ-JKFIT

    Orbital Energies [Eh]
    ---------------------

    Doubly Occupied:

       1A    -20.543321     2A    -15.560890     3A    -11.341582
       4A    -11.297212     5A    -11.253761     6A    -11.252730
       7A    -11.252490     8A    -11.252489     9A    -11.250198
      10A    -11.248857    11A    -11.246623    12A    -11.245095
      13A    -11.241068    14A    -11.232464    15A    -11.228732
      16A     -1.381865    17A     -1.227408    18A     -1.165457
      19A     -1.136976    20A     -1.056799    21A     -1.027392
      22A     -1.020535    23A     -0.996111    24A     -0.892642
      25A     -0.848657    26A     -0.839331    27A     -0.819140
      28A     -0.770400    29A     -0.717952    30A     -0.702015
      31A     -0.687625    32A     -0.670493    33A     -0.650126
      34A     -0.635086    35A     -0.616334    36A     -0.611116
      37A     -0.603929    38A     -0.597938    39A     -0.587523
      40A     -0.555257    41A     -0.536013    42A     -0.527747
      43A     -0.520181    44A     -0.509270    45A     -0.503245
      46A     -0.492793    47A     -0.453000    48A     -0.421181
      49A     -0.351272    50A     -0.347236    51A     -0.345045
      52A     -0.300823

  @DF-RHF Final Energy:  -628.22676628701095

   => Energetics <=

    Nuclear Repulsion Energy =            893.1703473461271869
    One-Electron Energy =               -2625.6473786525739342
    Two-Electron Energy =                1104.2502650194360285
    Total Energy =                       -628.2267662870108325
  Basis Set: (AUG-CC-PVTZ AUX)
    Blend: AUG-CC-PVTZ-RI
    Molecular point group: c1

    Geometry (in Angstrom), charge = 0, multiplicity = 1:

       Center              X                  Y                   Z               Mass
    ------------   -----------------  -----------------  -----------------  -----------------
         O           -0.039611120650     2.166624549239    -0.305134422467    15.994914619570
         N            2.482734879350     1.913889549239     0.752311577533    14.003074004430
         C            1.118222879350     0.085019549239    -0.139181422467    12.000000000000
         C           -1.439540120650     0.287707549239    -0.036542422467    12.000000000000
         C           -0.114880020650     0.943880749239    -0.170967322467    12.000000000000
         C            2.370452879350     0.624279549239     0.256657577533    12.000000000000
         C            1.056250879350    -1.239292450761    -0.613326422467    12.000000000000
         C            3.490262879350    -0.227378450761     0.260114577533    12.000000000000
         C           -1.653763120650    -0.811369450761     0.808832577533    12.000000000000
         C           -2.522754120650     0.871470549239    -0.708698422467    12.000000000000
         C            2.183329879350    -2.051065450761    -0.644327422467    12.000000000000
         C            3.405445879350    -1.535105450761    -0.201013422467    12.000000000000
         C           -2.941938120650    -1.324290450761     0.967149577533    12.000000000000
         C           -3.802313120650     0.340119549239    -0.564168422467    12.000000000000
         C           -4.014864120650    -0.758404450761     0.274546577533    12.000000000000
         H            0.104584879350    -1.624379450761    -0.969048422467     1.007825032230
         H            4.448495879350     0.170246549239     0.591296577533     1.007825032230
         H           -0.820885120650    -1.243493450761     1.357452577533     1.007825032230
         H           -2.342795120650     1.740514549239    -1.336242422467     1.007825032230
         H            2.117346879350    -3.066519450761    -1.025039422467     1.007825032230
         H            4.296970879350    -2.158449450761    -0.205238422467     1.007825032230
         H           -3.108788120650    -2.167011450761     1.633831577533     1.007825032230
         H           -4.637684120650     0.785466549239    -1.099219422467     1.007825032230
         H           -5.015435120650    -1.167563450761     0.392992577533     1.007825032230
         H            1.790531879350     2.556537549239     0.381495577533     1.007825032230
         H            3.426338879350     2.282936549239     0.751032577533     1.007825032230

  Basis Set: AUG-CC-PVTZ
    Blend: AUG-CC-PVTZ
  Basis Set: (AUG-CC-PVTZ AUX)
    Blend: AUG-CC-PVTZ-JKFIT
	 Reference Energy          =    -628.2267662870109461 [Eh]
	 Singles Energy            =      -0.0000000000000000 [Eh]
	 Same-Spin Energy          =      -0.6912460787434433 [Eh]
	 Opposite-Spin Energy      =      -2.1089929393907481 [Eh]
	 Correlation Energy        =      -2.8002390181341914 [Eh]
	 Total Energy              =    -631.0270053051451669 [Eh]

	 ================> DF-SCS-MP2 Energies <==================
	-----------------------------------------------------------
	 SCS Same-Spin Scale       =       0.3333333333333333 [-]
	 SCS Opposite-Spin Scale   =       1.2000000000000000 [-]
	 SCS Same-Spin Energy      =      -0.2304153595811478 [Eh]
	 SCS Opposite-Spin Energy  =      -2.5307915272688977 [Eh]
	 SCS Correlation Energy    =      -2.7612068868500454 [Eh]
	 SCS Total Energy          =    -630.9879731738609507 [Eh]
	-----------------------------------------------------------

  Dipole Moment: [D]
     X:     0.1705      Y:    -1.5777      Z:    -0.0994     Total:     1.5900

*** Psi4 exiting successfully. Buy a developer a beer!
