                               Psi4 1.3.2 release

  ==> Input File <==

--------------------------------------------------------------------------
#psi4
#
memory 32 gb

molecule  {
0 1
  O       -0.0417540     2.1858230    -0.3073980
  N        2.4805920     1.9330880     0.7500480
  C        1.1400430     0.1012372    -0.1368883
  C       -1.4416830     0.3069060    -0.0388060
  C       -0.1006150     0.9516510    -0.1728080
  C        2.3683100     0.6434780     0.2543940
  C        1.0541080    -1.2200940    -0.6155900
  C        3.4881200    -0.2081800     0.2578510
  C       -1.6559060    -0.7921710     0.8065690
  C       -2.5248970     0.8906690    -0.7109620
  C        2.1811870    -2.0318670    -0.6465910
  C        3.4033030    -1.5159070    -0.2032770
  C       -2.9440810    -1.3050920     0.9648860
  C       -3.8044560     0.3593180    -0.5664320
  C       -4.0170070    -0.7392060     0.2722830
  H        0.1024420    -1.6051810    -0.9713120
  H        4.4463530     0.1894450     0.5890330
  H       -0.8230280    -1.2242950     1.3551890
  H       -2.3449380     1.7597130    -1.3385060
  H        2.1152040    -3.0473210    -1.0273030
  H        4.2948280    -2.1392510    -0.2075020
  H       -3.1109310    -2.1478130     1.6315680
  H       -4.6398270     0.8046650    -1.1014830
  H       -5.0175780    -1.1483650     0.3907290
  H        1.7883890     2.5757360     0.3792320
  H        3.4241960     2.3021350     0.7487690
units angstrom
no_reorient  #important for SAPT in psi4, default
symmetry c1  #important for SAPT in psi4, default
}

set PROPERTIES_ORIGIN ["COM"]
properties('MP2/aug-cc-pvtz', properties = ['dipole'])
--------------------------------------------------------------------------

    Molecular point group: c1
  Charge       = 0
  Multiplicity = 1
  Basis Set: AUG-CC-PVTZ
    Blend: AUG-CC-PVTZ
  Basis Set: (AUG-CC-PVTZ AUX)
    Blend: AUG-CC-PVTZ-JKFIT

    Orbital Energies [Eh]
    ---------------------

    Doubly Occupied:

       1A    -20.542719     2A    -15.560738     3A    -11.343251
       4A    -11.295360     5A    -11.253125     6A    -11.253080
       7A    -11.252950     8A    -11.251929     9A    -11.250943
      10A    -11.248693    11A    -11.246240    12A    -11.244846
      13A    -11.240747    14A    -11.233596    15A    -11.229810
      16A     -1.374809    17A     -1.228760    18A     -1.164704
      19A     -1.138844    20A     -1.055984    21A     -1.026855
      22A     -1.021088    23A     -0.998835    24A     -0.891620
      25A     -0.849532    26A     -0.839659    27A     -0.820162
      28A     -0.770122    29A     -0.718085    30A     -0.702231
      31A     -0.687553    32A     -0.669438    33A     -0.647984
      34A     -0.634931    35A     -0.616424    36A     -0.611822
      37A     -0.604564    38A     -0.597582    39A     -0.587369
      40A     -0.555223    41A     -0.534635    42A     -0.527432
      43A     -0.519809    44A     -0.511455    45A     -0.502669
      46A     -0.491576    47A     -0.453467    48A     -0.420733
      49A     -0.351553    50A     -0.346593    51A     -0.344884
      52A     -0.303079

  @DF-RHF Final Energy:  -628.22569249548883

   => Energetics <=

    Nuclear Repulsion Energy =            893.1796602231296447
    One-Electron Energy =               -2625.6705246295964571
    Two-Electron Energy =                1104.2651719109778696
    Total Energy =                       -628.2256924954888291
  Basis Set: (AUG-CC-PVTZ AUX)
    Blend: AUG-CC-PVTZ-RI
    Molecular point group: c1

    Geometry (in Angstrom), charge = 0, multiplicity = 1:

       Center              X                  Y                   Z               Mass
    ------------   -----------------  -----------------  -----------------  -----------------
         O           -0.042069212848     2.167501880447    -0.305437618975    15.994914619570
         N            2.480276787152     1.914766880447     0.752008381025    14.003074004430
         C            1.139727787152     0.082916080447    -0.134927918975    12.000000000000
         C           -1.441998212848     0.288584880447    -0.036845618975    12.000000000000
         C           -0.100930212848     0.933329880447    -0.170847618975    12.000000000000
         C            2.367994787152     0.625156880447     0.256354381025    12.000000000000
         C            1.053792787152    -1.238415119553    -0.613629618975    12.000000000000
         C            3.487804787152    -0.226501119553     0.259811381025    12.000000000000
         C           -1.656221212848    -0.810492119553     0.808529381025    12.000000000000
         C           -2.525212212848     0.872347880447    -0.709001618975    12.000000000000
         C            2.180871787152    -2.050188119553    -0.644630618975    12.000000000000
         C            3.402987787152    -1.534228119553    -0.201316618975    12.000000000000
         C           -2.944396212848    -1.323413119553     0.966846381025    12.000000000000
         C           -3.804771212848     0.340996880447    -0.564471618975    12.000000000000
         C           -4.017322212848    -0.757527119553     0.274243381025    12.000000000000
         H            0.102126787152    -1.623502119553    -0.969351618975     1.007825032230
         H            4.446037787152     0.171123880447     0.590993381025     1.007825032230
         H           -0.823343212848    -1.242616119553     1.357149381025     1.007825032230
         H           -2.345253212848     1.741391880447    -1.336545618975     1.007825032230
         H            2.114888787152    -3.065642119553    -1.025342618975     1.007825032230
         H            4.294512787152    -2.157572119553    -0.205541618975     1.007825032230
         H           -3.111246212848    -2.166134119553     1.633528381025     1.007825032230
         H           -4.640142212848     0.786343880447    -1.099522618975     1.007825032230
         H           -5.017893212848    -1.166686119553     0.392689381025     1.007825032230
         H            1.788073787152     2.557414880447     0.381192381025     1.007825032230
         H            3.423880787152     2.283813880447     0.750729381025     1.007825032230

  Basis Set: AUG-CC-PVTZ
    Blend: AUG-CC-PVTZ
  Basis Set: (AUG-CC-PVTZ AUX)
    Blend: AUG-CC-PVTZ-JKFIT
	 Reference Energy          =    -628.2256924954888291 [Eh]
	 Singles Energy            =      -0.0000000000000000 [Eh]
	 Same-Spin Energy          =      -0.6914295528635237 [Eh]
	 Opposite-Spin Energy      =      -2.1094758001552143 [Eh]
	 Correlation Energy        =      -2.8009053530187380 [Eh]
	 Total Energy              =    -631.0265978485075493 [Eh]

	 ================> DF-SCS-MP2 Energies <==================
	-----------------------------------------------------------
	 SCS Same-Spin Scale       =       0.3333333333333333 [-]
	 SCS Opposite-Spin Scale   =       1.2000000000000000 [-]
	 SCS Same-Spin Energy      =      -0.2304765176211745 [Eh]
	 SCS Opposite-Spin Energy  =      -2.5313709601862571 [Eh]
	 SCS Correlation Energy    =      -2.7618474778074318 [Eh]
	 SCS Total Energy          =    -630.9875399732962933 [Eh]
	-----------------------------------------------------------

  Dipole Moment: [D]
     X:     0.2623      Y:    -1.6286      Z:    -0.1148     Total:     1.6536

*** Psi4 exiting successfully. Buy a developer a beer!
