                               Psi4 1.3.2 release

  ==> Input File <==

--------------------------------------------------------------------------
#psi4
#
memory 32 gb

molecule  {
0 1
  O       -0.0417540     2.1858230    -0.3073980
  N        2.4805920     1.9330880     0.7500480
  C        1.1160800     0.1042180    -0.1414450
  C       -1.4416830     0.3069060    -0.0388060
  C       -0.1006150     0.9516510    -0.1728080
  C        2.2801066     0.6054941     0.2265123
  C        1.0541080    -1.2200940    -0.6155900
  C        3.4881200    -0.2081800     0.2578510
  C       -1.6559060    -0.7921710     0.8065690
  C       -2.5248970     0.8906690    -0.7109620
  C        2.1811870    -2.0318670    -0.6465910
  C        3.4033030    -1.5159070    -0.2032770
  C       -2.9440810    -1.3050920     0.9648860
  C       -3.8044560     0.3593180    -0.5664320
  C       -4.0170070    -0.7392060     0.2722830
  H        0.1024420    -1.6051810    -0.9713120
  H        4.4463530     0.1894450     0.5890330
  H       -0.8230280    -1.2242950     1.3551890
  H       -2.3449380     1.7597130    -1.3385060
  H        2.1152040    -3.0473210    -1.0273030
  H        4.2948280    -2.1392510    -0.2075020
  H       -3.1109310    -2.1478130     1.6315680
  H       -4.6398270     0.8046650    -1.1014830
  H       -5.0175780    -1.1483650     0.3907290
  H        1.7883890     2.5757360     0.3792320
  H        3.4241960     2.3021350     0.7487690
units angstrom
no_reorient  #important for SAPT in psi4, default
symmetry c1  #important for SAPT in psi4, default
}

set PROPERTIES_ORIGIN ["COM"]
properties('MP2/aug-cc-pvtz', properties = ['dipole'])
--------------------------------------------------------------------------

    Molecular point group: c1
  Charge       = 0
  Multiplicity = 1
  Basis Set: AUG-CC-PVTZ
    Blend: AUG-CC-PVTZ
  Basis Set: (AUG-CC-PVTZ AUX)
    Blend: AUG-CC-PVTZ-JKFIT

    Orbital Energies [Eh]
    ---------------------

    Doubly Occupied:

       1A    -20.544600     2A    -15.554882     3A    -11.343833
       4A    -11.293940     5A    -11.254163     6A    -11.253703
       7A    -11.252666     8A    -11.251941     9A    -11.251565
      10A    -11.249430    11A    -11.247069    12A    -11.245539
      13A    -11.241757    14A    -11.233793    15A    -11.233249
      16A     -1.376894    17A     -1.213833    18A     -1.165567
      19A     -1.137775    20A     -1.061218    21A     -1.029588
      22A     -1.025300    23A     -0.997132    24A     -0.894639
      25A     -0.853836    26A     -0.841615    27A     -0.819947
      28A     -0.770029    29A     -0.721361    30A     -0.699103
      31A     -0.679372    32A     -0.666202    33A     -0.649642
      34A     -0.638619    35A     -0.623664    36A     -0.613150
      37A     -0.598927    38A     -0.595640    39A     -0.587286
      40A     -0.556472    41A     -0.528793    42A     -0.528452
      43A     -0.519708    44A     -0.516155    45A     -0.503420
      46A     -0.490417    47A     -0.445326    48A     -0.423067
      49A     -0.355613    50A     -0.348272    51A     -0.345973
      52A     -0.307288

  @DF-RHF Final Energy:  -628.21307674327818

   => Energetics <=

    Nuclear Repulsion Energy =            894.3678404674437843
    One-Electron Energy =               -2627.9989908594261578
    Two-Electron Energy =                1105.4180736487041941
    Total Energy =                       -628.2130767432781795
  Basis Set: (AUG-CC-PVTZ AUX)
    Blend: AUG-CC-PVTZ-RI
    Molecular point group: c1

    Geometry (in Angstrom), charge = 0, multiplicity = 1:

       Center              X                  Y                   Z               Mass
    ------------   -----------------  -----------------  -----------------  -----------------
         O           -0.035239656095     2.169633139523    -0.303462518644    15.994914619570
         N            2.487106343905     1.916898139523     0.753983481356    14.003074004430
         C            1.122594343905     0.088028139523    -0.137509518644    12.000000000000
         C           -1.435168656095     0.290716139523    -0.034870518644    12.000000000000
         C           -0.094100656095     0.935461139523    -0.168872518644    12.000000000000
         C            2.286620943905     0.589304239523     0.230447781356    12.000000000000
         C            1.060622343905    -1.236283860477    -0.611654518644    12.000000000000
         C            3.494634343905    -0.224369860477     0.261786481356    12.000000000000
         C           -1.649391656095    -0.808360860477     0.810504481356    12.000000000000
         C           -2.518382656095     0.874479139523    -0.707026518644    12.000000000000
         C            2.187701343905    -2.048056860477    -0.642655518644    12.000000000000
         C            3.409817343905    -1.532096860477    -0.199341518644    12.000000000000
         C           -2.937566656095    -1.321281860477     0.968821481356    12.000000000000
         C           -3.797941656095     0.343128139523    -0.562496518644    12.000000000000
         C           -4.010492656095    -0.755395860477     0.276218481356    12.000000000000
         H            0.108956343905    -1.621370860477    -0.967376518644     1.007825032230
         H            4.452867343905     0.173255139523     0.592968481356     1.007825032230
         H           -0.816513656095    -1.240484860477     1.359124481356     1.007825032230
         H           -2.338423656095     1.743523139523    -1.334570518644     1.007825032230
         H            2.121718343905    -3.063510860477    -1.023367518644     1.007825032230
         H            4.301342343905    -2.155440860477    -0.203566518644     1.007825032230
         H           -3.104416656095    -2.164002860477     1.635503481356     1.007825032230
         H           -4.633312656095     0.788475139523    -1.097547518644     1.007825032230
         H           -5.011063656095    -1.164554860477     0.394664481356     1.007825032230
         H            1.794903343905     2.559546139523     0.383167481356     1.007825032230
         H            3.430710343905     2.285945139523     0.752704481356     1.007825032230

  Basis Set: AUG-CC-PVTZ
    Blend: AUG-CC-PVTZ
  Basis Set: (AUG-CC-PVTZ AUX)
    Blend: AUG-CC-PVTZ-JKFIT
	 Reference Energy          =    -628.2130767432781795 [Eh]
	 Singles Energy            =      -0.0000000000000000 [Eh]
	 Same-Spin Energy          =      -0.6910002425579415 [Eh]
	 Opposite-Spin Energy      =      -2.1103197577813102 [Eh]
	 Correlation Energy        =      -2.8013200003392518 [Eh]
	 Total Energy              =    -631.0143967436174535 [Eh]

	 ================> DF-SCS-MP2 Energies <==================
	-----------------------------------------------------------
	 SCS Same-Spin Scale       =       0.3333333333333333 [-]
	 SCS Opposite-Spin Scale   =       1.2000000000000000 [-]
	 SCS Same-Spin Energy      =      -0.2303334141859805 [Eh]
	 SCS Opposite-Spin Energy  =      -2.5323837093375721 [Eh]
	 SCS Correlation Energy    =      -2.7627171235235526 [Eh]
	 SCS Total Energy          =    -630.9757938668017232 [Eh]
	-----------------------------------------------------------

  Dipole Moment: [D]
     X:     0.2080      Y:    -1.9083      Z:    -0.2234     Total:     1.9325

*** Psi4 exiting successfully. Buy a developer a beer!
