                               Psi4 1.4a3.dev225

  ==> Input File <==

--------------------------------------------------------------------------
#psi4
#
memory 32 gb

molecule  {
0 1
  O       -0.0417540     2.1858230    -0.3073980
  N        2.4805920     1.9330880     0.7500480
  C        1.1160800     0.1042180    -0.1414450
  C       -1.4416830     0.3069060    -0.0388060
  C       -0.1006150     0.9516510    -0.1728080
  C        2.3683100     0.6434780     0.2543940
  C        1.0541080    -1.2200940    -0.6155900
  C        3.4881200    -0.2081800     0.2578510
  C       -1.6482718    -0.7530033     0.7764424
  C       -2.5248970     0.8906690    -0.7109620
  C        2.1811870    -2.0318670    -0.6465910
  C        3.4033030    -1.5159070    -0.2032770
  C       -2.9440810    -1.3050920     0.9648860
  C       -3.8044560     0.3593180    -0.5664320
  C       -4.0170070    -0.7392060     0.2722830
  H        0.1024420    -1.6051810    -0.9713120
  H        4.4463530     0.1894450     0.5890330
  H       -0.8230280    -1.2242950     1.3551890
  H       -2.3449380     1.7597130    -1.3385060
  H        2.1152040    -3.0473210    -1.0273030
  H        4.2948280    -2.1392510    -0.2075020
  H       -3.1109310    -2.1478130     1.6315680
  H       -4.6398270     0.8046650    -1.1014830
  H       -5.0175780    -1.1483650     0.3907290
  H        1.7883890     2.5757360     0.3792320
  H        3.4241960     2.3021350     0.7487690
units angstrom
no_reorient  #important for SAPT in psi4, default
symmetry c1  #important for SAPT in psi4, default
}

set PROPERTIES_ORIGIN ["COM"]
properties('MP2/aug-cc-pvtz', properties = ['dipole'])
--------------------------------------------------------------------------

    Molecular point group: c1
  Charge       = 0
  Multiplicity = 1
  Basis Set: AUG-CC-PVTZ
    Blend: AUG-CC-PVTZ
  Basis Set: (AUG-CC-PVTZ AUX)
    Blend: AUG-CC-PVTZ-JKFIT

    Orbital Energies [Eh]
    ---------------------

    Doubly Occupied:

       1A    -20.542232     2A    -15.562028     3A    -11.341912
       4A    -11.299099     5A    -11.254544     6A    -11.254294
       7A    -11.251816     8A    -11.250799     9A    -11.247918
      10A    -11.247808    11A    -11.245122    12A    -11.243668
      13A    -11.241213    14A    -11.233577    15A    -11.229833
      16A     -1.375011    17A     -1.228658    18A     -1.167724
      19A     -1.138613    20A     -1.060120    21A     -1.025797
      22A     -1.020183    23A     -0.997896    24A     -0.892460
      25A     -0.847903    26A     -0.840199    27A     -0.821477
      28A     -0.771824    29A     -0.717955    30A     -0.701479
      31A     -0.688768    32A     -0.669509    33A     -0.648445
      34A     -0.633993    35A     -0.619331    36A     -0.610969
      37A     -0.604924    38A     -0.592949    39A     -0.588013
      40A     -0.554367    41A     -0.536089    42A     -0.525628
      43A     -0.518933    44A     -0.510257    45A     -0.503637
      46A     -0.491233    47A     -0.453917    48A     -0.421939
      49A     -0.354401    50A     -0.349824    51A     -0.340577
      52A     -0.302205

  @DF-RHF Final Energy:  -628.22335530631904

   => Energetics <=

    Nuclear Repulsion Energy =            893.9763835792367672
    One-Electron Energy =               -2627.2533364769096806
    Two-Electron Energy =                1105.0535975913537641
    Total Energy =                       -628.2233553063190357
  Basis Set: (AUG-CC-PVTZ AUX)
    Blend: AUG-CC-PVTZ-RI
    Molecular point group: c1

    Geometry (in Angstrom), charge = 0, multiplicity = 1:

       Center              X                  Y                   Z               Mass
    ------------   -----------------  -----------------  -----------------  -----------------
         O           -0.041074989388     2.164935554232    -0.303325831793    15.994914619570
         N            2.481271010612     1.912200554232     0.754120168207    14.003074004430
         C            1.116759010612     0.083330554232    -0.137372831793    12.000000000000
         C           -1.441003989388     0.286018554232    -0.034733831793    12.000000000000
         C           -0.099935989388     0.930763554232    -0.168735831793    12.000000000000
         C            2.368989010612     0.622590554232     0.258466168207    12.000000000000
         C            1.054787010612    -1.240981445768    -0.611517831793    12.000000000000
         C            3.488799010612    -0.229067445768     0.261923168207    12.000000000000
         C           -1.647592789388    -0.773890745768     0.780514568207    12.000000000000
         C           -2.524217989388     0.869781554232    -0.706889831793    12.000000000000
         C            2.181866010612    -2.052754445768    -0.642518831793    12.000000000000
         C            3.403982010612    -1.536794445768    -0.199204831793    12.000000000000
         C           -2.943401989388    -1.325979445768     0.968958168207    12.000000000000
         C           -3.803776989388     0.338430554232    -0.562359831793    12.000000000000
         C           -4.016327989388    -0.760093445768     0.276355168207    12.000000000000
         H            0.103121010612    -1.626068445768    -0.967239831793     1.007825032230
         H            4.447032010612     0.168557554232     0.593105168207     1.007825032230
         H           -0.822348989388    -1.245182445768     1.359261168207     1.007825032230
         H           -2.344258989388     1.738825554232    -1.334433831793     1.007825032230
         H            2.115883010612    -3.068208445768    -1.023230831793     1.007825032230
         H            4.295507010612    -2.160138445768    -0.203429831793     1.007825032230
         H           -3.110251989388    -2.168700445768     1.635640168207     1.007825032230
         H           -4.639147989388     0.783777554232    -1.097410831793     1.007825032230
         H           -5.016898989388    -1.169252445768     0.394801168207     1.007825032230
         H            1.789068010612     2.554848554232     0.383304168207     1.007825032230
         H            3.424875010612     2.281247554232     0.752841168207     1.007825032230

  Basis Set: AUG-CC-PVTZ
    Blend: AUG-CC-PVTZ
  Basis Set: (AUG-CC-PVTZ AUX)
    Blend: AUG-CC-PVTZ-JKFIT
	 Reference Energy          =    -628.2233553063190357 [Eh]
	 Singles Energy            =      -0.0000000000000000 [Eh]
	 Same-Spin Energy          =      -0.6914488095323096 [Eh]
	 Opposite-Spin Energy      =      -2.1095576818974204 [Eh]
	 Correlation Energy        =      -2.8010064914297299 [Eh]
	 Total Energy              =    -631.0243617977487247 [Eh]

	 ================> DF-SCS-MP2 Energies <==================
	-----------------------------------------------------------
	 SCS Same-Spin Scale       =       0.3333333333333333 [-]
	 SCS Opposite-Spin Scale   =       1.2000000000000000 [-]
	 SCS Same-Spin Energy      =      -0.2304829365107698 [Eh]
	 SCS Opposite-Spin Energy  =      -2.5314692182769045 [Eh]
	 SCS Correlation Energy    =      -2.7619521547876742 [Eh]
	 SCS Total Energy          =    -630.9853074611066859 [Eh]
	-----------------------------------------------------------

  Dipole Moment: [D]
     X:     0.3681      Y:    -1.6404      Z:    -0.0946     Total:     1.6839

*** Psi4 exiting successfully. Buy a developer a beer!
