                               Psi4 1.4a3.dev225

  ==> Input File <==

--------------------------------------------------------------------------
#psi4
#
memory 32 gb

molecule  {
0 1
  O       -0.0417540     2.1858230    -0.3073980
  N        2.4805920     1.9330880     0.7500480
  C        1.1160800     0.1042180    -0.1414450
  C       -1.4416830     0.3069060    -0.0388060
  C       -0.0826626     0.9602820    -0.1746018
  C        2.3683100     0.6434780     0.2543940
  C        1.0541080    -1.2200940    -0.6155900
  C        3.4881200    -0.2081800     0.2578510
  C       -1.6559060    -0.7921710     0.8065690
  C       -2.5248970     0.8906690    -0.7109620
  C        2.1811870    -2.0318670    -0.6465910
  C        3.4033030    -1.5159070    -0.2032770
  C       -2.9440810    -1.3050920     0.9648860
  C       -3.8044560     0.3593180    -0.5664320
  C       -4.0170070    -0.7392060     0.2722830
  H        0.1024420    -1.6051810    -0.9713120
  H        4.4463530     0.1894450     0.5890330
  H       -0.8230280    -1.2242950     1.3551890
  H       -2.3449380     1.7597130    -1.3385060
  H        2.1152040    -3.0473210    -1.0273030
  H        4.2948280    -2.1392510    -0.2075020
  H       -3.1109310    -2.1478130     1.6315680
  H       -4.6398270     0.8046650    -1.1014830
  H       -5.0175780    -1.1483650     0.3907290
  H        1.7883890     2.5757360     0.3792320
  H        3.4241960     2.3021350     0.7487690
units angstrom
no_reorient  #important for SAPT in psi4, default
symmetry c1  #important for SAPT in psi4, default
}

set PROPERTIES_ORIGIN ["COM"]
properties('MP2/aug-cc-pvtz', properties = ['dipole'])
--------------------------------------------------------------------------

    Molecular point group: c1
  Charge       = 0
  Multiplicity = 1
  Basis Set: AUG-CC-PVTZ
    Blend: AUG-CC-PVTZ
  Basis Set: (AUG-CC-PVTZ AUX)
    Blend: AUG-CC-PVTZ-JKFIT

    Orbital Energies [Eh]
    ---------------------

    Doubly Occupied:

       1A    -20.542763     2A    -15.563000     3A    -11.341257
       4A    -11.299735     5A    -11.255413     6A    -11.255286
       7A    -11.250993     8A    -11.249788     9A    -11.249641
      10A    -11.246518    11A    -11.244721    12A    -11.243341
      13A    -11.240838    14A    -11.234145    15A    -11.230552
      16A     -1.380881    17A     -1.229778    18A     -1.162550
      19A     -1.139402    20A     -1.056720    21A     -1.024969
      22A     -1.020395    23A     -0.998819    24A     -0.892334
      25A     -0.849059    26A     -0.837708    27A     -0.819919
      28A     -0.770286    29A     -0.718097    30A     -0.702614
      31A     -0.689773    32A     -0.670528    33A     -0.647373
      34A     -0.634095    35A     -0.616219    36A     -0.611267
      37A     -0.605381    38A     -0.596098    39A     -0.589589
      40A     -0.556395    41A     -0.536971    42A     -0.526532
      43A     -0.519200    44A     -0.510083    45A     -0.501189
      46A     -0.492520    47A     -0.454900    48A     -0.420830
      49A     -0.352613    50A     -0.345310    51A     -0.343407
      52A     -0.303004

  @DF-RHF Final Energy:  -628.22669298565029

   => Energetics <=

    Nuclear Repulsion Energy =            893.2310649878246522
    One-Electron Energy =               -2625.7659127313017962
    Two-Electron Energy =                1104.3081547578269692
    Total Energy =                       -628.2266929856502884
  Basis Set: (AUG-CC-PVTZ AUX)
    Blend: AUG-CC-PVTZ-RI
    Molecular point group: c1

    Geometry (in Angstrom), charge = 0, multiplicity = 1:

       Center              X                  Y                   Z               Mass
    ------------   -----------------  -----------------  -----------------  -----------------
         O           -0.041703241097     2.166794864379    -0.305050951487    15.994914619570
         N            2.480642758903     1.914059864379     0.752395048513    14.003074004430
         C            1.116130758903     0.085189864379    -0.139097951487    12.000000000000
         C           -1.441632241097     0.287877864379    -0.036458951487    12.000000000000
         C           -0.082611841097     0.941253864379    -0.172254751487    12.000000000000
         C            2.368360758903     0.624449864379     0.256741048513    12.000000000000
         C            1.054158758903    -1.239122135621    -0.613242951487    12.000000000000
         C            3.488170758903    -0.227208135621     0.260198048513    12.000000000000
         C           -1.655855241097    -0.811199135621     0.808916048513    12.000000000000
         C           -2.524846241097     0.871640864379    -0.708614951487    12.000000000000
         C            2.181237758903    -2.050895135621    -0.644243951487    12.000000000000
         C            3.403353758903    -1.534935135621    -0.200929951487    12.000000000000
         C           -2.944030241097    -1.324120135621     0.967233048513    12.000000000000
         C           -3.804405241097     0.340289864379    -0.564084951487    12.000000000000
         C           -4.016956241097    -0.758234135621     0.274630048513    12.000000000000
         H            0.102492758903    -1.624209135621    -0.968964951487     1.007825032230
         H            4.446403758903     0.170416864379     0.591380048513     1.007825032230
         H           -0.822977241097    -1.243323135621     1.357536048513     1.007825032230
         H           -2.344887241097     1.740684864379    -1.336158951487     1.007825032230
         H            2.115254758903    -3.066349135621    -1.024955951487     1.007825032230
         H            4.294878758903    -2.158279135621    -0.205154951487     1.007825032230
         H           -3.110880241097    -2.166841135621     1.633915048513     1.007825032230
         H           -4.639776241097     0.785636864379    -1.099135951487     1.007825032230
         H           -5.017527241097    -1.167393135621     0.393076048513     1.007825032230
         H            1.788439758903     2.556707864379     0.381579048513     1.007825032230
         H            3.424246758903     2.283106864379     0.751116048513     1.007825032230

  Basis Set: AUG-CC-PVTZ
    Blend: AUG-CC-PVTZ
  Basis Set: (AUG-CC-PVTZ AUX)
    Blend: AUG-CC-PVTZ-JKFIT
	 Reference Energy          =    -628.2266929856502884 [Eh]
	 Singles Energy            =      -0.0000000000000000 [Eh]
	 Same-Spin Energy          =      -0.6912626673423484 [Eh]
	 Opposite-Spin Energy      =      -2.1090098303826927 [Eh]
	 Correlation Energy        =      -2.8002724977250413 [Eh]
	 Total Energy              =    -631.0269654833753066 [Eh]

	 ================> DF-SCS-MP2 Energies <==================
	-----------------------------------------------------------
	 SCS Same-Spin Scale       =       0.3333333333333333 [-]
	 SCS Opposite-Spin Scale   =       1.2000000000000000 [-]
	 SCS Same-Spin Energy      =      -0.2304208891141161 [Eh]
	 SCS Opposite-Spin Energy  =      -2.5308117964592314 [Eh]
	 SCS Correlation Energy    =      -2.7612326855733476 [Eh]
	 SCS Total Energy          =    -630.9879256712235929 [Eh]
	-----------------------------------------------------------

  Dipole Moment: [D]
     X:     0.5267      Y:    -1.5994      Z:    -0.1178     Total:     1.6880

*** Psi4 exiting successfully. Buy a developer a beer!
