                               Psi4 1.3.2 release

  ==> Input File <==

--------------------------------------------------------------------------
#psi4
#
memory 32 gb

molecule  {
0 1
  O       -0.0417540     2.1858230    -0.3073980
  N        2.4805920     1.9330880     0.7500480
  C        1.1160800     0.1042180    -0.1414450
  C       -1.4416830     0.3069060    -0.0388060
  C       -0.1006150     0.9516510    -0.1728080
  C        2.3683100     0.6434780     0.2543940
  C        1.0541080    -1.2200940    -0.6155900
  C        3.4881200    -0.2081800     0.2578510
  C       -1.7036527    -0.7899784     0.7959019
  C       -2.5248970     0.8906690    -0.7109620
  C        2.1811870    -2.0318670    -0.6465910
  C        3.4033030    -1.5159070    -0.2032770
  C       -2.9440810    -1.3050920     0.9648860
  C       -3.8044560     0.3593180    -0.5664320
  C       -4.0170070    -0.7392060     0.2722830
  H        0.1024420    -1.6051810    -0.9713120
  H        4.4463530     0.1894450     0.5890330
  H       -0.8230280    -1.2242950     1.3551890
  H       -2.3449380     1.7597130    -1.3385060
  H        2.1152040    -3.0473210    -1.0273030
  H        4.2948280    -2.1392510    -0.2075020
  H       -3.1109310    -2.1478130     1.6315680
  H       -4.6398270     0.8046650    -1.1014830
  H       -5.0175780    -1.1483650     0.3907290
  H        1.7883890     2.5757360     0.3792320
  H        3.4241960     2.3021350     0.7487690
units angstrom
no_reorient  #important for SAPT in psi4, default
symmetry c1  #important for SAPT in psi4, default
}

set PROPERTIES_ORIGIN ["COM"]
properties('MP2/aug-cc-pvtz', properties = ['dipole'])
--------------------------------------------------------------------------

    Molecular point group: c1
  Charge       = 0
  Multiplicity = 1
  Basis Set: AUG-CC-PVTZ
    Blend: AUG-CC-PVTZ
  Basis Set: (AUG-CC-PVTZ AUX)
    Blend: AUG-CC-PVTZ-JKFIT

    Orbital Energies [Eh]
    ---------------------

    Doubly Occupied:

       1A    -20.542151     2A    -15.561958     3A    -11.342804
       4A    -11.299013     5A    -11.254469     6A    -11.254268
       7A    -11.251861     8A    -11.250960     9A    -11.249420
      10A    -11.248196    11A    -11.243579    12A    -11.241188
      13A    -11.240765    14A    -11.233514    15A    -11.229778
      16A     -1.374882    17A     -1.228582    18A     -1.168278
      19A     -1.138742    20A     -1.056895    21A     -1.030853
      22A     -1.020881    23A     -0.997747    24A     -0.894442
      25A     -0.849834    26A     -0.835446    27A     -0.820559
      28A     -0.772205    29A     -0.717827    30A     -0.701997
      31A     -0.688695    32A     -0.670716    33A     -0.646087
      34A     -0.635486    35A     -0.616904    36A     -0.609837
      37A     -0.604776    38A     -0.595219    39A     -0.587763
      40A     -0.554824    41A     -0.535949    42A     -0.528163
      43A     -0.521571    44A     -0.510396    45A     -0.496737
      46A     -0.490433    47A     -0.453866    48A     -0.423345
      49A     -0.353003    50A     -0.348191    51A     -0.344776
      52A     -0.302058

  @DF-RHF Final Energy:  -628.22334875448394

   => Energetics <=

    Nuclear Repulsion Energy =            893.4387287230205175
    One-Electron Energy =               -2626.1803753102990413
    Two-Electron Energy =                1104.5182978327945875
    Total Energy =                       -628.2233487544838226
  Basis Set: (AUG-CC-PVTZ AUX)
    Blend: AUG-CC-PVTZ-RI
    Molecular point group: c1

    Geometry (in Angstrom), charge = 0, multiplicity = 1:

       Center              X                  Y                   Z               Mass
    ------------   -----------------  -----------------  -----------------  -----------------
         O           -0.037702972460     2.167186883899    -0.304510676450    15.994914619570
         N            2.484643027540     1.914451883899     0.752935323550    14.003074004430
         C            1.120131027540     0.085581883899    -0.138557676450    12.000000000000
         C           -1.437631972460     0.288269883899    -0.035918676450    12.000000000000
         C           -0.096563972460     0.933014883899    -0.169920676450    12.000000000000
         C            2.372361027540     0.624841883899     0.257281323550    12.000000000000
         C            1.058159027540    -1.238730116101    -0.612702676450    12.000000000000
         C            3.492171027540    -0.226816116101     0.260738323550    12.000000000000
         C           -1.699601672460    -0.808614516101     0.798789223550    12.000000000000
         C           -2.520845972460     0.872032883899    -0.708074676450    12.000000000000
         C            2.185238027540    -2.050503116101    -0.643703676450    12.000000000000
         C            3.407354027540    -1.534543116101    -0.200389676450    12.000000000000
         C           -2.940029972460    -1.323728116101     0.967773323550    12.000000000000
         C           -3.800404972460     0.340681883899    -0.563544676450    12.000000000000
         C           -4.012955972460    -0.757842116101     0.275170323550    12.000000000000
         H            0.106493027540    -1.623817116101    -0.968424676450     1.007825032230
         H            4.450404027540     0.170808883899     0.591920323550     1.007825032230
         H           -0.818976972460    -1.242931116101     1.358076323550     1.007825032230
         H           -2.340886972460     1.741076883899    -1.335618676450     1.007825032230
         H            2.119255027540    -3.065957116101    -1.024415676450     1.007825032230
         H            4.298879027540    -2.157887116101    -0.204614676450     1.007825032230
         H           -3.106879972460    -2.166449116101     1.634455323550     1.007825032230
         H           -4.635775972460     0.786028883899    -1.098595676450     1.007825032230
         H           -5.013526972460    -1.167001116101     0.393616323550     1.007825032230
         H            1.792440027540     2.557099883899     0.382119323550     1.007825032230
         H            3.428247027540     2.283498883899     0.751656323550     1.007825032230

  Basis Set: AUG-CC-PVTZ
    Blend: AUG-CC-PVTZ
  Basis Set: (AUG-CC-PVTZ AUX)
    Blend: AUG-CC-PVTZ-JKFIT
	 Reference Energy          =    -628.2233487544839363 [Eh]
	 Singles Energy            =      -0.0000000000000000 [Eh]
	 Same-Spin Energy          =      -0.6915821592538038 [Eh]
	 Opposite-Spin Energy      =      -2.1094953619458439 [Eh]
	 Correlation Energy        =      -2.8010775211996477 [Eh]
	 Total Energy              =    -631.0244262756835951 [Eh]

	 ================> DF-SCS-MP2 Energies <==================
	-----------------------------------------------------------
	 SCS Same-Spin Scale       =       0.3333333333333333 [-]
	 SCS Opposite-Spin Scale   =       1.2000000000000000 [-]
	 SCS Same-Spin Energy      =      -0.2305273864179346 [Eh]
	 SCS Opposite-Spin Energy  =      -2.5313944343350125 [Eh]
	 SCS Correlation Energy    =      -2.7619218207529470 [Eh]
	 SCS Total Energy          =    -630.9852705752368820 [Eh]
	-----------------------------------------------------------

  Dipole Moment: [D]
     X:     0.3579      Y:    -1.6263      Z:    -0.1120     Total:     1.6690

*** Psi4 exiting successfully. Buy a developer a beer!
