                               Psi4 1.3.2 release

  ==> Input File <==

--------------------------------------------------------------------------
#psi4
#
memory 32 gb

molecule  {
0 1
  O       -0.0417540     2.1858230    -0.3073980
  N        2.5735558     1.9140952     0.7689620
  C        1.1160800     0.1042180    -0.1414450
  C       -1.4416830     0.3069060    -0.0388060
  C       -0.1006150     0.9516510    -0.1728080
  C        2.3683100     0.6434780     0.2543940
  C        1.0541080    -1.2200940    -0.6155900
  C        3.4881200    -0.2081800     0.2578510
  C       -1.6559060    -0.7921710     0.8065690
  C       -2.5248970     0.8906690    -0.7109620
  C        2.1811870    -2.0318670    -0.6465910
  C        3.4033030    -1.5159070    -0.2032770
  C       -2.9440810    -1.3050920     0.9648860
  C       -3.8044560     0.3593180    -0.5664320
  C       -4.0170070    -0.7392060     0.2722830
  H        0.1024420    -1.6051810    -0.9713120
  H        4.4463530     0.1894450     0.5890330
  H       -0.8230280    -1.2242950     1.3551890
  H       -2.3449380     1.7597130    -1.3385060
  H        2.1152040    -3.0473210    -1.0273030
  H        4.2948280    -2.1392510    -0.2075020
  H       -3.1109310    -2.1478130     1.6315680
  H       -4.6398270     0.8046650    -1.1014830
  H       -5.0175780    -1.1483650     0.3907290
  H        1.7883890     2.5757360     0.3792320
  H        3.4241960     2.3021350     0.7487690
units angstrom
no_reorient  #important for SAPT in psi4, default
symmetry c1  #important for SAPT in psi4, default
}

set PROPERTIES_ORIGIN ["COM"]
properties('MP2/aug-cc-pvtz', properties = ['dipole'])
--------------------------------------------------------------------------

    Molecular point group: c1
  Charge       = 0
  Multiplicity = 1
  Basis Set: AUG-CC-PVTZ
    Blend: AUG-CC-PVTZ
  Basis Set: (AUG-CC-PVTZ AUX)
    Blend: AUG-CC-PVTZ-JKFIT

    Orbital Energies [Eh]
    ---------------------

    Doubly Occupied:

       1A    -20.543109     2A    -15.559934     3A    -11.342891
       4A    -11.299754     5A    -11.254722     6A    -11.253222
       7A    -11.253213     8A    -11.252035     9A    -11.250789
      10A    -11.248728    11A    -11.246339    12A    -11.244933
      13A    -11.243224    14A    -11.231464    15A    -11.229759
      16A     -1.375529    17A     -1.230011    18A     -1.164949
      19A     -1.139172    20A     -1.057831    21A     -1.027045
      22A     -1.021544    23A     -0.998386    24A     -0.894033
      25A     -0.849537    26A     -0.839970    27A     -0.822512
      28A     -0.769188    29A     -0.722926    30A     -0.711925
      31A     -0.677165    32A     -0.673220    33A     -0.648231
      34A     -0.634721    35A     -0.620732    36A     -0.610579
      37A     -0.602001    38A     -0.597706    39A     -0.580510
      40A     -0.554833    41A     -0.534272    42A     -0.527497
      43A     -0.518829    44A     -0.511544    45A     -0.502853
      46A     -0.491946    47A     -0.453597    48A     -0.421705
      49A     -0.352119    50A     -0.347050    51A     -0.345062
      52A     -0.301500

  @DF-RHF Final Energy:  -628.21255065157322

   => Energetics <=

    Nuclear Repulsion Energy =            892.3773478911444954
    One-Electron Energy =               -2624.0071088019676608
    Two-Electron Energy =                1103.4172102592499414
    Total Energy =                       -628.2125506515733377
  Basis Set: (AUG-CC-PVTZ AUX)
    Blend: AUG-CC-PVTZ-RI
    Molecular point group: c1

    Geometry (in Angstrom), charge = 0, multiplicity = 1:

       Center              X                  Y                   Z               Mass
    ------------   -----------------  -----------------  -----------------  -----------------
         O           -0.047215356837     2.168669848975    -0.306504035698    15.994914619570
         N            2.568094443163     1.896942048975     0.769855964302    14.003074004430
         C            1.110618643163     0.087064848975    -0.140551035698    12.000000000000
         C           -1.447144356837     0.289752848975    -0.037912035698    12.000000000000
         C           -0.106076356837     0.934497848975    -0.171914035698    12.000000000000
         C            2.362848643163     0.626324848975     0.255287964302    12.000000000000
         C            1.048646643163    -1.237247151025    -0.614696035698    12.000000000000
         C            3.482658643163    -0.225333151025     0.258744964302    12.000000000000
         C           -1.661367356837    -0.809324151025     0.807462964302    12.000000000000
         C           -2.530358356837     0.873515848975    -0.710068035698    12.000000000000
         C            2.175725643163    -2.049020151025    -0.645697035698    12.000000000000
         C            3.397841643163    -1.533060151025    -0.202383035698    12.000000000000
         C           -2.949542356837    -1.322245151025     0.965779964302    12.000000000000
         C           -3.809917356837     0.342164848975    -0.565538035698    12.000000000000
         C           -4.022468356837    -0.756359151025     0.273176964302    12.000000000000
         H            0.096980643163    -1.622334151025    -0.970418035698     1.007825032230
         H            4.440891643163     0.172291848975     0.589926964302     1.007825032230
         H           -0.828489356837    -1.241448151025     1.356082964302     1.007825032230
         H           -2.350399356837     1.742559848975    -1.337612035698     1.007825032230
         H            2.109742643163    -3.064474151025    -1.026409035698     1.007825032230
         H            4.289366643163    -2.156404151025    -0.206608035698     1.007825032230
         H           -3.116392356837    -2.164966151025     1.632461964302     1.007825032230
         H           -4.645288356837     0.787511848975    -1.100589035698     1.007825032230
         H           -5.023039356837    -1.165518151025     0.391622964302     1.007825032230
         H            1.782927643163     2.558582848975     0.380125964302     1.007825032230
         H            3.418734643163     2.284981848975     0.749662964302     1.007825032230

  Basis Set: AUG-CC-PVTZ
    Blend: AUG-CC-PVTZ
  Basis Set: (AUG-CC-PVTZ AUX)
    Blend: AUG-CC-PVTZ-JKFIT
	 Reference Energy          =    -628.2125506515732241 [Eh]
	 Singles Energy            =      -0.0000000000000000 [Eh]
	 Same-Spin Energy          =      -0.6917600611481055 [Eh]
	 Opposite-Spin Energy      =      -2.1101099335772986 [Eh]
	 Correlation Energy        =      -2.8018699947254042 [Eh]
	 Total Energy              =    -631.0144206462986176 [Eh]

	 ================> DF-SCS-MP2 Energies <==================
	-----------------------------------------------------------
	 SCS Same-Spin Scale       =       0.3333333333333333 [-]
	 SCS Opposite-Spin Scale   =       1.2000000000000000 [-]
	 SCS Same-Spin Energy      =      -0.2305866870493685 [Eh]
	 SCS Opposite-Spin Energy  =      -2.5321319202927581 [Eh]
	 SCS Correlation Energy    =      -2.7627186073421268 [Eh]
	 SCS Total Energy          =    -630.9752692589153185 [Eh]
	-----------------------------------------------------------

  Dipole Moment: [D]
     X:     0.2151      Y:    -1.6408      Z:    -0.1346     Total:     1.6603

*** Psi4 exiting successfully. Buy a developer a beer!
