                               Psi4 1.3.2 release

  ==> Input File <==

--------------------------------------------------------------------------
#psi4
#
memory 32 gb

molecule  {
0 1
  O       -0.0417540     2.1858230    -0.3073980
  N        2.5282261     1.9261563     0.7549311
  C        1.1160800     0.1042180    -0.1414450
  C       -1.4416830     0.3069060    -0.0388060
  C       -0.1006150     0.9516510    -0.1728080
  C        2.3683100     0.6434780     0.2543940
  C        1.0541080    -1.2200940    -0.6155900
  C        3.4881200    -0.2081800     0.2578510
  C       -1.6559060    -0.7921710     0.8065690
  C       -2.5248970     0.8906690    -0.7109620
  C        2.1811870    -2.0318670    -0.6465910
  C        3.4033030    -1.5159070    -0.2032770
  C       -2.9440810    -1.3050920     0.9648860
  C       -3.8044560     0.3593180    -0.5664320
  C       -4.0170070    -0.7392060     0.2722830
  H        0.1024420    -1.6051810    -0.9713120
  H        4.4463530     0.1894450     0.5890330
  H       -0.8230280    -1.2242950     1.3551890
  H       -2.3449380     1.7597130    -1.3385060
  H        2.1152040    -3.0473210    -1.0273030
  H        4.2948280    -2.1392510    -0.2075020
  H       -3.1109310    -2.1478130     1.6315680
  H       -4.6398270     0.8046650    -1.1014830
  H       -5.0175780    -1.1483650     0.3907290
  H        1.7883890     2.5757360     0.3792320
  H        3.4241960     2.3021350     0.7487690
units angstrom
no_reorient  #important for SAPT in psi4, default
symmetry c1  #important for SAPT in psi4, default
}

set PROPERTIES_ORIGIN ["COM"]
properties('MP2/aug-cc-pvtz', properties = ['dipole'])
--------------------------------------------------------------------------

    Molecular point group: c1
  Charge       = 0
  Multiplicity = 1
  Basis Set: AUG-CC-PVTZ
    Blend: AUG-CC-PVTZ
  Basis Set: (AUG-CC-PVTZ AUX)
    Blend: AUG-CC-PVTZ-JKFIT

    Orbital Energies [Eh]
    ---------------------

    Doubly Occupied:

       1A    -20.542233     2A    -15.560700     3A    -11.342160
       4A    -11.299297     5A    -11.254421     6A    -11.253824
       7A    -11.252883     8A    -11.251729     9A    -11.250452
      10A    -11.248382    11A    -11.246064    12A    -11.244653
      13A    -11.242061    14A    -11.232410    15A    -11.229657
      16A     -1.374870    17A     -1.229134    18A     -1.164620
      19A     -1.138763    20A     -1.057611    21A     -1.026743
      22A     -1.021275    23A     -0.997877    24A     -0.893553
      25A     -0.849452    26A     -0.839355    27A     -0.820924
      28A     -0.769688    29A     -0.719670    30A     -0.707974
      31A     -0.682775    32A     -0.672234    33A     -0.648064
      34A     -0.634371    35A     -0.618677    36A     -0.610834
      37A     -0.603088    38A     -0.597421    39A     -0.585910
      40A     -0.554782    41A     -0.534974    42A     -0.527163
      43A     -0.519444    44A     -0.510629    45A     -0.502554
      46A     -0.491482    47A     -0.453585    48A     -0.421934
      49A     -0.352037    50A     -0.346670    51A     -0.344776
      52A     -0.301547

  @DF-RHF Final Energy:  -628.22292322692374

   => Energetics <=

    Nuclear Repulsion Energy =            892.7781325867011901
    One-Electron Energy =               -2624.8473398321775676
    Two-Electron Energy =                1103.8462840185525238
    Total Energy =                       -628.2229232269237400
  Basis Set: (AUG-CC-PVTZ AUX)
    Blend: AUG-CC-PVTZ-RI
    Molecular point group: c1

    Geometry (in Angstrom), charge = 0, multiplicity = 1:

       Center              X                  Y                   Z               Mass
    ------------   -----------------  -----------------  -----------------  -----------------
         O           -0.043994623862     2.167812892443    -0.305507122366    15.994914619570
         N            2.525985476138     1.908146192443     0.756821977634    14.003074004430
         C            1.113839376138     0.086207892443    -0.139554122366    12.000000000000
         C           -1.443923623862     0.288895892443    -0.036915122366    12.000000000000
         C           -0.102855623862     0.933640892443    -0.170917122366    12.000000000000
         C            2.366069376138     0.625467892443     0.256284877634    12.000000000000
         C            1.051867376138    -1.238104107557    -0.613699122366    12.000000000000
         C            3.485879376138    -0.226190107557     0.259741877634    12.000000000000
         C           -1.658146623862    -0.810181107557     0.808459877634    12.000000000000
         C           -2.527137623862     0.872658892443    -0.709071122366    12.000000000000
         C            2.178946376138    -2.049877107557    -0.644700122366    12.000000000000
         C            3.401062376138    -1.533917107557    -0.201386122366    12.000000000000
         C           -2.946321623862    -1.323102107557     0.966776877634    12.000000000000
         C           -3.806696623862     0.341307892443    -0.564541122366    12.000000000000
         C           -4.019247623862    -0.757216107557     0.274173877634    12.000000000000
         H            0.100201376138    -1.623191107557    -0.969421122366     1.007825032230
         H            4.444112376138     0.171434892443     0.590923877634     1.007825032230
         H           -0.825268623862    -1.242305107557     1.357079877634     1.007825032230
         H           -2.347178623862     1.741702892443    -1.336615122366     1.007825032230
         H            2.112963376138    -3.065331107557    -1.025412122366     1.007825032230
         H            4.292587376138    -2.157261107557    -0.205611122366     1.007825032230
         H           -3.113171623862    -2.165823107557     1.633458877634     1.007825032230
         H           -4.642067623862     0.786654892443    -1.099592122366     1.007825032230
         H           -5.019818623862    -1.166375107557     0.392619877634     1.007825032230
         H            1.786148376138     2.557725892443     0.381122877634     1.007825032230
         H            3.421955376138     2.284124892443     0.750659877634     1.007825032230

  Basis Set: AUG-CC-PVTZ
    Blend: AUG-CC-PVTZ
  Basis Set: (AUG-CC-PVTZ AUX)
    Blend: AUG-CC-PVTZ-JKFIT
	 Reference Energy          =    -628.2229232269237400 [Eh]
	 Singles Energy            =      -0.0000000000000000 [Eh]
	 Same-Spin Energy          =      -0.6915723152674276 [Eh]
	 Opposite-Spin Energy      =      -2.1096000445419025 [Eh]
	 Correlation Energy        =      -2.8011723598093301 [Eh]
	 Total Energy              =    -631.0240955867330968 [Eh]

	 ================> DF-SCS-MP2 Energies <==================
	-----------------------------------------------------------
	 SCS Same-Spin Scale       =       0.3333333333333333 [-]
	 SCS Opposite-Spin Scale   =       1.2000000000000000 [-]
	 SCS Same-Spin Energy      =      -0.2305241050891425 [Eh]
	 SCS Opposite-Spin Energy  =      -2.5315200534502829 [Eh]
	 SCS Correlation Energy    =      -2.7620441585394255 [Eh]
	 SCS Total Energy          =    -630.9849673854631646 [Eh]
	-----------------------------------------------------------

  Dipole Moment: [D]
     X:     0.2890      Y:    -1.6285      Z:    -0.1032     Total:     1.6572

*** Psi4 exiting successfully. Buy a developer a beer!
