                               Psi4 1.3.2 release

  ==> Input File <==

--------------------------------------------------------------------------
#psi4
#
memory 32 gb

molecule  {
0 1
  O       -0.0417540     2.1858230    -0.3073980
  N        2.4805920     1.9330880     0.7500480
  C        1.1160800     0.1042180    -0.1414450
  C       -1.4416830     0.3069060    -0.0388060
  C       -0.1006150     0.9516510    -0.1728080
  C        2.5447167     0.7194458     0.3101575
  C        1.0541080    -1.2200940    -0.6155900
  C        3.4881200    -0.2081800     0.2578510
  C       -1.6559060    -0.7921710     0.8065690
  C       -2.5248970     0.8906690    -0.7109620
  C        2.1811870    -2.0318670    -0.6465910
  C        3.4033030    -1.5159070    -0.2032770
  C       -2.9440810    -1.3050920     0.9648860
  C       -3.8044560     0.3593180    -0.5664320
  C       -4.0170070    -0.7392060     0.2722830
  H        0.1024420    -1.6051810    -0.9713120
  H        4.4463530     0.1894450     0.5890330
  H       -0.8230280    -1.2242950     1.3551890
  H       -2.3449380     1.7597130    -1.3385060
  H        2.1152040    -3.0473210    -1.0273030
  H        4.2948280    -2.1392510    -0.2075020
  H       -3.1109310    -2.1478130     1.6315680
  H       -4.6398270     0.8046650    -1.1014830
  H       -5.0175780    -1.1483650     0.3907290
  H        1.7883890     2.5757360     0.3792320
  H        3.4241960     2.3021350     0.7487690
units angstrom
no_reorient  #important for SAPT in psi4, default
symmetry c1  #important for SAPT in psi4, default
}

set PROPERTIES_ORIGIN ["COM"]
properties('MP2/aug-cc-pvtz', properties = ['dipole'])
--------------------------------------------------------------------------

    Molecular point group: c1
  Charge       = 0
  Multiplicity = 1
  Basis Set: AUG-CC-PVTZ
    Blend: AUG-CC-PVTZ
  Basis Set: (AUG-CC-PVTZ AUX)
    Blend: AUG-CC-PVTZ-JKFIT

    Orbital Energies [Eh]
    ---------------------

    Doubly Occupied:

       1A    -20.537403     2A    -15.574698     3A    -11.338248
       4A    -11.304409     5A    -11.258637     6A    -11.254321
       7A    -11.250178     8A    -11.249616     9A    -11.248427
      10A    -11.248059    11A    -11.246065    12A    -11.243923
      13A    -11.242703    14A    -11.225649    15A    -11.219009
      16A     -1.370976    17A     -1.268786    18A     -1.162174
      19A     -1.136601    20A     -1.054569    21A     -1.025486
      22A     -1.021320    23A     -0.992683    24A     -0.894721
      25A     -0.847293    26A     -0.832629    27A     -0.815365
      28A     -0.769432    29A     -0.724312    30A     -0.712484
      31A     -0.703135    32A     -0.677221    33A     -0.647277
      34A     -0.636261    35A     -0.617444    36A     -0.609743
      37A     -0.595633    38A     -0.594135    39A     -0.578080
      40A     -0.560720    41A     -0.543558    42A     -0.530264
      43A     -0.519509    44A     -0.500428    45A     -0.496918
      46A     -0.471297    47A     -0.463030    48A     -0.414578
      49A     -0.352275    50A     -0.344241    51A     -0.342886
      52A     -0.291630

  @DF-RHF Final Energy:  -628.18190881587782

   => Energetics <=

    Nuclear Repulsion Energy =            891.2175332933541085
    One-Electron Energy =               -2621.6780069202150116
    Two-Electron Energy =                1102.2785648109831982
    Total Energy =                       -628.1819088158777049
  Basis Set: (AUG-CC-PVTZ AUX)
    Blend: AUG-CC-PVTZ-RI
    Molecular point group: c1

    Geometry (in Angstrom), charge = 0, multiplicity = 1:

       Center              X                  Y                   Z               Mass
    ------------   -----------------  -----------------  -----------------  -----------------
         O           -0.051351162708     2.162694879917    -0.308555484456    15.994914619570
         N            2.470994837292     1.909959879917     0.748890515544    14.003074004430
         C            1.106482837292     0.081089879917    -0.142602484456    12.000000000000
         C           -1.451280162708     0.283777879917    -0.039963484456    12.000000000000
         C           -0.110212162708     0.928522879917    -0.173965484456    12.000000000000
         C            2.535119537292     0.696317679917     0.309000015544    12.000000000000
         C            1.044510837292    -1.243222120083    -0.616747484456    12.000000000000
         C            3.478522837292    -0.231308120083     0.256693515544    12.000000000000
         C           -1.665503162708    -0.815299120083     0.805411515544    12.000000000000
         C           -2.534494162708     0.867540879917    -0.712119484456    12.000000000000
         C            2.171589837292    -2.054995120083    -0.647748484456    12.000000000000
         C            3.393705837292    -1.539035120083    -0.204434484456    12.000000000000
         C           -2.953678162708    -1.328220120083     0.963728515544    12.000000000000
         C           -3.814053162708     0.336189879917    -0.567589484456    12.000000000000
         C           -4.026604162708    -0.762334120083     0.271125515544    12.000000000000
         H            0.092844837292    -1.628309120083    -0.972469484456     1.007825032230
         H            4.436755837292     0.166316879917     0.587875515544     1.007825032230
         H           -0.832625162708    -1.247423120083     1.354031515544     1.007825032230
         H           -2.354535162708     1.736584879917    -1.339663484456     1.007825032230
         H            2.105606837292    -3.070449120083    -1.028460484456     1.007825032230
         H            4.285230837292    -2.162379120083    -0.208659484456     1.007825032230
         H           -3.120528162708    -2.170941120083     1.630410515544     1.007825032230
         H           -4.649424162708     0.781536879917    -1.102640484456     1.007825032230
         H           -5.027175162708    -1.171493120083     0.389571515544     1.007825032230
         H            1.778791837292     2.552607879917     0.378074515544     1.007825032230
         H            3.414598837292     2.279006879917     0.747611515544     1.007825032230

  Basis Set: AUG-CC-PVTZ
    Blend: AUG-CC-PVTZ
  Basis Set: (AUG-CC-PVTZ AUX)
    Blend: AUG-CC-PVTZ-JKFIT
	 Reference Energy          =    -628.1819088158778186 [Eh]
	 Singles Energy            =      -0.0000000000000000 [Eh]
	 Same-Spin Energy          =      -0.6927660607755730 [Eh]
	 Opposite-Spin Energy      =      -2.1119574275312782 [Eh]
	 Correlation Energy        =      -2.8047234883068510 [Eh]
	 Total Energy              =    -630.9866323041846954 [Eh]

	 ================> DF-SCS-MP2 Energies <==================
	-----------------------------------------------------------
	 SCS Same-Spin Scale       =       0.3333333333333333 [-]
	 SCS Opposite-Spin Scale   =       1.2000000000000000 [-]
	 SCS Same-Spin Energy      =      -0.2309220202585243 [Eh]
	 SCS Opposite-Spin Energy  =      -2.5343489130375336 [Eh]
	 SCS Correlation Energy    =      -2.7652709332960579 [Eh]
	 SCS Total Energy          =    -630.9471797491738698 [Eh]
	-----------------------------------------------------------

  Dipole Moment: [D]
     X:     0.5196      Y:    -1.1473      Z:     0.0979     Total:     1.2633

*** Psi4 exiting successfully. Buy a developer a beer!
