                               Psi4 1.3.2 release

  ==> Input File <==

--------------------------------------------------------------------------
#psi4
#
memory 32 gb

molecule  {
0 1
  O       -0.0417540     2.1858230    -0.3073980
  N        2.4805920     1.9330880     0.7500480
  C        1.1160800     0.1042180    -0.1414450
  C       -1.4416830     0.3069060    -0.0388060
  C       -0.0420387     1.0306267    -0.1404465
  C        2.3683100     0.6434780     0.2543940
  C        1.0541080    -1.2200940    -0.6155900
  C        3.4881200    -0.2081800     0.2578510
  C       -1.6559060    -0.7921710     0.8065690
  C       -2.5248970     0.8906690    -0.7109620
  C        2.1811870    -2.0318670    -0.6465910
  C        3.4033030    -1.5159070    -0.2032770
  C       -2.9440810    -1.3050920     0.9648860
  C       -3.8044560     0.3593180    -0.5664320
  C       -4.0170070    -0.7392060     0.2722830
  H        0.1024420    -1.6051810    -0.9713120
  H        4.4463530     0.1894450     0.5890330
  H       -0.8230280    -1.2242950     1.3551890
  H       -2.3449380     1.7597130    -1.3385060
  H        2.1152040    -3.0473210    -1.0273030
  H        4.2948280    -2.1392510    -0.2075020
  H       -3.1109310    -2.1478130     1.6315680
  H       -4.6398270     0.8046650    -1.1014830
  H       -5.0175780    -1.1483650     0.3907290
  H        1.7883890     2.5757360     0.3792320
  H        3.4241960     2.3021350     0.7487690
units angstrom
no_reorient  #important for SAPT in psi4, default
symmetry c1  #important for SAPT in psi4, default
}

set PROPERTIES_ORIGIN ["COM"]
properties('MP2/aug-cc-pvtz', properties = ['dipole'])
--------------------------------------------------------------------------

    Molecular point group: c1
  Charge       = 0
  Multiplicity = 1
  Basis Set: AUG-CC-PVTZ
    Blend: AUG-CC-PVTZ
  Basis Set: (AUG-CC-PVTZ AUX)
    Blend: AUG-CC-PVTZ-JKFIT

    Orbital Energies [Eh]
    ---------------------

    Doubly Occupied:

       1A    -20.552928     2A    -15.565232     3A    -11.340478
       4A    -11.297947     5A    -11.255836     6A    -11.254722
       7A    -11.246601     8A    -11.245211     9A    -11.245039
      10A    -11.242010    11A    -11.241434    12A    -11.240509
      13A    -11.240255    14A    -11.233815    15A    -11.231030
      16A     -1.431051    17A     -1.232323    18A     -1.157214
      19A     -1.138915    20A     -1.051172    21A     -1.020229
      22A     -1.016024    23A     -0.999245    24A     -0.886357
      25A     -0.846209    26A     -0.833594    27A     -0.817097
      28A     -0.769132    29A     -0.718278    30A     -0.703318
      31A     -0.692214    32A     -0.676459    33A     -0.651427
      34A     -0.632223    35A     -0.617920    36A     -0.613200
      37A     -0.606551    38A     -0.596273    39A     -0.593128
      40A     -0.569465    41A     -0.541164    42A     -0.529567
      43A     -0.519395    44A     -0.510586    45A     -0.499473
      46A     -0.497213    47A     -0.456163    48A     -0.409809
      49A     -0.352645    50A     -0.341913    51A     -0.340221
      52A     -0.303769

  @DF-RHF Final Energy:  -628.22089419869565

   => Energetics <=

    Nuclear Repulsion Energy =            893.3444893507509050
    One-Electron Energy =               -2625.9227991951829608
    Two-Electron Energy =                1104.3574156457364097
    Total Energy =                       -628.2208941986957598
  Basis Set: (AUG-CC-PVTZ AUX)
    Blend: AUG-CC-PVTZ-RI
    Molecular point group: c1

    Geometry (in Angstrom), charge = 0, multiplicity = 1:

       Center              X                  Y                   Z               Mass
    ------------   -----------------  -----------------  -----------------  -----------------
         O           -0.044176737889     2.162511735734    -0.307130589950    15.994914619570
         N            2.478169262111     1.909776735734     0.750315410050    14.003074004430
         C            1.113657262111     0.080906735734    -0.141177589950    12.000000000000
         C           -1.444105737889     0.283594735734    -0.038538589950    12.000000000000
         C           -0.044461437889     1.007315435734    -0.140179089950    12.000000000000
         C            2.365887262111     0.620166735734     0.254661410050    12.000000000000
         C            1.051685262111    -1.243405264266    -0.615322589950    12.000000000000
         C            3.485697262111    -0.231491264266     0.258118410050    12.000000000000
         C           -1.658328737889    -0.815482264266     0.806836410050    12.000000000000
         C           -2.527319737889     0.867357735734    -0.710694589950    12.000000000000
         C            2.178764262111    -2.055178264266    -0.646323589950    12.000000000000
         C            3.400880262111    -1.539218264266    -0.203009589950    12.000000000000
         C           -2.946503737889    -1.328403264266     0.965153410050    12.000000000000
         C           -3.806878737889     0.336006735734    -0.566164589950    12.000000000000
         C           -4.019429737889    -0.762517264266     0.272550410050    12.000000000000
         H            0.100019262111    -1.628492264266    -0.971044589950     1.007825032230
         H            4.443930262111     0.166133735734     0.589300410050     1.007825032230
         H           -0.825450737889    -1.247606264266     1.355456410050     1.007825032230
         H           -2.347360737889     1.736401735734    -1.338238589950     1.007825032230
         H            2.112781262111    -3.070632264266    -1.027035589950     1.007825032230
         H            4.292405262111    -2.162562264266    -0.207234589950     1.007825032230
         H           -3.113353737889    -2.171124264266     1.631835410050     1.007825032230
         H           -4.642249737889     0.781353735734    -1.101215589950     1.007825032230
         H           -5.020000737889    -1.171676264266     0.390996410050     1.007825032230
         H            1.785966262111     2.552424735734     0.379499410050     1.007825032230
         H            3.421773262111     2.278823735734     0.749036410050     1.007825032230

  Basis Set: AUG-CC-PVTZ
    Blend: AUG-CC-PVTZ
  Basis Set: (AUG-CC-PVTZ AUX)
    Blend: AUG-CC-PVTZ-JKFIT
	 Reference Energy          =    -628.2208941986956461 [Eh]
	 Singles Energy            =      -0.0000000000000000 [Eh]
	 Same-Spin Energy          =      -0.6895859215341974 [Eh]
	 Opposite-Spin Energy      =      -2.1056498519288764 [Eh]
	 Correlation Energy        =      -2.7952357734630739 [Eh]
	 Total Energy              =    -631.0161299721587511 [Eh]

	 ================> DF-SCS-MP2 Energies <==================
	-----------------------------------------------------------
	 SCS Same-Spin Scale       =       0.3333333333333333 [-]
	 SCS Opposite-Spin Scale   =       1.2000000000000000 [-]
	 SCS Same-Spin Energy      =      -0.2298619738447324 [Eh]
	 SCS Opposite-Spin Energy  =      -2.5267798223146518 [Eh]
	 SCS Correlation Energy    =      -2.7566417961593843 [Eh]
	 SCS Total Energy          =    -630.9775359948549749 [Eh]
	-----------------------------------------------------------

  Dipole Moment: [D]
     X:     0.8357      Y:    -1.2568      Z:    -0.1524     Total:     1.5169

*** Psi4 exiting successfully. Buy a developer a beer!
