                               Psi4 1.3.2 release

  ==> Input File <==

--------------------------------------------------------------------------
#psi4
#
memory 32 gb

molecule  {
0 1
  O       -0.0417540     2.1858230    -0.3073980
  N        2.4805920     1.9330880     0.7500480
  C        1.0765435     0.1937509    -0.1259410
  C       -1.4416830     0.3069060    -0.0388060
  C       -0.1006150     0.9516510    -0.1728080
  C        2.3683100     0.6434780     0.2543940
  C        1.0541080    -1.2200940    -0.6155900
  C        3.4881200    -0.2081800     0.2578510
  C       -1.6559060    -0.7921710     0.8065690
  C       -2.5248970     0.8906690    -0.7109620
  C        2.1811870    -2.0318670    -0.6465910
  C        3.4033030    -1.5159070    -0.2032770
  C       -2.9440810    -1.3050920     0.9648860
  C       -3.8044560     0.3593180    -0.5664320
  C       -4.0170070    -0.7392060     0.2722830
  H        0.1024420    -1.6051810    -0.9713120
  H        4.4463530     0.1894450     0.5890330
  H       -0.8230280    -1.2242950     1.3551890
  H       -2.3449380     1.7597130    -1.3385060
  H        2.1152040    -3.0473210    -1.0273030
  H        4.2948280    -2.1392510    -0.2075020
  H       -3.1109310    -2.1478130     1.6315680
  H       -4.6398270     0.8046650    -1.1014830
  H       -5.0175780    -1.1483650     0.3907290
  H        1.7883890     2.5757360     0.3792320
  H        3.4241960     2.3021350     0.7487690
units angstrom
no_reorient  #important for SAPT in psi4, default
symmetry c1  #important for SAPT in psi4, default
}

set PROPERTIES_ORIGIN ["COM"]
properties('MP2/aug-cc-pvtz', properties = ['dipole'])
--------------------------------------------------------------------------

    Molecular point group: c1
  Charge       = 0
  Multiplicity = 1
  Basis Set: AUG-CC-PVTZ
    Blend: AUG-CC-PVTZ
  Basis Set: (AUG-CC-PVTZ AUX)
    Blend: AUG-CC-PVTZ-JKFIT

    Orbital Energies [Eh]
    ---------------------

    Doubly Occupied:

       1A    -20.532219     2A    -15.561750     3A    -11.331382
       4A    -11.304332     5A    -11.265076     6A    -11.261341
       7A    -11.251018     8A    -11.249965     9A    -11.248941
      10A    -11.246376    11A    -11.244516    12A    -11.243043
      13A    -11.239888    14A    -11.237699    15A    -11.233356
      16A     -1.370873    17A     -1.230020    18A     -1.162707
      19A     -1.133989    20A     -1.060299    21A     -1.024864
      22A     -1.018925    23A     -1.000426    24A     -0.900363
      25A     -0.853557    26A     -0.837539    27A     -0.817077
      28A     -0.770269    29A     -0.720248    30A     -0.703738
      31A     -0.687201    32A     -0.672671    33A     -0.646006
      34A     -0.635149    35A     -0.616611    36A     -0.613088
      37A     -0.604819    38A     -0.595734    39A     -0.579324
      40A     -0.555680    41A     -0.538130    42A     -0.524912
      43A     -0.520058    44A     -0.505649    45A     -0.500527
      46A     -0.485485    47A     -0.452535    48A     -0.423784
      49A     -0.347778    50A     -0.343949    51A     -0.341931
      52A     -0.306626

  @DF-RHF Final Energy:  -628.21301565173655

   => Energetics <=

    Nuclear Repulsion Energy =            893.3931536417856023
    One-Electron Energy =               -2626.1054530417750357
    Two-Electron Energy =                1104.4992837482529922
    Total Energy =                       -628.2130156517364412
  Basis Set: (AUG-CC-PVTZ AUX)
    Blend: AUG-CC-PVTZ-RI
    Molecular point group: c1

    Geometry (in Angstrom), charge = 0, multiplicity = 1:

       Center              X                  Y                   Z               Mass
    ------------   -----------------  -----------------  -----------------  -----------------
         O           -0.038202872848     2.161868931859    -0.306104175151    15.994914619570
         N            2.484143127152     1.909133931859     0.751341824849    14.003074004430
         C            1.080094627152     0.169796831859    -0.124647175151    12.000000000000
         C           -1.438131872848     0.282951931859    -0.037512175151    12.000000000000
         C           -0.097063872848     0.927696931859    -0.171514175151    12.000000000000
         C            2.371861127152     0.619523931859     0.255687824849    12.000000000000
         C            1.057659127152    -1.244048068141    -0.614296175151    12.000000000000
         C            3.491671127152    -0.232134068141     0.259144824849    12.000000000000
         C           -1.652354872848    -0.816125068141     0.807862824849    12.000000000000
         C           -2.521345872848     0.866714931859    -0.709668175151    12.000000000000
         C            2.184738127152    -2.055821068141    -0.645297175151    12.000000000000
         C            3.406854127152    -1.539861068141    -0.201983175151    12.000000000000
         C           -2.940529872848    -1.329046068141     0.966179824849    12.000000000000
         C           -3.800904872848     0.335363931859    -0.565138175151    12.000000000000
         C           -4.013455872848    -0.763160068141     0.273576824849    12.000000000000
         H            0.105993127152    -1.629135068141    -0.970018175151     1.007825032230
         H            4.449904127152     0.165490931859     0.590326824849     1.007825032230
         H           -0.819476872848    -1.248249068141     1.356482824849     1.007825032230
         H           -2.341386872848     1.735758931859    -1.337212175151     1.007825032230
         H            2.118755127152    -3.071275068141    -1.026009175151     1.007825032230
         H            4.298379127152    -2.163205068141    -0.206208175151     1.007825032230
         H           -3.107379872848    -2.171767068141     1.632861824849     1.007825032230
         H           -4.636275872848     0.780710931859    -1.100189175151     1.007825032230
         H           -5.014026872848    -1.172319068141     0.392022824849     1.007825032230
         H            1.791940127152     2.551781931859     0.380525824849     1.007825032230
         H            3.427747127152     2.278180931859     0.750062824849     1.007825032230

  Basis Set: AUG-CC-PVTZ
    Blend: AUG-CC-PVTZ
  Basis Set: (AUG-CC-PVTZ AUX)
    Blend: AUG-CC-PVTZ-JKFIT
	 Reference Energy          =    -628.2130156517365549 [Eh]
	 Singles Energy            =      -0.0000000000000000 [Eh]
	 Same-Spin Energy          =      -0.6921905998120952 [Eh]
	 Opposite-Spin Energy      =      -2.1111594822634108 [Eh]
	 Correlation Energy        =      -2.8033500820755060 [Eh]
	 Total Energy              =    -631.0163657338121084 [Eh]

	 ================> DF-SCS-MP2 Energies <==================
	-----------------------------------------------------------
	 SCS Same-Spin Scale       =       0.3333333333333333 [-]
	 SCS Opposite-Spin Scale   =       1.2000000000000000 [-]
	 SCS Same-Spin Energy      =      -0.2307301999373650 [Eh]
	 SCS Opposite-Spin Energy  =      -2.5333913787160927 [Eh]
	 SCS Correlation Energy    =      -2.7641215786534579 [Eh]
	 SCS Total Energy          =    -630.9771372303899852 [Eh]
	-----------------------------------------------------------

  Dipole Moment: [D]
     X:     0.7044      Y:    -1.8156      Z:    -0.0804     Total:     1.9491

*** Psi4 exiting successfully. Buy a developer a beer!
