                               Psi4 1.3.2 release

  ==> Input File <==

--------------------------------------------------------------------------
#psi4
#
memory 32 gb

molecule  {
0 1
  O       -0.0417540     2.1858230    -0.3073980
  N        2.4805920     1.9330880     0.7500480
  C        1.1160800     0.1042180    -0.1414450
  C       -1.4416830     0.3069060    -0.0388060
  C       -0.0870477     0.9711176    -0.1624659
  C        2.3683100     0.6434780     0.2543940
  C        1.0541080    -1.2200940    -0.6155900
  C        3.4881200    -0.2081800     0.2578510
  C       -1.6559060    -0.7921710     0.8065690
  C       -2.5248970     0.8906690    -0.7109620
  C        2.1811870    -2.0318670    -0.6465910
  C        3.4033030    -1.5159070    -0.2032770
  C       -2.9440810    -1.3050920     0.9648860
  C       -3.8044560     0.3593180    -0.5664320
  C       -4.0170070    -0.7392060     0.2722830
  H        0.1024420    -1.6051810    -0.9713120
  H        4.4463530     0.1894450     0.5890330
  H       -0.8230280    -1.2242950     1.3551890
  H       -2.3449380     1.7597130    -1.3385060
  H        2.1152040    -3.0473210    -1.0273030
  H        4.2948280    -2.1392510    -0.2075020
  H       -3.1109310    -2.1478130     1.6315680
  H       -4.6398270     0.8046650    -1.1014830
  H       -5.0175780    -1.1483650     0.3907290
  H        1.7883890     2.5757360     0.3792320
  H        3.4241960     2.3021350     0.7487690
units angstrom
no_reorient  #important for SAPT in psi4, default
symmetry c1  #important for SAPT in psi4, default
}

set PROPERTIES_ORIGIN ["COM"]
properties('MP2/aug-cc-pvtz', properties = ['dipole'])
--------------------------------------------------------------------------

    Molecular point group: c1
  Charge       = 0
  Multiplicity = 1
  Basis Set: AUG-CC-PVTZ
    Blend: AUG-CC-PVTZ
  Basis Set: (AUG-CC-PVTZ AUX)
    Blend: AUG-CC-PVTZ-JKFIT

    Orbital Energies [Eh]
    ---------------------

    Doubly Occupied:

       1A    -20.544280     2A    -15.562615     3A    -11.341227
       4A    -11.298656     5A    -11.254537     6A    -11.254473
       7A    -11.251095     8A    -11.250001     9A    -11.249475
      10A    -11.246728    11A    -11.244864    12A    -11.243521
      13A    -11.240820    14A    -11.233564    15A    -11.230080
      16A     -1.387572    17A     -1.229386    18A     -1.162702
      19A     -1.138590    20A     -1.055718    21A     -1.025076
      22A     -1.020039    23A     -0.998069    24A     -0.891340
      25A     -0.848651    26A     -0.837735    27A     -0.819337
      28A     -0.770107    29A     -0.717962    30A     -0.702436
      31A     -0.689528    32A     -0.670765    33A     -0.648765
      34A     -0.634244    35A     -0.616244    36A     -0.611526
      37A     -0.605071    38A     -0.596275    39A     -0.590207
      40A     -0.557296    41A     -0.537349    42A     -0.527137
      43A     -0.519313    44A     -0.509921    45A     -0.501451
      46A     -0.494008    47A     -0.454482    48A     -0.420083
      49A     -0.352018    50A     -0.345581    51A     -0.343653
      52A     -0.302432

  @DF-RHF Final Energy:  -628.22739110666953

   => Energetics <=

    Nuclear Repulsion Energy =            893.2276873418467176
    One-Electron Energy =               -2625.7541392255807295
    Two-Electron Energy =                1104.2990607770643692
    Total Energy =                       -628.2273911066695291
  Basis Set: (AUG-CC-PVTZ AUX)
    Blend: AUG-CC-PVTZ-RI
    Molecular point group: c1

    Geometry (in Angstrom), charge = 0, multiplicity = 1:

       Center              X                  Y                   Z               Mass
    ------------   -----------------  -----------------  -----------------  -----------------
         O           -0.041436242340     2.166135109362    -0.305789878811    15.994914619570
         N            2.480909757660     1.913400109362     0.751656121189    14.003074004430
         C            1.116397757660     0.084530109362    -0.139836878811    12.000000000000
         C           -1.441365242340     0.287218109362    -0.037197878811    12.000000000000
         C           -0.086729942340     0.951429709362    -0.160857778811    12.000000000000
         C            2.368627757660     0.623790109362     0.256002121189    12.000000000000
         C            1.054425757660    -1.239781890638    -0.613981878811    12.000000000000
         C            3.488437757660    -0.227867890638     0.259459121189    12.000000000000
         C           -1.655588242340    -0.811858890638     0.808177121189    12.000000000000
         C           -2.524579242340     0.870981109362    -0.709353878811    12.000000000000
         C            2.181504757660    -2.051554890638    -0.644982878811    12.000000000000
         C            3.403620757660    -1.535594890638    -0.201668878811    12.000000000000
         C           -2.943763242340    -1.324779890638     0.966494121189    12.000000000000
         C           -3.804138242340     0.339630109362    -0.564823878811    12.000000000000
         C           -4.016689242340    -0.758893890638     0.273891121189    12.000000000000
         H            0.102759757660    -1.624868890638    -0.969703878811     1.007825032230
         H            4.446670757660     0.169757109362     0.590641121189     1.007825032230
         H           -0.822710242340    -1.243982890638     1.356797121189     1.007825032230
         H           -2.344620242340     1.740025109362    -1.336897878811     1.007825032230
         H            2.115521757660    -3.067008890638    -1.025694878811     1.007825032230
         H            4.295145757660    -2.158938890638    -0.205893878811     1.007825032230
         H           -3.110613242340    -2.167500890638     1.633176121189     1.007825032230
         H           -4.639509242340     0.784977109362    -1.099874878811     1.007825032230
         H           -5.017260242340    -1.168052890638     0.392337121189     1.007825032230
         H            1.788706757660     2.556048109362     0.380840121189     1.007825032230
         H            3.424513757660     2.282447109362     0.750377121189     1.007825032230

  Basis Set: AUG-CC-PVTZ
    Blend: AUG-CC-PVTZ
  Basis Set: (AUG-CC-PVTZ AUX)
    Blend: AUG-CC-PVTZ-JKFIT
	 Reference Energy          =    -628.2273911066695291 [Eh]
	 Singles Energy            =      -0.0000000000000000 [Eh]
	 Same-Spin Energy          =      -0.6909769418643001 [Eh]
	 Opposite-Spin Energy      =      -2.1084536968019449 [Eh]
	 Correlation Energy        =      -2.7994306386662453 [Eh]
	 Total Energy              =    -631.0268217453357238 [Eh]

	 ================> DF-SCS-MP2 Energies <==================
	-----------------------------------------------------------
	 SCS Same-Spin Scale       =       0.3333333333333333 [-]
	 SCS Opposite-Spin Scale   =       1.2000000000000000 [-]
	 SCS Same-Spin Energy      =      -0.2303256472881000 [Eh]
	 SCS Opposite-Spin Energy  =      -2.5301444361623338 [Eh]
	 SCS Correlation Energy    =      -2.7604700834504339 [Eh]
	 SCS Total Energy          =    -630.9878611901199292 [Eh]
	-----------------------------------------------------------

  Dipole Moment: [D]
     X:     0.4532      Y:    -1.5505      Z:    -0.1120     Total:     1.6192

*** Psi4 exiting successfully. Buy a developer a beer!
