                               Psi4 1.3.2 release

  ==> Input File <==

--------------------------------------------------------------------------
#psi4
#
memory 32 gb

molecule  {
0 1
  O       -0.0417540     2.1858230    -0.3073980
  N        2.4805920     1.9330880     0.7500480
  C        1.1160800     0.1042180    -0.1414450
  C       -1.4416830     0.3069060    -0.0388060
  C       -0.1212362     0.9853622    -0.2068346
  C        2.3683100     0.6434780     0.2543940
  C        1.0541080    -1.2200940    -0.6155900
  C        3.4881200    -0.2081800     0.2578510
  C       -1.6559060    -0.7921710     0.8065690
  C       -2.5248970     0.8906690    -0.7109620
  C        2.1811870    -2.0318670    -0.6465910
  C        3.4033030    -1.5159070    -0.2032770
  C       -2.9440810    -1.3050920     0.9648860
  C       -3.8044560     0.3593180    -0.5664320
  C       -4.0170070    -0.7392060     0.2722830
  H        0.1024420    -1.6051810    -0.9713120
  H        4.4463530     0.1894450     0.5890330
  H       -0.8230280    -1.2242950     1.3551890
  H       -2.3449380     1.7597130    -1.3385060
  H        2.1152040    -3.0473210    -1.0273030
  H        4.2948280    -2.1392510    -0.2075020
  H       -3.1109310    -2.1478130     1.6315680
  H       -4.6398270     0.8046650    -1.1014830
  H       -5.0175780    -1.1483650     0.3907290
  H        1.7883890     2.5757360     0.3792320
  H        3.4241960     2.3021350     0.7487690
units angstrom
no_reorient  #important for SAPT in psi4, default
symmetry c1  #important for SAPT in psi4, default
}

set PROPERTIES_ORIGIN ["COM"]
properties('MP2/aug-cc-pvtz', properties = ['dipole'])
--------------------------------------------------------------------------

    Molecular point group: c1
  Charge       = 0
  Multiplicity = 1
  Basis Set: AUG-CC-PVTZ
    Blend: AUG-CC-PVTZ
  Basis Set: (AUG-CC-PVTZ AUX)
    Blend: AUG-CC-PVTZ-JKFIT

    Orbital Energies [Eh]
    ---------------------

    Doubly Occupied:

       1A    -20.547233     2A    -15.560857     3A    -11.341292
       4A    -11.295886     5A    -11.253403     6A    -11.251678
       7A    -11.251525     8A    -11.251224     9A    -11.249810
      10A    -11.247985    11A    -11.246445    12A    -11.244591
      13A    -11.240310    14A    -11.231713    15A    -11.227945
      16A     -1.400190    17A     -1.227183    18A     -1.164724
      19A     -1.135827    20A     -1.054452    21A     -1.026999
      22A     -1.019075    23A     -0.994954    24A     -0.889879
      25A     -0.847658    26A     -0.838655    27A     -0.817954
      28A     -0.769987    29A     -0.717551    30A     -0.702100
      31A     -0.687407    32A     -0.670832    33A     -0.653568
      34A     -0.635333    35A     -0.617137    36A     -0.611784
      37A     -0.603493    38A     -0.597674    39A     -0.588743
      40A     -0.558449    41A     -0.537725    42A     -0.528463
      43A     -0.520271    44A     -0.509598    45A     -0.503159
      46A     -0.496188    47A     -0.452600    48A     -0.418275
      49A     -0.350604    50A     -0.347070    51A     -0.344563
      52A     -0.300170

  @DF-RHF Final Energy:  -628.22700820222519

   => Energetics <=

    Nuclear Repulsion Energy =            893.1200382948552488
    One-Electron Energy =               -2625.5297165540177957
    Two-Electron Energy =                1104.1826700569374680
    Total Energy =                       -628.2270082022250790
  Basis Set: (AUG-CC-PVTZ AUX)
    Blend: AUG-CC-PVTZ-RI
    Molecular point group: c1

    Geometry (in Angstrom), charge = 0, multiplicity = 1:

       Center              X                  Y                   Z               Mass
    ------------   -----------------  -----------------  -----------------  -----------------
         O           -0.039354582405     2.165267788096    -0.303088369672    15.994914619570
         N            2.482991417595     1.912532788096     0.754357630328    14.003074004430
         C            1.118479417595     0.083662788096    -0.137135369672    12.000000000000
         C           -1.439283582405     0.286350788096    -0.034496369672    12.000000000000
         C           -0.118836782405     0.964806988096    -0.202524969672    12.000000000000
         C            2.370709417595     0.622922788096     0.258703630328    12.000000000000
         C            1.056507417595    -1.240649211904    -0.611280369672    12.000000000000
         C            3.490519417595    -0.228735211904     0.262160630328    12.000000000000
         C           -1.653506582405    -0.812726211904     0.810878630328    12.000000000000
         C           -2.522497582405     0.870113788096    -0.706652369672    12.000000000000
         C            2.183586417595    -2.052422211904    -0.642281369672    12.000000000000
         C            3.405702417595    -1.536462211904    -0.198967369672    12.000000000000
         C           -2.941681582405    -1.325647211904     0.969195630328    12.000000000000
         C           -3.802056582405     0.338762788096    -0.562122369672    12.000000000000
         C           -4.014607582405    -0.759761211904     0.276592630328    12.000000000000
         H            0.104841417595    -1.625736211904    -0.967002369672     1.007825032230
         H            4.448752417595     0.168889788096     0.593342630328     1.007825032230
         H           -0.820628582405    -1.244850211904     1.359498630328     1.007825032230
         H           -2.342538582405     1.739157788096    -1.334196369672     1.007825032230
         H            2.117603417595    -3.067876211904    -1.022993369672     1.007825032230
         H            4.297227417595    -2.159806211904    -0.203192369672     1.007825032230
         H           -3.108531582405    -2.168368211904     1.635877630328     1.007825032230
         H           -4.637427582405     0.784109788096    -1.097173369672     1.007825032230
         H           -5.015178582405    -1.168920211904     0.395038630328     1.007825032230
         H            1.790788417595     2.555180788096     0.383541630328     1.007825032230
         H            3.426595417595     2.281579788096     0.753078630328     1.007825032230

  Basis Set: AUG-CC-PVTZ
    Blend: AUG-CC-PVTZ
  Basis Set: (AUG-CC-PVTZ AUX)
    Blend: AUG-CC-PVTZ-JKFIT
	 Reference Energy          =    -628.2270082022251927 [Eh]
	 Singles Energy            =      -0.0000000000000000 [Eh]
	 Same-Spin Energy          =      -0.6905375848469845 [Eh]
	 Opposite-Spin Energy      =      -2.1076241850217556 [Eh]
	 Correlation Energy        =      -2.7981617698687402 [Eh]
	 Total Energy              =    -631.0251699720939769 [Eh]

	 ================> DF-SCS-MP2 Energies <==================
	-----------------------------------------------------------
	 SCS Same-Spin Scale       =       0.3333333333333333 [-]
	 SCS Opposite-Spin Scale   =       1.2000000000000000 [-]
	 SCS Same-Spin Energy      =      -0.2301791949489948 [Eh]
	 SCS Opposite-Spin Energy  =      -2.5291490220261066 [Eh]
	 SCS Correlation Energy    =      -2.7593282169751014 [Eh]
	 SCS Total Energy          =    -630.9863364192002564 [Eh]
	-----------------------------------------------------------

  Dipole Moment: [D]
     X:     0.1443      Y:    -1.4495      Z:    -0.1385     Total:     1.4632

*** Psi4 exiting successfully. Buy a developer a beer!
