                               Psi4 1.3.2 release

  ==> Input File <==

--------------------------------------------------------------------------
#psi4
#
memory 32 gb

molecule  {
0 1
  O       -0.0417540     2.1858230    -0.3073980
  N        2.4805920     1.9330880     0.7500480
  C        1.1160800     0.1042180    -0.1414450
  C       -1.4416830     0.3069060    -0.0388060
  C       -0.1006150     0.9516510    -0.1728080
  C        2.3211624     0.7278742     0.2761664
  C        1.0541080    -1.2200940    -0.6155900
  C        3.4881200    -0.2081800     0.2578510
  C       -1.6559060    -0.7921710     0.8065690
  C       -2.5248970     0.8906690    -0.7109620
  C        2.1811870    -2.0318670    -0.6465910
  C        3.4033030    -1.5159070    -0.2032770
  C       -2.9440810    -1.3050920     0.9648860
  C       -3.8044560     0.3593180    -0.5664320
  C       -4.0170070    -0.7392060     0.2722830
  H        0.1024420    -1.6051810    -0.9713120
  H        4.4463530     0.1894450     0.5890330
  H       -0.8230280    -1.2242950     1.3551890
  H       -2.3449380     1.7597130    -1.3385060
  H        2.1152040    -3.0473210    -1.0273030
  H        4.2948280    -2.1392510    -0.2075020
  H       -3.1109310    -2.1478130     1.6315680
  H       -4.6398270     0.8046650    -1.1014830
  H       -5.0175780    -1.1483650     0.3907290
  H        1.7883890     2.5757360     0.3792320
  H        3.4241960     2.3021350     0.7487690
units angstrom
no_reorient  #important for SAPT in psi4, default
symmetry c1  #important for SAPT in psi4, default
}

set PROPERTIES_ORIGIN ["COM"]
properties('MP2/aug-cc-pvtz', properties = ['dipole'])
--------------------------------------------------------------------------

    Molecular point group: c1
  Charge       = 0
  Multiplicity = 1
  Basis Set: AUG-CC-PVTZ
    Blend: AUG-CC-PVTZ
  Basis Set: (AUG-CC-PVTZ AUX)
    Blend: AUG-CC-PVTZ-JKFIT

    Orbital Energies [Eh]
    ---------------------

    Doubly Occupied:

       1A    -20.539061     2A    -15.575533     3A    -11.337583
       4A    -11.307678     5A    -11.251727     6A    -11.250896
       7A    -11.250798     8A    -11.250043     9A    -11.247912
      10A    -11.246364    11A    -11.244465    12A    -11.243052
      13A    -11.238099    14A    -11.236463    15A    -11.224341
      16A     -1.373354    17A     -1.263448    18A     -1.162760
      19A     -1.135607    20A     -1.053979    21A     -1.024701
      22A     -1.018292    23A     -0.988631    24A     -0.888237
      25A     -0.847085    26A     -0.838479    27A     -0.821577
      28A     -0.769098    29A     -0.721509    30A     -0.711266
      31A     -0.699504    32A     -0.674443    33A     -0.645757
      34A     -0.637140    35A     -0.617815    36A     -0.611579
      37A     -0.596327    38A     -0.593402    39A     -0.585881
      40A     -0.558698    41A     -0.533057    42A     -0.528005
      43A     -0.517355    44A     -0.504203    45A     -0.500247
      46A     -0.492810    47A     -0.461660    48A     -0.416141
      49A     -0.350225    50A     -0.345176    51A     -0.343092
      52A     -0.291253

  @DF-RHF Final Energy:  -628.21341254839945

   => Energetics <=

    Nuclear Repulsion Energy =            893.3214277767997373
    One-Electron Energy =               -2625.9380591491835730
    Two-Electron Energy =                1104.4032188239843890
    Total Energy =                       -628.2134125483994467
  Basis Set: (AUG-CC-PVTZ AUX)
    Blend: AUG-CC-PVTZ-RI
    Molecular point group: c1

    Geometry (in Angstrom), charge = 0, multiplicity = 1:

       Center              X                  Y                   Z               Mass
    ------------   -----------------  -----------------  -----------------  -----------------
         O           -0.037739450295     2.162181693828    -0.306485843757    15.994914619570
         N            2.484606549705     1.909446693828     0.750960156243    14.003074004430
         C            1.120094549705     0.080576693828    -0.140532843757    12.000000000000
         C           -1.437668450295     0.283264693828    -0.037893843757    12.000000000000
         C           -0.096600450295     0.928009693828    -0.171895843757    12.000000000000
         C            2.325176949705     0.704232893828     0.277078556243    12.000000000000
         C            1.058122549705    -1.243735306172    -0.614677843757    12.000000000000
         C            3.492134549705    -0.231821306172     0.258763156243    12.000000000000
         C           -1.651891450295    -0.815812306172     0.807481156243    12.000000000000
         C           -2.520882450295     0.867027693828    -0.710049843757    12.000000000000
         C            2.185201549705    -2.055508306172    -0.645678843757    12.000000000000
         C            3.407317549705    -1.539548306172    -0.202364843757    12.000000000000
         C           -2.940066450295    -1.328733306172     0.965798156243    12.000000000000
         C           -3.800441450295     0.335676693828    -0.565519843757    12.000000000000
         C           -4.012992450295    -0.762847306172     0.273195156243    12.000000000000
         H            0.106456549705    -1.628822306172    -0.970399843757     1.007825032230
         H            4.450367549705     0.165803693828     0.589945156243     1.007825032230
         H           -0.819013450295    -1.247936306172     1.356101156243     1.007825032230
         H           -2.340923450295     1.736071693828    -1.337593843757     1.007825032230
         H            2.119218549705    -3.070962306172    -1.026390843757     1.007825032230
         H            4.298842549705    -2.162892306172    -0.206589843757     1.007825032230
         H           -3.106916450295    -2.171454306172     1.632480156243     1.007825032230
         H           -4.635812450295     0.781023693828    -1.100570843757     1.007825032230
         H           -5.013563450295    -1.172006306172     0.391641156243     1.007825032230
         H            1.792403549705     2.552094693828     0.380144156243     1.007825032230
         H            3.428210549705     2.278493693828     0.749681156243     1.007825032230

  Basis Set: AUG-CC-PVTZ
    Blend: AUG-CC-PVTZ
  Basis Set: (AUG-CC-PVTZ AUX)
    Blend: AUG-CC-PVTZ-JKFIT
	 Reference Energy          =    -628.2134125483994467 [Eh]
	 Singles Energy            =      -0.0000000000000000 [Eh]
	 Same-Spin Energy          =      -0.6918270157448871 [Eh]
	 Opposite-Spin Energy      =      -2.1099537376638740 [Eh]
	 Correlation Energy        =      -2.8017807534087611 [Eh]
	 Total Energy              =    -631.0151933018081536 [Eh]

	 ================> DF-SCS-MP2 Energies <==================
	-----------------------------------------------------------
	 SCS Same-Spin Scale       =       0.3333333333333333 [-]
	 SCS Opposite-Spin Scale   =       1.2000000000000000 [-]
	 SCS Same-Spin Energy      =      -0.2306090052482957 [Eh]
	 SCS Opposite-Spin Energy  =      -2.5319444851966488 [Eh]
	 SCS Correlation Energy    =      -2.7625534904449447 [Eh]
	 SCS Total Energy          =    -630.9759660388443763 [Eh]
	-----------------------------------------------------------

  Dipole Moment: [D]
     X:     0.5776      Y:    -1.0854      Z:     0.1262     Total:     1.2359

*** Psi4 exiting successfully. Buy a developer a beer!
