                               Psi4 1.3.2 release

  ==> Input File <==

--------------------------------------------------------------------------
#psi4
#
memory 32 gb

molecule  {
0 1
  O       -0.0417540     2.1858230    -0.3073980
  N        2.4805920     1.9330880     0.7500480
  C        1.1160800     0.1042180    -0.1414450
  C       -1.4416830     0.3069060    -0.0388060
  C       -0.0441639     1.0279098    -0.1314138
  C        2.3683100     0.6434780     0.2543940
  C        1.0541080    -1.2200940    -0.6155900
  C        3.4881200    -0.2081800     0.2578510
  C       -1.6559060    -0.7921710     0.8065690
  C       -2.5248970     0.8906690    -0.7109620
  C        2.1811870    -2.0318670    -0.6465910
  C        3.4033030    -1.5159070    -0.2032770
  C       -2.9440810    -1.3050920     0.9648860
  C       -3.8044560     0.3593180    -0.5664320
  C       -4.0170070    -0.7392060     0.2722830
  H        0.1024420    -1.6051810    -0.9713120
  H        4.4463530     0.1894450     0.5890330
  H       -0.8230280    -1.2242950     1.3551890
  H       -2.3449380     1.7597130    -1.3385060
  H        2.1152040    -3.0473210    -1.0273030
  H        4.2948280    -2.1392510    -0.2075020
  H       -3.1109310    -2.1478130     1.6315680
  H       -4.6398270     0.8046650    -1.1014830
  H       -5.0175780    -1.1483650     0.3907290
  H        1.7883890     2.5757360     0.3792320
  H        3.4241960     2.3021350     0.7487690
units angstrom
no_reorient  #important for SAPT in psi4, default
symmetry c1  #important for SAPT in psi4, default
}

set PROPERTIES_ORIGIN ["COM"]
properties('MP2/aug-cc-pvtz', properties = ['dipole'])
--------------------------------------------------------------------------

    Molecular point group: c1
  Charge       = 0
  Multiplicity = 1
  Basis Set: AUG-CC-PVTZ
    Blend: AUG-CC-PVTZ
  Basis Set: (AUG-CC-PVTZ AUX)
    Blend: AUG-CC-PVTZ-JKFIT

    Orbital Energies [Eh]
    ---------------------

    Doubly Occupied:

       1A    -20.552442     2A    -15.565025     3A    -11.340660
       4A    -11.297874     5A    -11.255782     6A    -11.254644
       7A    -11.246895     8A    -11.245544     9A    -11.245380
      10A    -11.242407    11A    -11.241647    12A    -11.240596
      13A    -11.240537    14A    -11.233759    15A    -11.230990
      16A     -1.427929    17A     -1.232136    18A     -1.157572
      19A     -1.138863    20A     -1.051375    21A     -1.020516
      22A     -1.016323    23A     -0.999176    24A     -0.886631
      25A     -0.846379    26A     -0.833815    27A     -0.817222
      28A     -0.769168    29A     -0.718179    30A     -0.703180
      31A     -0.692115    32A     -0.675852    33A     -0.651170
      34A     -0.632346    35A     -0.617707    36A     -0.613091
      37A     -0.606415    38A     -0.596091    39A     -0.593276
      40A     -0.568464    41A     -0.540913    42A     -0.529314
      43A     -0.519409    44A     -0.510478    45A     -0.499501
      46A     -0.497329    47A     -0.456045    48A     -0.410546
      49A     -0.352517    50A     -0.342202    51A     -0.340502
      52A     -0.303660

  @DF-RHF Final Energy:  -628.22129854293019

   => Energetics <=

    Nuclear Repulsion Energy =            893.3299915096083623
    One-Electron Energy =               -2625.8993976898927940
    Two-Electron Energy =                1104.3481076373541327
    Total Energy =                       -628.2212985429302989
  Basis Set: (AUG-CC-PVTZ AUX)
    Blend: AUG-CC-PVTZ-RI
    Molecular point group: c1

    Geometry (in Angstrom), charge = 0, multiplicity = 1:

       Center              X                  Y                   Z               Mass
    ------------   -----------------  -----------------  -----------------  -----------------
         O           -0.044047339299     2.162677161590    -0.307680570491    15.994914619570
         N            2.478298660701     1.909942161590     0.749765429509    14.003074004430
         C            1.113786660701     0.081072161590    -0.141727570491    12.000000000000
         C           -1.443976339299     0.283760161590    -0.039088570491    12.000000000000
         C           -0.046457239299     1.004763961590    -0.131696370491    12.000000000000
         C            2.366016660701     0.620332161590     0.254111429509    12.000000000000
         C            1.051814660701    -1.243239838410    -0.615872570491    12.000000000000
         C            3.485826660701    -0.231325838410     0.257568429509    12.000000000000
         C           -1.658199339299    -0.815316838410     0.806286429509    12.000000000000
         C           -2.527190339299     0.867523161590    -0.711244570491    12.000000000000
         C            2.178893660701    -2.055012838410    -0.646873570491    12.000000000000
         C            3.401009660701    -1.539052838410    -0.203559570491    12.000000000000
         C           -2.946374339299    -1.328237838410     0.964603429509    12.000000000000
         C           -3.806749339299     0.336172161590    -0.566714570491    12.000000000000
         C           -4.019300339299    -0.762351838410     0.272000429509    12.000000000000
         H            0.100148660701    -1.628326838410    -0.971594570491     1.007825032230
         H            4.444059660701     0.166299161590     0.588750429509     1.007825032230
         H           -0.825321339299    -1.247440838410     1.354906429509     1.007825032230
         H           -2.347231339299     1.736567161590    -1.338788570491     1.007825032230
         H            2.112910660701    -3.070466838410    -1.027585570491     1.007825032230
         H            4.292534660701    -2.162396838410    -0.207784570491     1.007825032230
         H           -3.113224339299    -2.170958838410     1.631285429509     1.007825032230
         H           -4.642120339299     0.781519161590    -1.101765570491     1.007825032230
         H           -5.019871339299    -1.171510838410     0.390446429509     1.007825032230
         H            1.786095660701     2.552590161590     0.378949429509     1.007825032230
         H            3.421902660701     2.278989161590     0.748486429509     1.007825032230

  Basis Set: AUG-CC-PVTZ
    Blend: AUG-CC-PVTZ
  Basis Set: (AUG-CC-PVTZ AUX)
    Blend: AUG-CC-PVTZ-JKFIT
	 Reference Energy          =    -628.2212985429301852 [Eh]
	 Singles Energy            =      -0.0000000000000000 [Eh]
	 Same-Spin Energy          =      -0.6896895506121714 [Eh]
	 Opposite-Spin Energy      =      -2.1058784674543856 [Eh]
	 Correlation Energy        =      -2.7955680180665570 [Eh]
	 Total Energy              =    -631.0168665609967320 [Eh]

	 ================> DF-SCS-MP2 Energies <==================
	-----------------------------------------------------------
	 SCS Same-Spin Scale       =       0.3333333333333333 [-]
	 SCS Opposite-Spin Scale   =       1.2000000000000000 [-]
	 SCS Same-Spin Energy      =      -0.2298965168707238 [Eh]
	 SCS Opposite-Spin Energy  =      -2.5270541609452626 [Eh]
	 SCS Correlation Energy    =      -2.7569506778159862 [Eh]
	 SCS Total Energy          =    -630.9782492207461928 [Eh]
	-----------------------------------------------------------

  Dipole Moment: [D]
     X:     0.8030      Y:    -1.2757      Z:    -0.1413     Total:     1.5140

*** Psi4 exiting successfully. Buy a developer a beer!
