                               Psi4 1.3.2 release

  ==> Input File <==

--------------------------------------------------------------------------
#psi4
#
memory 32 gb

molecule  {
0 1
  O       -0.0417540     2.1858230    -0.3073980
  N        2.5271707     1.9243719     0.7598129
  C        1.1160800     0.1042180    -0.1414450
  C       -1.4416830     0.3069060    -0.0388060
  C       -0.1006150     0.9516510    -0.1728080
  C        2.3683100     0.6434780     0.2543940
  C        1.0541080    -1.2200940    -0.6155900
  C        3.4881200    -0.2081800     0.2578510
  C       -1.6559060    -0.7921710     0.8065690
  C       -2.5248970     0.8906690    -0.7109620
  C        2.1811870    -2.0318670    -0.6465910
  C        3.4033030    -1.5159070    -0.2032770
  C       -2.9440810    -1.3050920     0.9648860
  C       -3.8044560     0.3593180    -0.5664320
  C       -4.0170070    -0.7392060     0.2722830
  H        0.1024420    -1.6051810    -0.9713120
  H        4.4463530     0.1894450     0.5890330
  H       -0.8230280    -1.2242950     1.3551890
  H       -2.3449380     1.7597130    -1.3385060
  H        2.1152040    -3.0473210    -1.0273030
  H        4.2948280    -2.1392510    -0.2075020
  H       -3.1109310    -2.1478130     1.6315680
  H       -4.6398270     0.8046650    -1.1014830
  H       -5.0175780    -1.1483650     0.3907290
  H        1.7883890     2.5757360     0.3792320
  H        3.4241960     2.3021350     0.7487690
units angstrom
no_reorient  #important for SAPT in psi4, default
symmetry c1  #important for SAPT in psi4, default
}

set PROPERTIES_ORIGIN ["COM"]
properties('MP2/aug-cc-pvtz', properties = ['dipole'])
--------------------------------------------------------------------------

    Molecular point group: c1
  Charge       = 0
  Multiplicity = 1
  Basis Set: AUG-CC-PVTZ
    Blend: AUG-CC-PVTZ
  Basis Set: (AUG-CC-PVTZ AUX)
    Blend: AUG-CC-PVTZ-JKFIT

    Orbital Energies [Eh]
    ---------------------

    Doubly Occupied:

       1A    -20.542275     2A    -15.560992     3A    -11.342199
       4A    -11.299189     5A    -11.254443     6A    -11.253838
       7A    -11.252900     8A    -11.251744     9A    -11.250470
      10A    -11.248400    11A    -11.246077    12A    -11.244666
      13A    -11.242122    14A    -11.232451    15A    -11.229745
      16A     -1.374900    17A     -1.228948    18A     -1.164632
      19A     -1.138701    20A     -1.057639    21A     -1.026760
      22A     -1.021295    23A     -0.997770    24A     -0.893552
      25A     -0.849430    26A     -0.839351    27A     -0.820848
      28A     -0.769644    29A     -0.719578    30A     -0.707684
      31A     -0.682316    32A     -0.672211    33A     -0.648038
      34A     -0.634374    35A     -0.618537    36A     -0.610792
      37A     -0.603082    38A     -0.597437    39A     -0.585572
      40A     -0.554783    41A     -0.535071    42A     -0.527146
      43A     -0.519412    44A     -0.510657    45A     -0.502570
      46A     -0.491469    47A     -0.453749    48A     -0.421920
      49A     -0.352050    50A     -0.346684    51A     -0.344790
      52A     -0.301733

  @DF-RHF Final Energy:  -628.22275414625074

   => Energetics <=

    Nuclear Repulsion Energy =            892.7672419843453326
    One-Electron Energy =               -2624.8267195437761075
    Two-Electron Energy =                1103.8367234131801524
    Total Energy =                       -628.2227541462507361
  Basis Set: (AUG-CC-PVTZ AUX)
    Blend: AUG-CC-PVTZ-RI
    Molecular point group: c1

    Geometry (in Angstrom), charge = 0, multiplicity = 1:

       Center              X                  Y                   Z               Mass
    ------------   -----------------  -----------------  -----------------  -----------------
         O           -0.043919636346     2.167939676338    -0.305853980479    15.994914619570
         N            2.525005063654     1.906488576338     0.761356919521    14.003074004430
         C            1.113914363654     0.086334676338    -0.139900980479    12.000000000000
         C           -1.443848636346     0.289022676338    -0.037261980479    12.000000000000
         C           -0.102780636346     0.933767676338    -0.171263980479    12.000000000000
         C            2.366144363654     0.625594676338     0.255938019521    12.000000000000
         C            1.051942363654    -1.237977323662    -0.614045980479    12.000000000000
         C            3.485954363654    -0.226063323662     0.259395019521    12.000000000000
         C           -1.658071636346    -0.810054323662     0.808113019521    12.000000000000
         C           -2.527062636346     0.872785676338    -0.709417980479    12.000000000000
         C            2.179021363654    -2.049750323662    -0.645046980479    12.000000000000
         C            3.401137363654    -1.533790323662    -0.201732980479    12.000000000000
         C           -2.946246636346    -1.322975323662     0.966430019521    12.000000000000
         C           -3.806621636346     0.341434676338    -0.564887980479    12.000000000000
         C           -4.019172636346    -0.757089323662     0.273827019521    12.000000000000
         H            0.100276363654    -1.623064323662    -0.969767980479     1.007825032230
         H            4.444187363654     0.171561676338     0.590577019521     1.007825032230
         H           -0.825193636346    -1.242178323662     1.356733019521     1.007825032230
         H           -2.347103636346     1.741829676338    -1.336961980479     1.007825032230
         H            2.113038363654    -3.065204323662    -1.025758980479     1.007825032230
         H            4.292662363654    -2.157134323662    -0.205957980479     1.007825032230
         H           -3.113096636346    -2.165696323662     1.633112019521     1.007825032230
         H           -4.641992636346     0.786781676338    -1.099938980479     1.007825032230
         H           -5.019743636346    -1.166248323662     0.392273019521     1.007825032230
         H            1.786223363654     2.557852676338     0.380776019521     1.007825032230
         H            3.422030363654     2.284251676338     0.750313019521     1.007825032230

  Basis Set: AUG-CC-PVTZ
    Blend: AUG-CC-PVTZ
  Basis Set: (AUG-CC-PVTZ AUX)
    Blend: AUG-CC-PVTZ-JKFIT
	 Reference Energy          =    -628.2227541462507361 [Eh]
	 Singles Energy            =      -0.0000000000000000 [Eh]
	 Same-Spin Energy          =      -0.6916005496964357 [Eh]
	 Opposite-Spin Energy      =      -2.1096795163624611 [Eh]
	 Correlation Energy        =      -2.8012800660588968 [Eh]
	 Total Energy              =    -631.0240342123096298 [Eh]

	 ================> DF-SCS-MP2 Energies <==================
	-----------------------------------------------------------
	 SCS Same-Spin Scale       =       0.3333333333333333 [-]
	 SCS Opposite-Spin Scale   =       1.2000000000000000 [-]
	 SCS Same-Spin Energy      =      -0.2305335165654785 [Eh]
	 SCS Opposite-Spin Energy  =      -2.5316154196349534 [Eh]
	 SCS Correlation Energy    =      -2.7621489362004321 [Eh]
	 SCS Total Energy          =    -630.9849030824511829 [Eh]
	-----------------------------------------------------------

  Dipole Moment: [D]
     X:     0.2866      Y:    -1.6335      Z:    -0.1157     Total:     1.6625

*** Psi4 exiting successfully. Buy a developer a beer!
