                               Psi4 1.3.2 release

  ==> Input File <==

--------------------------------------------------------------------------
#psi4
#
memory 32 gb

molecule  {
0 1
  O       -0.0417540     2.1858230    -0.3073980
  N        2.4805920     1.9330880     0.7500480
  C        1.1160800     0.1042180    -0.1414450
  C       -1.4416830     0.3069060    -0.0388060
  C       -0.1006150     0.9516510    -0.1728080
  C        2.3683100     0.6434780     0.2543940
  C        1.0541080    -1.2200940    -0.6155900
  C        3.4881200    -0.2081800     0.2578510
  C       -1.7510802    -0.7864493     0.7842178
  C       -2.5248970     0.8906690    -0.7109620
  C        2.1811870    -2.0318670    -0.6465910
  C        3.4033030    -1.5159070    -0.2032770
  C       -2.9440810    -1.3050920     0.9648860
  C       -3.8044560     0.3593180    -0.5664320
  C       -4.0170070    -0.7392060     0.2722830
  H        0.1024420    -1.6051810    -0.9713120
  H        4.4463530     0.1894450     0.5890330
  H       -0.8230280    -1.2242950     1.3551890
  H       -2.3449380     1.7597130    -1.3385060
  H        2.1152040    -3.0473210    -1.0273030
  H        4.2948280    -2.1392510    -0.2075020
  H       -3.1109310    -2.1478130     1.6315680
  H       -4.6398270     0.8046650    -1.1014830
  H       -5.0175780    -1.1483650     0.3907290
  H        1.7883890     2.5757360     0.3792320
  H        3.4241960     2.3021350     0.7487690
units angstrom
no_reorient  #important for SAPT in psi4, default
symmetry c1  #important for SAPT in psi4, default
}

set PROPERTIES_ORIGIN ["COM"]
properties('MP2/aug-cc-pvtz', properties = ['dipole'])
--------------------------------------------------------------------------

    Molecular point group: c1
  Charge       = 0
  Multiplicity = 1
  Basis Set: AUG-CC-PVTZ
    Blend: AUG-CC-PVTZ
  Basis Set: (AUG-CC-PVTZ AUX)
    Blend: AUG-CC-PVTZ-JKFIT

    Orbital Energies [Eh]
    ---------------------

    Doubly Occupied:

       1A    -20.542758     2A    -15.561971     3A    -11.344065
       4A    -11.298972     5A    -11.254399     6A    -11.254281
       7A    -11.252405     8A    -11.249773     9A    -11.249099
      10A    -11.248067    11A    -11.242847    12A    -11.241187
      13A    -11.235652    14A    -11.233416    15A    -11.229666
      16A     -1.375392    17A     -1.228573    18A     -1.172987
      19A     -1.138836    20A     -1.056744    21A     -1.035604
      22A     -1.020397    23A     -0.997673    24A     -0.895521
      25A     -0.850617    26A     -0.832303    27A     -0.820950
      28A     -0.774099    29A     -0.717721    30A     -0.701873
      31A     -0.688721    32A     -0.671631    33A     -0.645675
      34A     -0.636336    35A     -0.618675    36A     -0.609376
      37A     -0.604705    38A     -0.591451    39A     -0.587697
      40A     -0.554562    41A     -0.536140    42A     -0.529658
      43A     -0.523760    44A     -0.510986    45A     -0.496000
      46A     -0.482819    47A     -0.453505    48A     -0.424513
      49A     -0.356250    50A     -0.349544    51A     -0.343603
      52A     -0.301983

  @DF-RHF Final Energy:  -628.21401185100046

   => Energetics <=

    Nuclear Repulsion Energy =            893.7225011228199492
    One-Electron Energy =               -2626.7221488987056546
    Two-Electron Energy =                1104.7856359248853551
    Total Energy =                       -628.2140118510003504
  Basis Set: (AUG-CC-PVTZ AUX)
    Blend: AUG-CC-PVTZ-RI
    Molecular point group: c1

    Geometry (in Angstrom), charge = 0, multiplicity = 1:

       Center              X                  Y                   Z               Mass
    ------------   -----------------  -----------------  -----------------  -----------------
         O           -0.034815219952     2.166972005033    -0.303799258199    15.994914619570
         N            2.487530780048     1.914237005033     0.753646741801    14.003074004430
         C            1.123018780048     0.085367005033    -0.137846258199    12.000000000000
         C           -1.434744219952     0.288055005033    -0.035207258199    12.000000000000
         C           -0.093676219952     0.932800005033    -0.169209258199    12.000000000000
         C            2.375248780048     0.624627005033     0.257992741801    12.000000000000
         C            1.061046780048    -1.238944994967    -0.611991258199    12.000000000000
         C            3.495058780048    -0.227030994967     0.261449741801    12.000000000000
         C           -1.744141419952    -0.805300294967     0.787816541801    12.000000000000
         C           -2.517958219952     0.871818005033    -0.707363258199    12.000000000000
         C            2.188125780048    -2.050717994967    -0.642992258199    12.000000000000
         C            3.410241780048    -1.534757994967    -0.199678258199    12.000000000000
         C           -2.937142219952    -1.323942994967     0.968484741801    12.000000000000
         C           -3.797517219952     0.340467005033    -0.562833258199    12.000000000000
         C           -4.010068219952    -0.758056994967     0.275881741801    12.000000000000
         H            0.109380780048    -1.624031994967    -0.967713258199     1.007825032230
         H            4.453291780048     0.170594005033     0.592631741801     1.007825032230
         H           -0.816089219952    -1.243145994967     1.358787741801     1.007825032230
         H           -2.337999219952     1.740862005033    -1.334907258199     1.007825032230
         H            2.122142780048    -3.066171994967    -1.023704258199     1.007825032230
         H            4.301766780048    -2.158101994967    -0.203903258199     1.007825032230
         H           -3.103992219952    -2.166663994967     1.635166741801     1.007825032230
         H           -4.632888219952     0.785814005033    -1.097884258199     1.007825032230
         H           -5.010639219952    -1.167215994967     0.394327741801     1.007825032230
         H            1.795327780048     2.556885005033     0.382830741801     1.007825032230
         H            3.431134780048     2.283284005033     0.752367741801     1.007825032230

  Basis Set: AUG-CC-PVTZ
    Blend: AUG-CC-PVTZ
  Basis Set: (AUG-CC-PVTZ AUX)
    Blend: AUG-CC-PVTZ-JKFIT
	 Reference Energy          =    -628.2140118510004640 [Eh]
	 Singles Energy            =      -0.0000000000000000 [Eh]
	 Same-Spin Energy          =      -0.6916943028967848 [Eh]
	 Opposite-Spin Energy      =      -2.1097498290127179 [Eh]
	 Correlation Energy        =      -2.8014441319095029 [Eh]
	 Total Energy              =    -631.0154559829099981 [Eh]

	 ================> DF-SCS-MP2 Energies <==================
	-----------------------------------------------------------
	 SCS Same-Spin Scale       =       0.3333333333333333 [-]
	 SCS Opposite-Spin Scale   =       1.2000000000000000 [-]
	 SCS Same-Spin Energy      =      -0.2305647676322616 [Eh]
	 SCS Opposite-Spin Energy  =      -2.5316997948152613 [Eh]
	 SCS Correlation Energy    =      -2.7622645624475228 [Eh]
	 SCS Total Energy          =    -630.9762764134479767 [Eh]
	-----------------------------------------------------------

  Dipole Moment: [D]
     X:     0.3552      Y:    -1.6125      Z:    -0.1285     Total:     1.6562

*** Psi4 exiting successfully. Buy a developer a beer!
