                               Psi4 1.3.2 release

  ==> Input File <==

--------------------------------------------------------------------------
#psi4
#
memory 32 gb

molecule  {
0 1
  O       -0.0417540     2.1858230    -0.3073980
  N        2.4805920     1.9330880     0.7500480
  C        1.1160800     0.1042180    -0.1414450
  C       -1.4416830     0.3069060    -0.0388060
  C       -0.0731139     0.9903202    -0.1521174
  C        2.3683100     0.6434780     0.2543940
  C        1.0541080    -1.2200940    -0.6155900
  C        3.4881200    -0.2081800     0.2578510
  C       -1.6559060    -0.7921710     0.8065690
  C       -2.5248970     0.8906690    -0.7109620
  C        2.1811870    -2.0318670    -0.6465910
  C        3.4033030    -1.5159070    -0.2032770
  C       -2.9440810    -1.3050920     0.9648860
  C       -3.8044560     0.3593180    -0.5664320
  C       -4.0170070    -0.7392060     0.2722830
  H        0.1024420    -1.6051810    -0.9713120
  H        4.4463530     0.1894450     0.5890330
  H       -0.8230280    -1.2242950     1.3551890
  H       -2.3449380     1.7597130    -1.3385060
  H        2.1152040    -3.0473210    -1.0273030
  H        4.2948280    -2.1392510    -0.2075020
  H       -3.1109310    -2.1478130     1.6315680
  H       -4.6398270     0.8046650    -1.1014830
  H       -5.0175780    -1.1483650     0.3907290
  H        1.7883890     2.5757360     0.3792320
  H        3.4241960     2.3021350     0.7487690
units angstrom
no_reorient  #important for SAPT in psi4, default
symmetry c1  #important for SAPT in psi4, default
}

set PROPERTIES_ORIGIN ["COM"]
properties('MP2/aug-cc-pvtz', properties = ['dipole'])
--------------------------------------------------------------------------

    Molecular point group: c1
  Charge       = 0
  Multiplicity = 1
  Basis Set: AUG-CC-PVTZ
    Blend: AUG-CC-PVTZ
  Basis Set: (AUG-CC-PVTZ AUX)
    Blend: AUG-CC-PVTZ-JKFIT

    Orbital Energies [Eh]
    ---------------------

    Doubly Occupied:

       1A    -20.547001     2A    -15.563364     3A    -11.340945
       4A    -11.298341     5A    -11.254901     6A    -11.254488
       7A    -11.249648     8A    -11.248537     9A    -11.248434
      10A    -11.245313    11A    -11.243842    12A    -11.242578
      13A    -11.240607    14A    -11.233590    15A    -11.230349
      16A     -1.400938    17A     -1.230252    18A     -1.161016
      19A     -1.138642    20A     -1.054094    21A     -1.023595
      22A     -1.018896    23A     -0.998394    24A     -0.889524
      25A     -0.847960    26A     -0.836506    27A     -0.818626
      28A     -0.769751    29A     -0.717846    30A     -0.702581
      31A     -0.690424    32A     -0.671759    33A     -0.649786
      34A     -0.633723    35A     -0.616646    36A     -0.611992
      37A     -0.605469    38A     -0.595371    39A     -0.592385
      40A     -0.560382    41A     -0.538737    42A     -0.527645
      43A     -0.519224    44A     -0.510105    45A     -0.500544
      46A     -0.496245    47A     -0.454965    48A     -0.417519
      49A     -0.352104    50A     -0.344603    51A     -0.342685
      52A     -0.302804

  @DF-RHF Final Energy:  -628.22704519449894

   => Energetics <=

    Nuclear Repulsion Energy =            893.2569645196114152
    One-Electron Energy =               -2625.7966675798638789
    Two-Electron Energy =                1104.3126578657536356
    Total Energy =                       -628.2270451944989418
  Basis Set: (AUG-CC-PVTZ AUX)
    Blend: AUG-CC-PVTZ-RI
    Molecular point group: c1

    Geometry (in Angstrom), charge = 0, multiplicity = 1:

       Center              X                  Y                   Z               Mass
    ------------   -----------------  -----------------  -----------------  -----------------
         O           -0.042284639703     2.164965906762    -0.306419975418    15.994914619570
         N            2.480061360297     1.912230906762     0.751026024582    14.003074004430
         C            1.115549360297     0.083360906762    -0.140466975418    12.000000000000
         C           -1.442213639703     0.286048906762    -0.037827975418    12.000000000000
         C           -0.073644539703     0.969463106762    -0.151139375418    12.000000000000
         C            2.367779360297     0.622620906762     0.255372024582    12.000000000000
         C            1.053577360297    -1.240951093238    -0.614611975418    12.000000000000
         C            3.487589360297    -0.229037093238     0.258829024582    12.000000000000
         C           -1.656436639703    -0.813028093238     0.807547024582    12.000000000000
         C           -2.525427639703     0.869811906762    -0.709983975418    12.000000000000
         C            2.180656360297    -2.052724093238    -0.645612975418    12.000000000000
         C            3.402772360297    -1.536764093238    -0.202298975418    12.000000000000
         C           -2.944611639703    -1.325949093238     0.965864024582    12.000000000000
         C           -3.804986639703     0.338460906762    -0.565453975418    12.000000000000
         C           -4.017537639703    -0.760063093238     0.273261024582    12.000000000000
         H            0.101911360297    -1.626038093238    -0.970333975418     1.007825032230
         H            4.445822360297     0.168587906762     0.590011024582     1.007825032230
         H           -0.823558639703    -1.245152093238     1.356167024582     1.007825032230
         H           -2.345468639703     1.738855906762    -1.337527975418     1.007825032230
         H            2.114673360297    -3.068178093238    -1.026324975418     1.007825032230
         H            4.294297360297    -2.160108093238    -0.206523975418     1.007825032230
         H           -3.111461639703    -2.168670093238     1.632546024582     1.007825032230
         H           -4.640357639703     0.783807906762    -1.100504975418     1.007825032230
         H           -5.018108639703    -1.169222093238     0.391707024582     1.007825032230
         H            1.787858360297     2.554878906762     0.380210024582     1.007825032230
         H            3.423665360297     2.281277906762     0.749747024582     1.007825032230

  Basis Set: AUG-CC-PVTZ
    Blend: AUG-CC-PVTZ
  Basis Set: (AUG-CC-PVTZ AUX)
    Blend: AUG-CC-PVTZ-JKFIT
	 Reference Energy          =    -628.2270451944989418 [Eh]
	 Singles Energy            =      -0.0000000000000000 [Eh]
	 Same-Spin Energy          =      -0.6904733393598893 [Eh]
	 Opposite-Spin Energy      =      -2.1074548863618245 [Eh]
	 Correlation Energy        =      -2.7979282257217140 [Eh]
	 Total Energy              =    -631.0249734202207037 [Eh]

	 ================> DF-SCS-MP2 Energies <==================
	-----------------------------------------------------------
	 SCS Same-Spin Scale       =       0.3333333333333333 [-]
	 SCS Opposite-Spin Scale   =       1.2000000000000000 [-]
	 SCS Same-Spin Energy      =      -0.2301577797866298 [Eh]
	 SCS Opposite-Spin Energy  =      -2.5289458636341893 [Eh]
	 SCS Correlation Energy    =      -2.7591036434208189 [Eh]
	 SCS Total Energy          =    -630.9861488379198136 [Eh]
	-----------------------------------------------------------

  Dipole Moment: [D]
     X:     0.5619      Y:    -1.4618      Z:    -0.1219     Total:     1.5708

*** Psi4 exiting successfully. Buy a developer a beer!
