                               Psi4 1.3.2 release

  ==> Input File <==

--------------------------------------------------------------------------
#psi4
#
memory 32 gb

molecule  {
0 1
  O       -0.0417540     2.1858230    -0.3073980
  N        2.4805920     1.9330880     0.7500480
  C        1.1160800     0.1042180    -0.1414450
  C       -1.3466446     0.3017530    -0.0157499
  C       -0.1006150     0.9516510    -0.1728080
  C        2.3683100     0.6434780     0.2543940
  C        1.0541080    -1.2200940    -0.6155900
  C        3.4881200    -0.2081800     0.2578510
  C       -1.6559060    -0.7921710     0.8065690
  C       -2.5248970     0.8906690    -0.7109620
  C        2.1811870    -2.0318670    -0.6465910
  C        3.4033030    -1.5159070    -0.2032770
  C       -2.9440810    -1.3050920     0.9648860
  C       -3.8044560     0.3593180    -0.5664320
  C       -4.0170070    -0.7392060     0.2722830
  H        0.1024420    -1.6051810    -0.9713120
  H        4.4463530     0.1894450     0.5890330
  H       -0.8230280    -1.2242950     1.3551890
  H       -2.3449380     1.7597130    -1.3385060
  H        2.1152040    -3.0473210    -1.0273030
  H        4.2948280    -2.1392510    -0.2075020
  H       -3.1109310    -2.1478130     1.6315680
  H       -4.6398270     0.8046650    -1.1014830
  H       -5.0175780    -1.1483650     0.3907290
  H        1.7883890     2.5757360     0.3792320
  H        3.4241960     2.3021350     0.7487690
units angstrom
no_reorient  #important for SAPT in psi4, default
symmetry c1  #important for SAPT in psi4, default
}

set PROPERTIES_ORIGIN ["COM"]
properties('MP2/aug-cc-pvtz', properties = ['dipole'])
--------------------------------------------------------------------------

    Molecular point group: c1
  Charge       = 0
  Multiplicity = 1
  Basis Set: AUG-CC-PVTZ
    Blend: AUG-CC-PVTZ
  Basis Set: (AUG-CC-PVTZ AUX)
    Blend: AUG-CC-PVTZ-JKFIT

    Orbital Energies [Eh]
    ---------------------

    Doubly Occupied:

       1A    -20.538688     2A    -15.560720     3A    -11.335821
       4A    -11.297356     5A    -11.260285     6A    -11.258251
       7A    -11.257412     8A    -11.253307     9A    -11.252900
      10A    -11.252550    11A    -11.247557    12A    -11.245660
      13A    -11.238831    14A    -11.232428    15A    -11.228798
      16A     -1.374038    17A     -1.227295    18A     -1.160865
      19A     -1.137424    20A     -1.065432    21A     -1.022976
      22A     -1.020788    23A     -0.996458    24A     -0.903836
      25A     -0.851034    26A     -0.835830    27A     -0.820488
      28A     -0.770187    29A     -0.717986    30A     -0.702338
      31A     -0.687777    32A     -0.676147    33A     -0.650190
      34A     -0.633567    35A     -0.617954    36A     -0.610460
      37A     -0.603891    38A     -0.592497    39A     -0.586792
      40A     -0.554442    41A     -0.535567    42A     -0.530784
      43A     -0.520805    44A     -0.509125    45A     -0.494076
      46A     -0.485027    47A     -0.452958    48A     -0.425221
      49A     -0.353990    50A     -0.348272    51A     -0.338368
      52A     -0.300748

  @DF-RHF Final Energy:  -628.21244732612172

   => Energetics <=

    Nuclear Repulsion Energy =            893.6181999374688303
    One-Electron Energy =               -2626.5089043563607447
    Two-Electron Energy =                1104.6782570927700817
    Total Energy =                       -628.2124473261217190
  Basis Set: (AUG-CC-PVTZ AUX)
    Blend: AUG-CC-PVTZ-RI
    Molecular point group: c1

    Geometry (in Angstrom), charge = 0, multiplicity = 1:

       Center              X                  Y                   Z               Mass
    ------------   -----------------  -----------------  -----------------  -----------------
         O           -0.046396832153     2.167634140761    -0.306564005328    15.994914619570
         N            2.475949167847     1.914899140761     0.750881994672    14.003074004430
         C            1.111437167847     0.086029140761    -0.140611005328    12.000000000000
         C           -1.351287432153     0.283564140761    -0.014915905328    12.000000000000
         C           -0.105257832153     0.933462140761    -0.171974005328    12.000000000000
         C            2.363667167847     0.625289140761     0.255227994672    12.000000000000
         C            1.049465167847    -1.238282859239    -0.614756005328    12.000000000000
         C            3.483477167847    -0.226368859239     0.258684994672    12.000000000000
         C           -1.660548832153    -0.810359859239     0.807402994672    12.000000000000
         C           -2.529539832153     0.872480140761    -0.710128005328    12.000000000000
         C            2.176544167847    -2.050055859239    -0.645757005328    12.000000000000
         C            3.398660167847    -1.534095859239    -0.202443005328    12.000000000000
         C           -2.948723832153    -1.323280859239     0.965719994672    12.000000000000
         C           -3.809098832153     0.341129140761    -0.565598005328    12.000000000000
         C           -4.021649832153    -0.757394859239     0.273116994672    12.000000000000
         H            0.097799167847    -1.623369859239    -0.970478005328     1.007825032230
         H            4.441710167847     0.171256140761     0.589866994672     1.007825032230
         H           -0.827670832153    -1.242483859239     1.356022994672     1.007825032230
         H           -2.349580832153     1.741524140761    -1.337672005328     1.007825032230
         H            2.110561167847    -3.065509859239    -1.026469005328     1.007825032230
         H            4.290185167847    -2.157439859239    -0.206668005328     1.007825032230
         H           -3.115573832153    -2.166001859239     1.632401994672     1.007825032230
         H           -4.644469832153     0.786476140761    -1.100649005328     1.007825032230
         H           -5.022220832153    -1.166553859239     0.391562994672     1.007825032230
         H            1.783746167847     2.557547140761     0.380065994672     1.007825032230
         H            3.419553167847     2.283946140761     0.749602994672     1.007825032230

  Basis Set: AUG-CC-PVTZ
    Blend: AUG-CC-PVTZ
  Basis Set: (AUG-CC-PVTZ AUX)
    Blend: AUG-CC-PVTZ-JKFIT
	 Reference Energy          =    -628.2124473261217190 [Eh]
	 Singles Energy            =      -0.0000000000000000 [Eh]
	 Same-Spin Energy          =      -0.6926519785903447 [Eh]
	 Opposite-Spin Energy      =      -2.1117705574051882 [Eh]
	 Correlation Energy        =      -2.8044225359955330 [Eh]
	 Total Energy              =    -631.0168698621172325 [Eh]

	 ================> DF-SCS-MP2 Energies <==================
	-----------------------------------------------------------
	 SCS Same-Spin Scale       =       0.3333333333333333 [-]
	 SCS Opposite-Spin Scale   =       1.2000000000000000 [-]
	 SCS Same-Spin Energy      =      -0.2308839928634482 [Eh]
	 SCS Opposite-Spin Energy  =      -2.5341246688862258 [Eh]
	 SCS Correlation Energy    =      -2.7650086617496741 [Eh]
	 SCS Total Energy          =    -630.9774559878713944 [Eh]
	-----------------------------------------------------------

  Dipole Moment: [D]
     X:     0.0954      Y:    -1.7186      Z:    -0.0740     Total:     1.7228

*** Psi4 exiting successfully. Buy a developer a beer!
