                               Psi4 1.4a3.dev225

  ==> Input File <==

--------------------------------------------------------------------------
#psi4
#
memory 32 gb

molecule  {
0 1
  O       -0.0417540     2.1858230    -0.3073980
  N        2.4805920     1.9330880     0.7500480
  C        1.1160800     0.1042180    -0.1414450
  C       -1.4416830     0.3069060    -0.0388060
  C       -0.1006150     0.9516510    -0.1728080
  C        2.3699301     0.6620853     0.2615456
  C        1.0541080    -1.2200940    -0.6155900
  C        3.4881200    -0.2081800     0.2578510
  C       -1.6559060    -0.7921710     0.8065690
  C       -2.5248970     0.8906690    -0.7109620
  C        2.1811870    -2.0318670    -0.6465910
  C        3.4033030    -1.5159070    -0.2032770
  C       -2.9440810    -1.3050920     0.9648860
  C       -3.8044560     0.3593180    -0.5664320
  C       -4.0170070    -0.7392060     0.2722830
  H        0.1024420    -1.6051810    -0.9713120
  H        4.4463530     0.1894450     0.5890330
  H       -0.8230280    -1.2242950     1.3551890
  H       -2.3449380     1.7597130    -1.3385060
  H        2.1152040    -3.0473210    -1.0273030
  H        4.2948280    -2.1392510    -0.2075020
  H       -3.1109310    -2.1478130     1.6315680
  H       -4.6398270     0.8046650    -1.1014830
  H       -5.0175780    -1.1483650     0.3907290
  H        1.7883890     2.5757360     0.3792320
  H        3.4241960     2.3021350     0.7487690
units angstrom
no_reorient  #important for SAPT in psi4, default
symmetry c1  #important for SAPT in psi4, default
}

set PROPERTIES_ORIGIN ["COM"]
properties('MP2/aug-cc-pvtz', properties = ['dipole'])
--------------------------------------------------------------------------

    Molecular point group: c1
  Charge       = 0
  Multiplicity = 1
  Basis Set: AUG-CC-PVTZ
    Blend: AUG-CC-PVTZ
  Basis Set: (AUG-CC-PVTZ AUX)
    Blend: AUG-CC-PVTZ-JKFIT

    Orbital Energies [Eh]
    ---------------------

    Doubly Occupied:

       1A    -20.540854     2A    -15.564949     3A    -11.340697
       4A    -11.300992     5A    -11.254128     6A    -11.253814
       7A    -11.252183     8A    -11.251135     9A    -11.249684
      10A    -11.247700    11A    -11.245503    12A    -11.244099
      13A    -11.240959    14A    -11.233588    15A    -11.228564
      16A     -1.373963    17A     -1.235892    18A     -1.163988
      19A     -1.138227    20A     -1.056544    21A     -1.026013
      22A     -1.020150    23A     -0.996199    24A     -0.892429
      25A     -0.848496    26A     -0.838407    27A     -0.820262
      28A     -0.770100    29A     -0.717573    30A     -0.704702
      31A     -0.691540    32A     -0.671674    33A     -0.647325
      34A     -0.634875    35A     -0.615346    36A     -0.611649
      37A     -0.603141    38A     -0.596817    39A     -0.587335
      40A     -0.555237    41A     -0.535933    42A     -0.526904
      43A     -0.519307    44A     -0.508173    45A     -0.501932
      46A     -0.491251    47A     -0.456487    48A     -0.420935
      49A     -0.351483    50A     -0.345991    51A     -0.344170
      52A     -0.299571

  @DF-RHF Final Energy:  -628.22547345053135

   => Energetics <=

    Nuclear Repulsion Energy =            893.0941705629396665
    One-Electron Energy =               -2625.5015464774578504
    Two-Electron Energy =                1104.1819024639867166
    Total Energy =                       -628.2254734505313536
  Basis Set: (AUG-CC-PVTZ AUX)
    Blend: AUG-CC-PVTZ-RI
    Molecular point group: c1

    Geometry (in Angstrom), charge = 0, multiplicity = 1:

       Center              X                  Y                   Z               Mass
    ------------   -----------------  -----------------  -----------------  -----------------
         O           -0.040708804530     2.166187430183    -0.305595616529    15.994914619570
         N            2.481637195470     1.913452430183     0.751850383471    14.003074004430
         C            1.117125195470     0.084582430183    -0.139642616529    12.000000000000
         C           -1.440637804530     0.287270430183    -0.037003616529    12.000000000000
         C           -0.099569804530     0.932015430183    -0.171005616529    12.000000000000
         C            2.370975295470     0.642449730183     0.263347983471    12.000000000000
         C            1.055153195470    -1.239729569817    -0.613787616529    12.000000000000
         C            3.489165195470    -0.227815569817     0.259653383471    12.000000000000
         C           -1.654860804530    -0.811806569817     0.808371383471    12.000000000000
         C           -2.523851804530     0.871033430183    -0.709159616529    12.000000000000
         C            2.182232195470    -2.051502569817    -0.644788616529    12.000000000000
         C            3.404348195470    -1.535542569817    -0.201474616529    12.000000000000
         C           -2.943035804530    -1.324727569817     0.966688383471    12.000000000000
         C           -3.803410804530     0.339682430183    -0.564629616529    12.000000000000
         C           -4.015961804530    -0.758841569817     0.274085383471    12.000000000000
         H            0.103487195470    -1.624816569817    -0.969509616529     1.007825032230
         H            4.447398195470     0.169809430183     0.590835383471     1.007825032230
         H           -0.821982804530    -1.243930569817     1.356991383471     1.007825032230
         H           -2.343892804530     1.740077430183    -1.336703616529     1.007825032230
         H            2.116249195470    -3.066956569817    -1.025500616529     1.007825032230
         H            4.295873195470    -2.158886569817    -0.205699616529     1.007825032230
         H           -3.109885804530    -2.167448569817     1.633370383471     1.007825032230
         H           -4.638781804530     0.785029430183    -1.099680616529     1.007825032230
         H           -5.016532804530    -1.168000569817     0.392531383471     1.007825032230
         H            1.789434195470     2.556100430183     0.381034383471     1.007825032230
         H            3.425241195470     2.282499430183     0.750571383471     1.007825032230

  Basis Set: AUG-CC-PVTZ
    Blend: AUG-CC-PVTZ
  Basis Set: (AUG-CC-PVTZ AUX)
    Blend: AUG-CC-PVTZ-JKFIT
	 Reference Energy          =    -628.2254734505313536 [Eh]
	 Singles Energy            =      -0.0000000000000000 [Eh]
	 Same-Spin Energy          =      -0.6916481162899600 [Eh]
	 Opposite-Spin Energy      =      -2.1095734894137834 [Eh]
	 Correlation Energy        =      -2.8012216057037436 [Eh]
	 Total Energy              =    -631.0266950562350985 [Eh]

	 ================> DF-SCS-MP2 Energies <==================
	-----------------------------------------------------------
	 SCS Same-Spin Scale       =       0.3333333333333333 [-]
	 SCS Opposite-Spin Scale   =       1.2000000000000000 [-]
	 SCS Same-Spin Energy      =      -0.2305493720966533 [Eh]
	 SCS Opposite-Spin Energy  =      -2.5314881872965400 [Eh]
	 SCS Correlation Energy    =      -2.7620375593931934 [Eh]
	 SCS Total Energy          =    -630.9875110099245603 [Eh]
	-----------------------------------------------------------

  Dipole Moment: [D]
     X:     0.4010      Y:    -1.5121      Z:    -0.0503     Total:     1.5652

*** Psi4 exiting successfully. Buy a developer a beer!
