                               Psi4 1.3.2 release

  ==> Input File <==

--------------------------------------------------------------------------
#psi4
#
memory 32 gb

molecule  {
0 1
  O       -0.0417540     2.1858230    -0.3073980
  N        2.4805920     1.9330880     0.7500480
  C        1.1160800     0.1042180    -0.1414450
  C       -1.3940043     0.3049979    -0.0277862
  C       -0.1006150     0.9516510    -0.1728080
  C        2.3683100     0.6434780     0.2543940
  C        1.0541080    -1.2200940    -0.6155900
  C        3.4881200    -0.2081800     0.2578510
  C       -1.6559060    -0.7921710     0.8065690
  C       -2.5248970     0.8906690    -0.7109620
  C        2.1811870    -2.0318670    -0.6465910
  C        3.4033030    -1.5159070    -0.2032770
  C       -2.9440810    -1.3050920     0.9648860
  C       -3.8044560     0.3593180    -0.5664320
  C       -4.0170070    -0.7392060     0.2722830
  H        0.1024420    -1.6051810    -0.9713120
  H        4.4463530     0.1894450     0.5890330
  H       -0.8230280    -1.2242950     1.3551890
  H       -2.3449380     1.7597130    -1.3385060
  H        2.1152040    -3.0473210    -1.0273030
  H        4.2948280    -2.1392510    -0.2075020
  H       -3.1109310    -2.1478130     1.6315680
  H       -4.6398270     0.8046650    -1.1014830
  H       -5.0175780    -1.1483650     0.3907290
  H        1.7883890     2.5757360     0.3792320
  H        3.4241960     2.3021350     0.7487690
units angstrom
no_reorient  #important for SAPT in psi4, default
symmetry c1  #important for SAPT in psi4, default
}

set PROPERTIES_ORIGIN ["COM"]
properties('MP2/aug-cc-pvtz', properties = ['dipole'])
--------------------------------------------------------------------------

    Molecular point group: c1
  Charge       = 0
  Multiplicity = 1
  Basis Set: AUG-CC-PVTZ
    Blend: AUG-CC-PVTZ
  Basis Set: (AUG-CC-PVTZ AUX)
    Blend: AUG-CC-PVTZ-JKFIT

    Orbital Energies [Eh]
    ---------------------

    Doubly Occupied:

       1A    -20.540278     2A    -15.561380     3A    -11.338985
       4A    -11.298260     5A    -11.255196     6A    -11.254447
       7A    -11.254303     8A    -11.253959     9A    -11.253612
      10A    -11.251309    11A    -11.246619    12A    -11.244995
      13A    -11.240070    14A    -11.233049    15A    -11.229363
      16A     -1.374362    17A     -1.227992    18A     -1.162232
      19A     -1.138033    20A     -1.061183    21A     -1.023661
      22A     -1.021790    23A     -0.997185    24A     -0.898334
      25A     -0.850394    26A     -0.837141    27A     -0.820346
      28A     -0.770434    29A     -0.718104    30A     -0.702239
      31A     -0.688258    32A     -0.673261    33A     -0.649045
      34A     -0.633986    35A     -0.616962    36A     -0.610720
      37A     -0.604277    38A     -0.594890    39A     -0.587323
      40A     -0.554726    41A     -0.535676    42A     -0.528291
      43A     -0.520480    44A     -0.509496    45A     -0.498067
      46A     -0.488805    47A     -0.453548    48A     -0.424239
      49A     -0.352540    50A     -0.347627    51A     -0.341383
      52A     -0.301486

  @DF-RHF Final Energy:  -628.22209325422159

   => Energetics <=

    Nuclear Repulsion Energy =            893.3922786981853505
    One-Electron Energy =               -2626.0800612225175428
    Two-Electron Energy =                1104.4656892701107154
    Total Energy =                       -628.2220932542215905
  Basis Set: (AUG-CC-PVTZ AUX)
    Blend: AUG-CC-PVTZ-RI
    Molecular point group: c1

    Geometry (in Angstrom), charge = 0, multiplicity = 1:

       Center              X                  Y                   Z               Mass
    ------------   -----------------  -----------------  -----------------  -----------------
         O           -0.043513207833     2.167436566186    -0.305831142421    15.994914619570
         N            2.478832792167     1.914701566186     0.751614857579    14.003074004430
         C            1.114320792167     0.085831566186    -0.139878142421    12.000000000000
         C           -1.395763507833     0.286611466186    -0.026219342421    12.000000000000
         C           -0.102374207833     0.933264566186    -0.171241142421    12.000000000000
         C            2.366550792167     0.625091566186     0.255960857579    12.000000000000
         C            1.052348792167    -1.238480433814    -0.614023142421    12.000000000000
         C            3.486360792167    -0.226566433814     0.259417857579    12.000000000000
         C           -1.657665207833    -0.810557433814     0.808135857579    12.000000000000
         C           -2.526656207833     0.872282566186    -0.709395142421    12.000000000000
         C            2.179427792167    -2.050253433814    -0.645024142421    12.000000000000
         C            3.401543792167    -1.534293433814    -0.201710142421    12.000000000000
         C           -2.945840207833    -1.323478433814     0.966452857579    12.000000000000
         C           -3.806215207833     0.340931566186    -0.564865142421    12.000000000000
         C           -4.018766207833    -0.757592433814     0.273849857579    12.000000000000
         H            0.100682792167    -1.623567433814    -0.969745142421     1.007825032230
         H            4.444593792167     0.171058566186     0.590599857579     1.007825032230
         H           -0.824787207833    -1.242681433814     1.356755857579     1.007825032230
         H           -2.346697207833     1.741326566186    -1.336939142421     1.007825032230
         H            2.113444792167    -3.065707433814    -1.025736142421     1.007825032230
         H            4.293068792167    -2.157637433814    -0.205935142421     1.007825032230
         H           -3.112690207833    -2.166199433814     1.633134857579     1.007825032230
         H           -4.641586207833     0.786278566186    -1.099916142421     1.007825032230
         H           -5.019337207833    -1.166751433814     0.392295857579     1.007825032230
         H            1.786629792167     2.557349566186     0.380798857579     1.007825032230
         H            3.422436792167     2.283748566186     0.750335857579     1.007825032230

  Basis Set: AUG-CC-PVTZ
    Blend: AUG-CC-PVTZ
  Basis Set: (AUG-CC-PVTZ AUX)
    Blend: AUG-CC-PVTZ-JKFIT
	 Reference Energy          =    -628.2220932542215905 [Eh]
	 Singles Energy            =      -0.0000000000000000 [Eh]
	 Same-Spin Energy          =      -0.6920203875143095 [Eh]
	 Opposite-Spin Energy      =      -2.1104813996690024 [Eh]
	 Correlation Energy        =      -2.8025017871833118 [Eh]
	 Total Energy              =    -631.0245950414049503 [Eh]

	 ================> DF-SCS-MP2 Energies <==================
	-----------------------------------------------------------
	 SCS Same-Spin Scale       =       0.3333333333333333 [-]
	 SCS Opposite-Spin Scale   =       1.2000000000000000 [-]
	 SCS Same-Spin Energy      =      -0.2306734625047698 [Eh]
	 SCS Opposite-Spin Energy  =      -2.5325776796028028 [Eh]
	 SCS Correlation Energy    =      -2.7632511421075727 [Eh]
	 SCS Total Energy          =    -630.9853443963291966 [Eh]
	-----------------------------------------------------------

  Dipole Moment: [D]
     X:     0.2275      Y:    -1.6758      Z:    -0.0883     Total:     1.6935

*** Psi4 exiting successfully. Buy a developer a beer!
