                               Psi4 1.3.2 release

  ==> Input File <==

--------------------------------------------------------------------------
#psi4
#
memory 32 gb

molecule  {
0 1
  O       -0.0417540     2.1858230    -0.3073980
  N        2.4805920     1.9330880     0.7500480
  C        1.1160800     0.1042180    -0.1414450
  C       -1.4416830     0.3069060    -0.0388060
  C       -0.1006150     0.9516510    -0.1728080
  C        2.3683100     0.6434780     0.2543940
  C        1.0541080    -1.2200940    -0.6155900
  C        3.4881200    -0.2081800     0.2578510
  C       -1.5596882    -0.7925381     0.8248016
  C       -2.5248970     0.8906690    -0.7109620
  C        2.1811870    -2.0318670    -0.6465910
  C        3.4033030    -1.5159070    -0.2032770
  C       -2.9440810    -1.3050920     0.9648860
  C       -3.8044560     0.3593180    -0.5664320
  C       -4.0170070    -0.7392060     0.2722830
  H        0.1024420    -1.6051810    -0.9713120
  H        4.4463530     0.1894450     0.5890330
  H       -0.8230280    -1.2242950     1.3551890
  H       -2.3449380     1.7597130    -1.3385060
  H        2.1152040    -3.0473210    -1.0273030
  H        4.2948280    -2.1392510    -0.2075020
  H       -3.1109310    -2.1478130     1.6315680
  H       -4.6398270     0.8046650    -1.1014830
  H       -5.0175780    -1.1483650     0.3907290
  H        1.7883890     2.5757360     0.3792320
  H        3.4241960     2.3021350     0.7487690
units angstrom
no_reorient  #important for SAPT in psi4, default
symmetry c1  #important for SAPT in psi4, default
}

set PROPERTIES_ORIGIN ["COM"]
properties('MP2/aug-cc-pvtz', properties = ['dipole'])
--------------------------------------------------------------------------

    Molecular point group: c1
  Charge       = 0
  Multiplicity = 1
  Basis Set: AUG-CC-PVTZ
    Blend: AUG-CC-PVTZ
  Basis Set: (AUG-CC-PVTZ AUX)
    Blend: AUG-CC-PVTZ-JKFIT

    Orbital Energies [Eh]
    ---------------------

    Doubly Occupied:

       1A    -20.540181     2A    -15.561747     3A    -11.339145
       4A    -11.298943     5A    -11.256476     6A    -11.255474
       7A    -11.254472     8A    -11.254022     9A    -11.252974
      10A    -11.250832    11A    -11.248066    12A    -11.246337
      13A    -11.241025    14A    -11.233581    15A    -11.229852
      16A     -1.373305    17A     -1.228430    18A     -1.158622
      19A     -1.138056    20A     -1.059556    21A     -1.023474
      22A     -1.017182    23A     -0.997764    24A     -0.891426
      25A     -0.851748    26A     -0.843668    27A     -0.818994
      28A     -0.767872    29A     -0.720355    30A     -0.703720
      31A     -0.688475    32A     -0.672426    33A     -0.654062
      34A     -0.632882    35A     -0.619517    36A     -0.611665
      37A     -0.604683    38A     -0.593974    39A     -0.586832
      40A     -0.554350    41A     -0.535594    42A     -0.526196
      43A     -0.517526    44A     -0.510136    45A     -0.505535
      46A     -0.488329    47A     -0.454071    48A     -0.418731
      49A     -0.352711    50A     -0.348710    51A     -0.336820
      52A     -0.302057

  @DF-RHF Final Energy:  -628.21213920366245

   => Energetics <=

    Nuclear Repulsion Energy =            892.8860730922580160
    One-Electron Energy =               -2625.0512614698882317
    Two-Electron Energy =                1103.9530491739678837
    Total Energy =                       -628.2121392036624457
  Basis Set: (AUG-CC-PVTZ AUX)
    Blend: AUG-CC-PVTZ-RI
    Molecular point group: c1

    Geometry (in Angstrom), charge = 0, multiplicity = 1:

       Center              X                  Y                   Z               Mass
    ------------   -----------------  -----------------  -----------------  -----------------
         O           -0.046468643134     2.167342738204    -0.306270313393    15.994914619570
         N            2.475877356866     1.914607738204     0.751175686607    14.003074004430
         C            1.111365356866     0.085737738204    -0.140317313393    12.000000000000
         C           -1.446397643134     0.288425738204    -0.037678313393    12.000000000000
         C           -0.105329643134     0.933170738204    -0.171680313393    12.000000000000
         C            2.363595356866     0.624997738204     0.255521686607    12.000000000000
         C            1.049393356866    -1.238574261796    -0.614462313393    12.000000000000
         C            3.483405356866    -0.226660261796     0.258978686607    12.000000000000
         C           -1.564402843134    -0.811018361796     0.825929286607    12.000000000000
         C           -2.529611643134     0.872188738204    -0.709834313393    12.000000000000
         C            2.176472356866    -2.050347261796    -0.645463313393    12.000000000000
         C            3.398588356866    -1.534387261796    -0.202149313393    12.000000000000
         C           -2.948795643134    -1.323572261796     0.966013686607    12.000000000000
         C           -3.809170643134     0.340837738204    -0.565304313393    12.000000000000
         C           -4.021721643134    -0.757686261796     0.273410686607    12.000000000000
         H            0.097727356866    -1.623661261796    -0.970184313393     1.007825032230
         H            4.441638356866     0.170964738204     0.590160686607     1.007825032230
         H           -0.827742643134    -1.242775261796     1.356316686607     1.007825032230
         H           -2.349652643134     1.741232738204    -1.337378313393     1.007825032230
         H            2.110489356866    -3.065801261796    -1.026175313393     1.007825032230
         H            4.290113356866    -2.157731261796    -0.206374313393     1.007825032230
         H           -3.115645643134    -2.166293261796     1.632695686607     1.007825032230
         H           -4.644541643134     0.786184738204    -1.100355313393     1.007825032230
         H           -5.022292643134    -1.166845261796     0.391856686607     1.007825032230
         H            1.783674356866     2.557255738204     0.380359686607     1.007825032230
         H            3.419481356866     2.283654738204     0.749896686607     1.007825032230

  Basis Set: AUG-CC-PVTZ
    Blend: AUG-CC-PVTZ
  Basis Set: (AUG-CC-PVTZ AUX)
    Blend: AUG-CC-PVTZ-JKFIT
	 Reference Energy          =    -628.2121392036624457 [Eh]
	 Singles Energy            =      -0.0000000000000000 [Eh]
	 Same-Spin Energy          =      -0.6917418396459114 [Eh]
	 Opposite-Spin Energy      =      -2.1108932891027146 [Eh]
	 Correlation Energy        =      -2.8026351287486260 [Eh]
	 Total Energy              =    -631.0147743324110934 [Eh]

	 ================> DF-SCS-MP2 Energies <==================
	-----------------------------------------------------------
	 SCS Same-Spin Scale       =       0.3333333333333333 [-]
	 SCS Opposite-Spin Scale   =       1.2000000000000000 [-]
	 SCS Same-Spin Energy      =      -0.2305806132153038 [Eh]
	 SCS Opposite-Spin Energy  =      -2.5330719469232572 [Eh]
	 SCS Correlation Energy    =      -2.7636525601385609 [Eh]
	 SCS Total Energy          =    -630.9757917638009985 [Eh]
	-----------------------------------------------------------

  Dipole Moment: [D]
     X:     0.3219      Y:    -1.6435      Z:    -0.0979     Total:     1.6776

*** Psi4 exiting successfully. Buy a developer a beer!
