                               Psi4 1.3.2 release

  ==> Input File <==

--------------------------------------------------------------------------
#psi4
#
memory 32 gb

molecule  {
0 1
  O       -0.0417540     2.1858230    -0.3073980
  N        2.4805920     1.9330880     0.7500480
  C        1.1160800     0.1042180    -0.1414450
  C       -1.4416830     0.3069060    -0.0388060
  C       -0.1006150     0.9516510    -0.1728080
  C        2.4565134     0.6814619     0.2822757
  C        1.0541080    -1.2200940    -0.6155900
  C        3.4881200    -0.2081800     0.2578510
  C       -1.6559060    -0.7921710     0.8065690
  C       -2.5248970     0.8906690    -0.7109620
  C        2.1811870    -2.0318670    -0.6465910
  C        3.4033030    -1.5159070    -0.2032770
  C       -2.9440810    -1.3050920     0.9648860
  C       -3.8044560     0.3593180    -0.5664320
  C       -4.0170070    -0.7392060     0.2722830
  H        0.1024420    -1.6051810    -0.9713120
  H        4.4463530     0.1894450     0.5890330
  H       -0.8230280    -1.2242950     1.3551890
  H       -2.3449380     1.7597130    -1.3385060
  H        2.1152040    -3.0473210    -1.0273030
  H        4.2948280    -2.1392510    -0.2075020
  H       -3.1109310    -2.1478130     1.6315680
  H       -4.6398270     0.8046650    -1.1014830
  H       -5.0175780    -1.1483650     0.3907290
  H        1.7883890     2.5757360     0.3792320
  H        3.4241960     2.3021350     0.7487690
units angstrom
no_reorient  #important for SAPT in psi4, default
symmetry c1  #important for SAPT in psi4, default
}

set PROPERTIES_ORIGIN ["COM"]
properties('MP2/aug-cc-pvtz', properties = ['dipole'])
--------------------------------------------------------------------------

    Molecular point group: c1
  Charge       = 0
  Multiplicity = 1
  Basis Set: AUG-CC-PVTZ
    Blend: AUG-CC-PVTZ
  Basis Set: (AUG-CC-PVTZ AUX)
    Blend: AUG-CC-PVTZ-JKFIT

    Orbital Energies [Eh]
    ---------------------

    Doubly Occupied:

       1A    -20.539139     2A    -15.568477     3A    -11.339765
       4A    -11.301920     5A    -11.256783     6A    -11.254512
       7A    -11.251307     8A    -11.250487     9A    -11.249058
      10A    -11.247010    11A    -11.246128    12A    -11.244815
      13A    -11.243503    14A    -11.227238    15A    -11.225565
      16A     -1.372421    17A     -1.247890    18A     -1.163210
      19A     -1.137702    20A     -1.055470    21A     -1.025437
      22A     -1.019910    23A     -0.995782    24A     -0.893607
      25A     -0.847564    26A     -0.835197    27A     -0.818325
      28A     -0.770109    29A     -0.716002    30A     -0.708906
      31A     -0.697916    32A     -0.674185    33A     -0.647037
      34A     -0.634589    35A     -0.615436    36A     -0.611064
      37A     -0.599936    38A     -0.596113    39A     -0.585106
      40A     -0.555935    41A     -0.540670    42A     -0.527856
      43A     -0.519934    44A     -0.501351    45A     -0.499415
      46A     -0.487903    47A     -0.459857    48A     -0.419535
      49A     -0.351443    50A     -0.345089    51A     -0.343553
      52A     -0.296475

  @DF-RHF Final Energy:  -628.21403521126194

   => Energetics <=

    Nuclear Repulsion Energy =            892.1725942584806717
    One-Electron Energy =               -2623.6459789835157608
    Two-Electron Energy =                1103.2593495137730315
    Total Energy =                       -628.2140352112619439
  Basis Set: (AUG-CC-PVTZ AUX)
    Blend: AUG-CC-PVTZ-RI
    Molecular point group: c1

    Geometry (in Angstrom), charge = 0, multiplicity = 1:

       Center              X                  Y                   Z               Mass
    ------------   -----------------  -----------------  -----------------  -----------------
         O           -0.045980664563     2.165007633119    -0.306857825126    15.994914619570
         N            2.476365335437     1.912272633119     0.750588174874    14.003074004430
         C            1.111853335437     0.083402633119    -0.140904825126    12.000000000000
         C           -1.445909664563     0.286090633119    -0.038265825126    12.000000000000
         C           -0.104841664563     0.930835633119    -0.172267825126    12.000000000000
         C            2.452286735437     0.660646533119     0.282815874874    12.000000000000
         C            1.049881335437    -1.240909366881    -0.615049825126    12.000000000000
         C            3.483893335437    -0.228995366881     0.258391174874    12.000000000000
         C           -1.660132664563    -0.812986366881     0.807109174874    12.000000000000
         C           -2.529123664563     0.869853633119    -0.710421825126    12.000000000000
         C            2.176960335437    -2.052682366881    -0.646050825126    12.000000000000
         C            3.399076335437    -1.536722366881    -0.202736825126    12.000000000000
         C           -2.948307664563    -1.325907366881     0.965426174874    12.000000000000
         C           -3.808682664563     0.338502633119    -0.565891825126    12.000000000000
         C           -4.021233664563    -0.760021366881     0.272823174874    12.000000000000
         H            0.098215335437    -1.625996366881    -0.970771825126     1.007825032230
         H            4.442126335437     0.168629633119     0.589573174874     1.007825032230
         H           -0.827254664563    -1.245110366881     1.355729174874     1.007825032230
         H           -2.349164664563     1.738897633119    -1.337965825126     1.007825032230
         H            2.110977335437    -3.068136366881    -1.026762825126     1.007825032230
         H            4.290601335437    -2.160066366881    -0.206961825126     1.007825032230
         H           -3.115157664563    -2.168628366881     1.632108174874     1.007825032230
         H           -4.644053664563     0.783849633119    -1.100942825126     1.007825032230
         H           -5.021804664563    -1.169180366881     0.391269174874     1.007825032230
         H            1.784162335437     2.554920633119     0.379772174874     1.007825032230
         H            3.419969335437     2.281319633119     0.749309174874     1.007825032230

  Basis Set: AUG-CC-PVTZ
    Blend: AUG-CC-PVTZ
  Basis Set: (AUG-CC-PVTZ AUX)
    Blend: AUG-CC-PVTZ-JKFIT
	 Reference Energy          =    -628.2140352112619439 [Eh]
	 Singles Energy            =      -0.0000000000000000 [Eh]
	 Same-Spin Energy          =      -0.6920201824010169 [Eh]
	 Opposite-Spin Energy      =      -2.1100922286379205 [Eh]
	 Correlation Energy        =      -2.8021124110389373 [Eh]
	 Total Energy              =    -631.0161476223008776 [Eh]

	 ================> DF-SCS-MP2 Energies <==================
	-----------------------------------------------------------
	 SCS Same-Spin Scale       =       0.3333333333333333 [-]
	 SCS Opposite-Spin Scale   =       1.2000000000000000 [-]
	 SCS Same-Spin Energy      =      -0.2306733941336723 [Eh]
	 SCS Opposite-Spin Energy  =      -2.5321106743655046 [Eh]
	 SCS Correlation Energy    =      -2.7627840684991769 [Eh]
	 SCS Total Energy          =    -630.9768192797611164 [Eh]
	-----------------------------------------------------------

  Dipole Moment: [D]
     X:     0.4474      Y:    -1.3795      Z:     0.0051     Total:     1.4502

*** Psi4 exiting successfully. Buy a developer a beer!
