                               Psi4 1.3.2 release

  ==> Input File <==

--------------------------------------------------------------------------
#psi4
#
memory 32 gb

molecule  {
0 1
  O       -0.0417540     2.1858230    -0.3073980
  N        2.4805920     1.9330880     0.7500480
  C        1.1160800     0.1042180    -0.1414450
  C       -1.4416830     0.3069060    -0.0388060
  C       -0.1006150     0.9516510    -0.1728080
  C        2.3521093     0.4574054     0.1828781
  C        1.0541080    -1.2200940    -0.6155900
  C        3.4881200    -0.2081800     0.2578510
  C       -1.6559060    -0.7921710     0.8065690
  C       -2.5248970     0.8906690    -0.7109620
  C        2.1811870    -2.0318670    -0.6465910
  C        3.4033030    -1.5159070    -0.2032770
  C       -2.9440810    -1.3050920     0.9648860
  C       -3.8044560     0.3593180    -0.5664320
  C       -4.0170070    -0.7392060     0.2722830
  H        0.1024420    -1.6051810    -0.9713120
  H        4.4463530     0.1894450     0.5890330
  H       -0.8230280    -1.2242950     1.3551890
  H       -2.3449380     1.7597130    -1.3385060
  H        2.1152040    -3.0473210    -1.0273030
  H        4.2948280    -2.1392510    -0.2075020
  H       -3.1109310    -2.1478130     1.6315680
  H       -4.6398270     0.8046650    -1.1014830
  H       -5.0175780    -1.1483650     0.3907290
  H        1.7883890     2.5757360     0.3792320
  H        3.4241960     2.3021350     0.7487690
units angstrom
no_reorient  #important for SAPT in psi4, default
symmetry c1  #important for SAPT in psi4, default
}

set PROPERTIES_ORIGIN ["COM"]
properties('MP2/aug-cc-pvtz', properties = ['dipole'])
--------------------------------------------------------------------------

    Molecular point group: c1
  Charge       = 0
  Multiplicity = 1
  Basis Set: AUG-CC-PVTZ
    Blend: AUG-CC-PVTZ
  Basis Set: (AUG-CC-PVTZ AUX)
    Blend: AUG-CC-PVTZ-JKFIT

    Orbital Energies [Eh]
    ---------------------

    Doubly Occupied:

       1A    -20.547182     2A    -15.535759     3A    -11.349486
       4A    -11.284165     5A    -11.258503     6A    -11.258418
       7A    -11.256362     8A    -11.254712     9A    -11.254463
      10A    -11.251603    11A    -11.248789    12A    -11.247279
      13A    -11.242481    14A    -11.238806    15A    -11.233742
      16A     -1.377904    17A     -1.204576    18A     -1.166927
      19A     -1.118356    20A     -1.068902    21A     -1.033891
      22A     -1.027668    23A     -1.008856    24A     -0.901598
      25A     -0.859326    26A     -0.843361    27A     -0.821238
      28A     -0.777321    29A     -0.725873    30A     -0.696556
      31A     -0.670769    32A     -0.666211    33A     -0.649685
      34A     -0.639001    35A     -0.628146    36A     -0.614065
      37A     -0.600528    38A     -0.586319    39A     -0.583661
      40A     -0.559234    41A     -0.538510    42A     -0.528529
      43A     -0.524809    44A     -0.506579    45A     -0.501905
      46A     -0.485990    47A     -0.429228    48A     -0.421956
      49A     -0.358422    50A     -0.349772    51A     -0.347787
      52A     -0.322935

  @DF-RHF Final Energy:  -628.18198825799266

   => Energetics <=

    Nuclear Repulsion Energy =            894.6033378440334900
    One-Electron Energy =               -2628.3543599729555353
    Two-Electron Energy =                1105.5690338709293883
    Total Energy =                       -628.1819882579927707
  Basis Set: (AUG-CC-PVTZ AUX)
    Blend: AUG-CC-PVTZ-RI
    Molecular point group: c1

    Geometry (in Angstrom), charge = 0, multiplicity = 1:

       Center              X                  Y                   Z               Mass
    ------------   -----------------  -----------------  -----------------  -----------------
         O           -0.039623736586     2.178649923347    -0.300805731538    15.994914619570
         N            2.482722263414     1.925914923347     0.756640268462    14.003074004430
         C            1.118210263414     0.097044923347    -0.134852731538    12.000000000000
         C           -1.439552736586     0.299732923347    -0.032213731538    12.000000000000
         C           -0.098484736586     0.944477923347    -0.166215731538    12.000000000000
         C            2.354239563414     0.450232323347     0.189470368462    12.000000000000
         C            1.056238263414    -1.227267076653    -0.608997731538    12.000000000000
         C            3.490250263414    -0.215353076653     0.264443268462    12.000000000000
         C           -1.653775736586    -0.799344076653     0.813161268462    12.000000000000
         C           -2.522766736586     0.883495923347    -0.704369731538    12.000000000000
         C            2.183317263414    -2.039040076653    -0.639998731538    12.000000000000
         C            3.405433263414    -1.523080076653    -0.196684731538    12.000000000000
         C           -2.941950736586    -1.312265076653     0.971478268462    12.000000000000
         C           -3.802325736586     0.352144923347    -0.559839731538    12.000000000000
         C           -4.014876736586    -0.746379076653     0.278875268462    12.000000000000
         H            0.104572263414    -1.612354076653    -0.964719731538     1.007825032230
         H            4.448483263414     0.182271923347     0.595625268462     1.007825032230
         H           -0.820897736586    -1.231468076653     1.361781268462     1.007825032230
         H           -2.342807736586     1.752539923347    -1.331913731538     1.007825032230
         H            2.117334263414    -3.054494076653    -1.020710731538     1.007825032230
         H            4.296958263414    -2.146424076653    -0.200909731538     1.007825032230
         H           -3.108800736586    -2.154986076653     1.638160268462     1.007825032230
         H           -4.637696736586     0.797491923347    -1.094890731538     1.007825032230
         H           -5.015447736586    -1.155538076653     0.397321268462     1.007825032230
         H            1.790519263414     2.568562923347     0.385824268462     1.007825032230
         H            3.426326263414     2.294961923347     0.755361268462     1.007825032230

  Basis Set: AUG-CC-PVTZ
    Blend: AUG-CC-PVTZ
  Basis Set: (AUG-CC-PVTZ AUX)
    Blend: AUG-CC-PVTZ-JKFIT
	 Reference Energy          =    -628.1819882579926571 [Eh]
	 Singles Energy            =      -0.0000000000000000 [Eh]
	 Same-Spin Energy          =      -0.6919634677029223 [Eh]
	 Opposite-Spin Energy      =      -2.1123442679634463 [Eh]
	 Correlation Energy        =      -2.8043077356663684 [Eh]
	 Total Energy              =    -630.9862959936590414 [Eh]

	 ================> DF-SCS-MP2 Energies <==================
	-----------------------------------------------------------
	 SCS Same-Spin Scale       =       0.3333333333333333 [-]
	 SCS Opposite-Spin Scale   =       1.2000000000000000 [-]
	 SCS Same-Spin Energy      =      -0.2306544892343074 [Eh]
	 SCS Opposite-Spin Energy  =      -2.5348131215561356 [Eh]
	 SCS Correlation Energy    =      -2.7654676107904432 [Eh]
	 SCS Total Energy          =    -630.9474558687830950 [Eh]
	-----------------------------------------------------------

  Dipole Moment: [D]
     X:    -0.0833      Y:    -2.7164      Z:    -0.5447     Total:     2.7717

*** Psi4 exiting successfully. Buy a developer a beer!
