                               Psi4 1.3.2 release

  ==> Input File <==

--------------------------------------------------------------------------
#psi4
#
memory 32 gb

molecule  {
0 1
  O       -0.0417540     2.1858230    -0.3073980
  N        2.4805920     1.9330880     0.7500480
  C        1.1160800     0.1042180    -0.1414450
  C       -1.4416830     0.3069060    -0.0388060
  C       -0.0911433     1.1502492    -0.1944657
  C        2.3683100     0.6434780     0.2543940
  C        1.0541080    -1.2200940    -0.6155900
  C        3.4881200    -0.2081800     0.2578510
  C       -1.6559060    -0.7921710     0.8065690
  C       -2.5248970     0.8906690    -0.7109620
  C        2.1811870    -2.0318670    -0.6465910
  C        3.4033030    -1.5159070    -0.2032770
  C       -2.9440810    -1.3050920     0.9648860
  C       -3.8044560     0.3593180    -0.5664320
  C       -4.0170070    -0.7392060     0.2722830
  H        0.1024420    -1.6051810    -0.9713120
  H        4.4463530     0.1894450     0.5890330
  H       -0.8230280    -1.2242950     1.3551890
  H       -2.3449380     1.7597130    -1.3385060
  H        2.1152040    -3.0473210    -1.0273030
  H        4.2948280    -2.1392510    -0.2075020
  H       -3.1109310    -2.1478130     1.6315680
  H       -4.6398270     0.8046650    -1.1014830
  H       -5.0175780    -1.1483650     0.3907290
  H        1.7883890     2.5757360     0.3792320
  H        3.4241960     2.3021350     0.7487690
units angstrom
no_reorient  #important for SAPT in psi4, default
symmetry c1  #important for SAPT in psi4, default
}

set PROPERTIES_ORIGIN ["COM"]
properties('MP2/aug-cc-pvtz', properties = ['dipole'])
--------------------------------------------------------------------------

    Molecular point group: c1
  Charge       = 0
  Multiplicity = 1
  Basis Set: AUG-CC-PVTZ
    Blend: AUG-CC-PVTZ
  Basis Set: (AUG-CC-PVTZ AUX)
    Blend: AUG-CC-PVTZ-JKFIT

    Orbital Energies [Eh]
    ---------------------

    Doubly Occupied:

       1A    -20.571855     2A    -15.563466     3A    -11.337480
       4A    -11.288094     5A    -11.246737     6A    -11.245780
       7A    -11.245630     8A    -11.244207     9A    -11.242171
      10A    -11.241616    11A    -11.240595    12A    -11.239431
      13A    -11.234881    14A    -11.227993    15A    -11.225296
      16A     -1.539656    17A     -1.228588    18A     -1.155826
      19A     -1.130809    20A     -1.037897    21A     -1.020526
      22A     -1.010421    23A     -0.990596    24A     -0.869609
      25A     -0.843747    26A     -0.832374    27A     -0.811460
      28A     -0.771150    29A     -0.727783    30A     -0.714497
      31A     -0.690980    32A     -0.686440    33A     -0.669450
      34A     -0.645857    35A     -0.629640    36A     -0.615889
      37A     -0.610227    38A     -0.599611    39A     -0.592242
      40A     -0.589887    41A     -0.540812    42A     -0.533093
      43A     -0.518790    44A     -0.508016    45A     -0.499868
      46A     -0.497816    47A     -0.452024    48A     -0.384115
      49A     -0.345795    50A     -0.341282    51A     -0.339539
      52A     -0.297830

  @DF-RHF Final Energy:  -628.16215171466547

   => Energetics <=

    Nuclear Repulsion Energy =            893.6667723277774940
    One-Electron Energy =               -2626.3191012510978908
    Two-Electron Energy =                1104.4901772086550409
    Total Energy =                       -628.1621517146654696
  Basis Set: (AUG-CC-PVTZ AUX)
    Blend: AUG-CC-PVTZ-RI
    Molecular point group: c1

    Geometry (in Angstrom), charge = 0, multiplicity = 1:

       Center              X                  Y                   Z               Mass
    ------------   -----------------  -----------------  -----------------  -----------------
         O           -0.041186870580     2.155228194026    -0.303841483835    15.994914619570
         N            2.481159129420     1.902493194026     0.753604516165    14.003074004430
         C            1.116647129420     0.073623194026    -0.137888483835    12.000000000000
         C           -1.441115870580     0.276311194026    -0.035249483835    12.000000000000
         C           -0.090576170580     1.119654394026    -0.190909183835    12.000000000000
         C            2.368877129420     0.612883194026     0.257950516165    12.000000000000
         C            1.054675129420    -1.250688805974    -0.612033483835    12.000000000000
         C            3.488687129420    -0.238774805974     0.261407516165    12.000000000000
         C           -1.655338870580    -0.822765805974     0.810125516165    12.000000000000
         C           -2.524329870580     0.860074194026    -0.707405483835    12.000000000000
         C            2.181754129420    -2.062461805974    -0.643034483835    12.000000000000
         C            3.403870129420    -1.546501805974    -0.199720483835    12.000000000000
         C           -2.943513870580    -1.335686805974     0.968442516165    12.000000000000
         C           -3.803888870580     0.328723194026    -0.562875483835    12.000000000000
         C           -4.016439870580    -0.769800805974     0.275839516165    12.000000000000
         H            0.103009129420    -1.635775805974    -0.967755483835     1.007825032230
         H            4.446920129420     0.158850194026     0.592589516165     1.007825032230
         H           -0.822460870580    -1.254889805974     1.358745516165     1.007825032230
         H           -2.344370870580     1.729118194026    -1.334949483835     1.007825032230
         H            2.115771129420    -3.077915805974    -1.023746483835     1.007825032230
         H            4.295395129420    -2.169845805974    -0.203945483835     1.007825032230
         H           -3.110363870580    -2.178407805974     1.635124516165     1.007825032230
         H           -4.639259870580     0.774070194026    -1.097926483835     1.007825032230
         H           -5.017010870580    -1.178959805974     0.394285516165     1.007825032230
         H            1.788956129420     2.545141194026     0.382788516165     1.007825032230
         H            3.424763129420     2.271540194026     0.752325516165     1.007825032230

  Basis Set: AUG-CC-PVTZ
    Blend: AUG-CC-PVTZ
  Basis Set: (AUG-CC-PVTZ AUX)
    Blend: AUG-CC-PVTZ-JKFIT
	 Reference Energy          =    -628.1621517146654696 [Eh]
	 Singles Energy            =      -0.0000000000000000 [Eh]
	 Same-Spin Energy          =      -0.6870305678889125 [Eh]
	 Opposite-Spin Energy      =      -2.1002886924410440 [Eh]
	 Correlation Energy        =      -2.7873192603299564 [Eh]
	 Total Energy              =    -630.9494709749953927 [Eh]

	 ================> DF-SCS-MP2 Energies <==================
	-----------------------------------------------------------
	 SCS Same-Spin Scale       =       0.3333333333333333 [-]
	 SCS Opposite-Spin Scale   =       1.2000000000000000 [-]
	 SCS Same-Spin Energy      =      -0.2290101892963042 [Eh]
	 SCS Opposite-Spin Energy  =      -2.5203464309292527 [Eh]
	 SCS Correlation Energy    =      -2.7493566202255568 [Eh]
	 SCS Total Energy          =    -630.9115083348909820 [Eh]
	-----------------------------------------------------------

  Dipole Moment: [D]
     X:     0.3175      Y:    -0.4294      Z:    -0.2579     Total:     0.5931

*** Psi4 exiting successfully. Buy a developer a beer!
