                               Psi4 1.3.2 release

  ==> Input File <==

--------------------------------------------------------------------------
#psi4
#
memory 32 gb

molecule  {
0 1
  O       -0.0417540     2.1858230    -0.3073980
  N        2.4805920     1.9330880     0.7500480
  C        1.1160800     0.1042180    -0.1414450
  C       -1.3003370     0.2996982     0.0003972
  C       -0.1006150     0.9516510    -0.1728080
  C        2.3683100     0.6434780     0.2543940
  C        1.0541080    -1.2200940    -0.6155900
  C        3.4881200    -0.2081800     0.2578510
  C       -1.6559060    -0.7921710     0.8065690
  C       -2.5248970     0.8906690    -0.7109620
  C        2.1811870    -2.0318670    -0.6465910
  C        3.4033030    -1.5159070    -0.2032770
  C       -2.9440810    -1.3050920     0.9648860
  C       -3.8044560     0.3593180    -0.5664320
  C       -4.0170070    -0.7392060     0.2722830
  H        0.1024420    -1.6051810    -0.9713120
  H        4.4463530     0.1894450     0.5890330
  H       -0.8230280    -1.2242950     1.3551890
  H       -2.3449380     1.7597130    -1.3385060
  H        2.1152040    -3.0473210    -1.0273030
  H        4.2948280    -2.1392510    -0.2075020
  H       -3.1109310    -2.1478130     1.6315680
  H       -4.6398270     0.8046650    -1.1014830
  H       -5.0175780    -1.1483650     0.3907290
  H        1.7883890     2.5757360     0.3792320
  H        3.4241960     2.3021350     0.7487690
units angstrom
no_reorient  #important for SAPT in psi4, default
symmetry c1  #important for SAPT in psi4, default
}

set PROPERTIES_ORIGIN ["COM"]
properties('MP2/aug-cc-pvtz', properties = ['dipole'])
--------------------------------------------------------------------------

    Molecular point group: c1
  Charge       = 0
  Multiplicity = 1
  Basis Set: AUG-CC-PVTZ
    Blend: AUG-CC-PVTZ
  Basis Set: (AUG-CC-PVTZ AUX)
    Blend: AUG-CC-PVTZ-JKFIT

    Orbital Energies [Eh]
    ---------------------

    Doubly Occupied:

       1A    -20.536713     2A    -15.559956     3A    -11.332128
       4A    -11.296366     5A    -11.265795     6A    -11.261699
       7A    -11.260725     8A    -11.253582     9A    -11.252576
      10A    -11.252130    11A    -11.248641    12A    -11.246429
      13A    -11.237544    14A    -11.231749    15A    -11.228182
      16A     -1.373417    17A     -1.226502    18A     -1.160159
      19A     -1.136814    20A     -1.070165    21A     -1.023595
      22A     -1.018997    23A     -0.995639    24A     -0.909660
      25A     -0.851260    26A     -0.835088    27A     -0.820538
      28A     -0.769766    29A     -0.717880    30A     -0.702774
      31A     -0.687247    32A     -0.678840    33A     -0.651092
      34A     -0.633268    35A     -0.618738    36A     -0.610391
      37A     -0.603474    38A     -0.590536    39A     -0.585943
      40A     -0.554075    41A     -0.535751    42A     -0.533525
      43A     -0.520822    44A     -0.508609    45A     -0.491593
      46A     -0.478559    47A     -0.452281    48A     -0.425088
      49A     -0.356260    50A     -0.348150    51A     -0.335743
      52A     -0.299916

  @DF-RHF Final Energy:  -628.19746164720482

   => Energetics <=

    Nuclear Repulsion Energy =            893.8727904238289739
    One-Electron Energy =               -2626.9877572097975644
    Two-Electron Energy =                1104.9175051387637723
    Total Energy =                       -628.1974616472048183
  Basis Set: (AUG-CC-PVTZ AUX)
    Blend: AUG-CC-PVTZ-RI
    Molecular point group: c1

    Geometry (in Angstrom), charge = 0, multiplicity = 1:

       Center              X                  Y                   Z               Mass
    ------------   -----------------  -----------------  -----------------  -----------------
         O           -0.049216396499     2.167759252855    -0.307547165488    15.994914619570
         N            2.473129603501     1.915024252855     0.749898834512    14.003074004430
         C            1.108617603501     0.086154252855    -0.141594165488    12.000000000000
         C           -1.307799396499     0.281634452855     0.000248034512    12.000000000000
         C           -0.108077396499     0.933587252855    -0.172957165488    12.000000000000
         C            2.360847603501     0.625414252855     0.254244834512    12.000000000000
         C            1.046645603501    -1.238157747145    -0.615739165488    12.000000000000
         C            3.480657603501    -0.226243747145     0.257701834512    12.000000000000
         C           -1.663368396499    -0.810234747145     0.806419834512    12.000000000000
         C           -2.532359396499     0.872605252855    -0.711111165488    12.000000000000
         C            2.173724603501    -2.049930747145    -0.646740165488    12.000000000000
         C            3.395840603501    -1.533970747145    -0.203426165488    12.000000000000
         C           -2.951543396499    -1.323155747145     0.964736834512    12.000000000000
         C           -3.811918396499     0.341254252855    -0.566581165488    12.000000000000
         C           -4.024469396499    -0.757269747145     0.272133834512    12.000000000000
         H            0.094979603501    -1.623244747145    -0.971461165488     1.007825032230
         H            4.438890603501     0.171381252855     0.588883834512     1.007825032230
         H           -0.830490396499    -1.242358747145     1.355039834512     1.007825032230
         H           -2.352400396499     1.741649252855    -1.338655165488     1.007825032230
         H            2.107741603501    -3.065384747145    -1.027452165488     1.007825032230
         H            4.287365603501    -2.157314747145    -0.207651165488     1.007825032230
         H           -3.118393396499    -2.165876747145     1.631418834512     1.007825032230
         H           -4.647289396499     0.786601252855    -1.101632165488     1.007825032230
         H           -5.025040396499    -1.166428747145     0.390579834512     1.007825032230
         H            1.780926603501     2.557672252855     0.379082834512     1.007825032230
         H            3.416733603501     2.284071252855     0.748619834512     1.007825032230

  Basis Set: AUG-CC-PVTZ
    Blend: AUG-CC-PVTZ
  Basis Set: (AUG-CC-PVTZ AUX)
    Blend: AUG-CC-PVTZ-JKFIT
	 Reference Energy          =    -628.1974616472048183 [Eh]
	 Singles Energy            =      -0.0000000000000000 [Eh]
	 Same-Spin Energy          =      -0.6934368559047793 [Eh]
	 Opposite-Spin Energy      =      -2.1134093693828984 [Eh]
	 Correlation Energy        =      -2.8068462252876776 [Eh]
	 Total Energy              =    -631.0043078724925181 [Eh]

	 ================> DF-SCS-MP2 Energies <==================
	-----------------------------------------------------------
	 SCS Same-Spin Scale       =       0.3333333333333333 [-]
	 SCS Opposite-Spin Scale   =       1.2000000000000000 [-]
	 SCS Same-Spin Energy      =      -0.2311456186349264 [Eh]
	 SCS Opposite-Spin Energy  =      -2.5360912432594778 [Eh]
	 SCS Correlation Energy    =      -2.7672368618944043 [Eh]
	 SCS Total Energy          =    -630.9646985090992075 [Eh]
	-----------------------------------------------------------

  Dipole Moment: [D]
     X:    -0.0388      Y:    -1.7635      Z:    -0.0603     Total:     1.7650

*** Psi4 exiting successfully. Buy a developer a beer!
