                               Psi4 1.3.2 release

  ==> Input File <==

--------------------------------------------------------------------------
#psi4
#
memory 32 gb

molecule  {
0 1
  O       -0.0417540     2.1858230    -0.3073980
  N        2.4805920     1.9330880     0.7500480
  C        1.1160800     0.1042180    -0.1414450
  C       -1.4178074     0.3061192    -0.0334240
  C       -0.1006150     0.9516510    -0.1728080
  C        2.3683100     0.6434780     0.2543940
  C        1.0541080    -1.2200940    -0.6155900
  C        3.4881200    -0.2081800     0.2578510
  C       -1.6559060    -0.7921710     0.8065690
  C       -2.5248970     0.8906690    -0.7109620
  C        2.1811870    -2.0318670    -0.6465910
  C        3.4033030    -1.5159070    -0.2032770
  C       -2.9440810    -1.3050920     0.9648860
  C       -3.8044560     0.3593180    -0.5664320
  C       -4.0170070    -0.7392060     0.2722830
  H        0.1024420    -1.6051810    -0.9713120
  H        4.4463530     0.1894450     0.5890330
  H       -0.8230280    -1.2242950     1.3551890
  H       -2.3449380     1.7597130    -1.3385060
  H        2.1152040    -3.0473210    -1.0273030
  H        4.2948280    -2.1392510    -0.2075020
  H       -3.1109310    -2.1478130     1.6315680
  H       -4.6398270     0.8046650    -1.1014830
  H       -5.0175780    -1.1483650     0.3907290
  H        1.7883890     2.5757360     0.3792320
  H        3.4241960     2.3021350     0.7487690
units angstrom
no_reorient  #important for SAPT in psi4, default
symmetry c1  #important for SAPT in psi4, default
}

set PROPERTIES_ORIGIN ["COM"]
properties('MP2/aug-cc-pvtz', properties = ['dipole'])
--------------------------------------------------------------------------

    Molecular point group: c1
  Charge       = 0
  Multiplicity = 1
  Basis Set: AUG-CC-PVTZ
    Blend: AUG-CC-PVTZ
  Basis Set: (AUG-CC-PVTZ AUX)
    Blend: AUG-CC-PVTZ-JKFIT

    Orbital Energies [Eh]
    ---------------------

    Doubly Occupied:

       1A    -20.540943     2A    -15.561663     3A    -11.340352
       4A    -11.298658     5A    -11.254243     6A    -11.253928
       7A    -11.253842     8A    -11.252860     9A    -11.251633
      10A    -11.250422    11A    -11.246211    12A    -11.244705
      13A    -11.240634    14A    -11.233322    15A    -11.229613
      16A     -1.374403    17A     -1.228292    18A     -1.163198
      19A     -1.138315    20A     -1.059270    21A     -1.024972
      22A     -1.021505    23A     -0.997501    24A     -0.895769
      25A     -0.849898    26A     -0.837968    27A     -0.820224
      28A     -0.770487    29A     -0.718162    30A     -0.702277
      31A     -0.688463    32A     -0.671815    33A     -0.648414
      34A     -0.634249    35A     -0.616418    36A     -0.610914
      37A     -0.604483    38A     -0.596103    39A     -0.587482
      40A     -0.554817    41A     -0.535744    42A     -0.527405
      43A     -0.520131    44A     -0.509600    45A     -0.500270
      46A     -0.489999    47A     -0.453802    48A     -0.423282
      49A     -0.352200    50A     -0.346982    51A     -0.343010
      52A     -0.301806

  @DF-RHF Final Energy:  -628.22480917930420

   => Energetics <=

    Nuclear Repulsion Energy =            893.2931983640208955
    One-Electron Energy =               -2625.8907038775973888
    Two-Electron Energy =                1104.3726963342721774
    Total Energy =                       -628.2248091793042022
  Basis Set: (AUG-CC-PVTZ AUX)
    Blend: AUG-CC-PVTZ-RI
    Molecular point group: c1

    Geometry (in Angstrom), charge = 0, multiplicity = 1:

       Center              X                  Y                   Z               Mass
    ------------   -----------------  -----------------  -----------------  -----------------
         O           -0.042063891261     2.167368292782    -0.305487869613    15.994914619570
         N            2.480282108739     1.914633292782     0.751958130387    14.003074004430
         C            1.115770108739     0.085763292782    -0.139534869613    12.000000000000
         C           -1.418117291261     0.287664492782    -0.031513869613    12.000000000000
         C           -0.100924891261     0.933196292782    -0.170897869613    12.000000000000
         C            2.368000108739     0.625023292782     0.256304130387    12.000000000000
         C            1.053798108739    -1.238548707218    -0.613679869613    12.000000000000
         C            3.487810108739    -0.226634707218     0.259761130387    12.000000000000
         C           -1.656215891261    -0.810625707218     0.808479130387    12.000000000000
         C           -2.525206891261     0.872214292782    -0.709051869613    12.000000000000
         C            2.180877108739    -2.050321707218    -0.644680869613    12.000000000000
         C            3.402993108739    -1.534361707218    -0.201366869613    12.000000000000
         C           -2.944390891261    -1.323546707218     0.966796130387    12.000000000000
         C           -3.804765891261     0.340863292782    -0.564521869613    12.000000000000
         C           -4.017316891261    -0.757660707218     0.274193130387    12.000000000000
         H            0.102132108739    -1.623635707218    -0.969401869613     1.007825032230
         H            4.446043108739     0.170990292782     0.590943130387     1.007825032230
         H           -0.823337891261    -1.242749707218     1.357099130387     1.007825032230
         H           -2.345247891261     1.741258292782    -1.336595869613     1.007825032230
         H            2.114894108739    -3.065775707218    -1.025392869613     1.007825032230
         H            4.294518108739    -2.157705707218    -0.205591869613     1.007825032230
         H           -3.111240891261    -2.166267707218     1.633478130387     1.007825032230
         H           -4.640136891261     0.786210292782    -1.099572869613     1.007825032230
         H           -5.017887891261    -1.166819707218     0.392639130387     1.007825032230
         H            1.788079108739     2.557281292782     0.381142130387     1.007825032230
         H            3.423886108739     2.283680292782     0.750679130387     1.007825032230

  Basis Set: AUG-CC-PVTZ
    Blend: AUG-CC-PVTZ
  Basis Set: (AUG-CC-PVTZ AUX)
    Blend: AUG-CC-PVTZ-JKFIT
	 Reference Energy          =    -628.2248091793042022 [Eh]
	 Singles Energy            =      -0.0000000000000000 [Eh]
	 Same-Spin Energy          =      -0.6917659753340297 [Eh]
	 Opposite-Spin Energy      =      -2.1099832820913798 [Eh]
	 Correlation Energy        =      -2.8017492574254095 [Eh]
	 Total Energy              =    -631.0265584367296015 [Eh]

	 ================> DF-SCS-MP2 Energies <==================
	-----------------------------------------------------------
	 SCS Same-Spin Scale       =       0.3333333333333333 [-]
	 SCS Opposite-Spin Scale   =       1.2000000000000000 [-]
	 SCS Same-Spin Energy      =      -0.2305886584446766 [Eh]
	 SCS Opposite-Spin Energy  =      -2.5319799385096555 [Eh]
	 SCS Correlation Energy    =      -2.7625685969543321 [Eh]
	 SCS Total Energy          =    -630.9873777762585405 [Eh]
	-----------------------------------------------------------

  Dipole Moment: [D]
     X:     0.2908      Y:    -1.6554      Z:    -0.0952     Total:     1.6835

*** Psi4 exiting successfully. Buy a developer a beer!
