                               Psi4 1.4a3.dev225

  ==> Input File <==

--------------------------------------------------------------------------
#psi4
#
memory 32 gb

molecule  {
0 1
  O       -0.0417540     2.1858230    -0.3073980
  N        2.4805920     1.9330880     0.7500480
  C        1.1160800     0.1042180    -0.1414450
  C       -1.4416830     0.3069060    -0.0388060
  C       -0.0996678     0.9715108    -0.1749738
  C        2.3683100     0.6434780     0.2543940
  C        1.0541080    -1.2200940    -0.6155900
  C        3.4881200    -0.2081800     0.2578510
  C       -1.6559060    -0.7921710     0.8065690
  C       -2.5248970     0.8906690    -0.7109620
  C        2.1811870    -2.0318670    -0.6465910
  C        3.4033030    -1.5159070    -0.2032770
  C       -2.9440810    -1.3050920     0.9648860
  C       -3.8044560     0.3593180    -0.5664320
  C       -4.0170070    -0.7392060     0.2722830
  H        0.1024420    -1.6051810    -0.9713120
  H        4.4463530     0.1894450     0.5890330
  H       -0.8230280    -1.2242950     1.3551890
  H       -2.3449380     1.7597130    -1.3385060
  H        2.1152040    -3.0473210    -1.0273030
  H        4.2948280    -2.1392510    -0.2075020
  H       -3.1109310    -2.1478130     1.6315680
  H       -4.6398270     0.8046650    -1.1014830
  H       -5.0175780    -1.1483650     0.3907290
  H        1.7883890     2.5757360     0.3792320
  H        3.4241960     2.3021350     0.7487690
units angstrom
no_reorient  #important for SAPT in psi4, default
symmetry c1  #important for SAPT in psi4, default
}

set PROPERTIES_ORIGIN ["COM"]
properties('MP2/aug-cc-pvtz', properties = ['dipole'])
--------------------------------------------------------------------------

    Molecular point group: c1
  Charge       = 0
  Multiplicity = 1
  Basis Set: AUG-CC-PVTZ
    Blend: AUG-CC-PVTZ
  Basis Set: (AUG-CC-PVTZ AUX)
    Blend: AUG-CC-PVTZ-JKFIT

    Orbital Energies [Eh]
    ---------------------

    Doubly Occupied:

       1A    -20.544570     2A    -15.561937     3A    -11.341277
       4A    -11.297884     5A    -11.253593     6A    -11.253509
       7A    -11.252052     8A    -11.250817     9A    -11.249709
      10A    -11.247411    11A    -11.245526    12A    -11.244038
      13A    -11.240795    14A    -11.233011    15A    -11.229409
      16A     -1.388553    17A     -1.228569    18A     -1.163636
      19A     -1.137770    20A     -1.055590    21A     -1.025944
      22A     -1.020060    23A     -0.997100    24A     -0.891230
      25A     -0.848481    26A     -0.838338    27A     -0.819095
      28A     -0.770121    29A     -0.717892    30A     -0.702285
      31A     -0.688732    32A     -0.670705    33A     -0.649884
      34A     -0.634634    35A     -0.616373    36A     -0.611528
      37A     -0.604569    38A     -0.596881    39A     -0.589382
      40A     -0.556953    41A     -0.537114    42A     -0.527511
      43A     -0.519664    44A     -0.509785    45A     -0.502133
      46A     -0.494199    47A     -0.453836    48A     -0.420207
      49A     -0.351537    50A     -0.346192    51A     -0.344211
      52A     -0.301696

  @DF-RHF Final Energy:  -628.22768323868638

   => Energetics <=

    Nuclear Repulsion Energy =            893.1966158839727541
    One-Electron Energy =               -2625.6927415074706005
    Two-Electron Energy =                1104.2684423848115784
    Total Energy =                       -628.2276832386862679
  Basis Set: (AUG-CC-PVTZ AUX)
    Blend: AUG-CC-PVTZ-RI
    Molecular point group: c1

    Geometry (in Angstrom), charge = 0, multiplicity = 1:

       Center              X                  Y                   Z               Mass
    ------------   -----------------  -----------------  -----------------  -----------------
         O           -0.040667833181     2.166111168309    -0.305028301254    15.994914619570
         N            2.481678166819     1.913376168309     0.752417698746    14.003074004430
         C            1.117166166819     0.084506168309    -0.139075301254    12.000000000000
         C           -1.440596833181     0.287194168309    -0.036436301254    12.000000000000
         C           -0.098581633181     0.951798968309    -0.172604101254    12.000000000000
         C            2.369396166819     0.623766168309     0.256763698746    12.000000000000
         C            1.055194166819    -1.239805831691    -0.613220301254    12.000000000000
         C            3.489206166819    -0.227891831691     0.260220698746    12.000000000000
         C           -1.654819833181    -0.811882831691     0.808938698746    12.000000000000
         C           -2.523810833181     0.870957168309    -0.708592301254    12.000000000000
         C            2.182273166819    -2.051578831691    -0.644221301254    12.000000000000
         C            3.404389166819    -1.535618831691    -0.200907301254    12.000000000000
         C           -2.942994833181    -1.324803831691     0.967255698746    12.000000000000
         C           -3.803369833181     0.339606168309    -0.564062301254    12.000000000000
         C           -4.015920833181    -0.758917831691     0.274652698746    12.000000000000
         H            0.103528166819    -1.624892831691    -0.968942301254     1.007825032230
         H            4.447439166819     0.169733168309     0.591402698746     1.007825032230
         H           -0.821941833181    -1.244006831691     1.357558698746     1.007825032230
         H           -2.343851833181     1.740001168309    -1.336136301254     1.007825032230
         H            2.116290166819    -3.067032831691    -1.024933301254     1.007825032230
         H            4.295914166819    -2.158962831691    -0.205132301254     1.007825032230
         H           -3.109844833181    -2.167524831691     1.633937698746     1.007825032230
         H           -4.638740833181     0.784953168309    -1.099113301254     1.007825032230
         H           -5.016491833181    -1.168076831691     0.393098698746     1.007825032230
         H            1.789475166819     2.556024168309     0.381601698746     1.007825032230
         H            3.425282166819     2.282423168309     0.751138698746     1.007825032230

  Basis Set: AUG-CC-PVTZ
    Blend: AUG-CC-PVTZ
  Basis Set: (AUG-CC-PVTZ AUX)
    Blend: AUG-CC-PVTZ-JKFIT
	 Reference Energy          =    -628.2276832386863816 [Eh]
	 Singles Energy            =      -0.0000000000000000 [Eh]
	 Same-Spin Energy          =      -0.6909358441934245 [Eh]
	 Opposite-Spin Energy      =      -2.1083792946730320 [Eh]
	 Correlation Energy        =      -2.7993151388664566 [Eh]
	 Total Energy              =    -631.0269983775527862 [Eh]

	 ================> DF-SCS-MP2 Energies <==================
	-----------------------------------------------------------
	 SCS Same-Spin Scale       =       0.3333333333333333 [-]
	 SCS Opposite-Spin Scale   =       1.2000000000000000 [-]
	 SCS Same-Spin Energy      =      -0.2303119480644748 [Eh]
	 SCS Opposite-Spin Energy  =      -2.5300551536076381 [Eh]
	 SCS Correlation Energy    =      -2.7603671016721130 [Eh]
	 SCS Total Energy          =    -630.9880503403585408 [Eh]
	-----------------------------------------------------------

  Dipole Moment: [D]
     X:     0.3399      Y:    -1.5397      Z:    -0.1154     Total:     1.5810

*** Psi4 exiting successfully. Buy a developer a beer!
