                               Psi4 1.3.2 release

  ==> Input File <==

--------------------------------------------------------------------------
#psi4
#
memory 32 gb

molecule  {
0 1
  O       -0.0417540     2.1858230    -0.3073980
  N        2.4805920     1.9330880     0.7500480
  C        1.0210896    -0.0172946    -0.1238554
  C       -1.4416830     0.3069060    -0.0388060
  C       -0.1006150     0.9516510    -0.1728080
  C        2.3683100     0.6434780     0.2543940
  C        1.0541080    -1.2200940    -0.6155900
  C        3.4881200    -0.2081800     0.2578510
  C       -1.6559060    -0.7921710     0.8065690
  C       -2.5248970     0.8906690    -0.7109620
  C        2.1811870    -2.0318670    -0.6465910
  C        3.4033030    -1.5159070    -0.2032770
  C       -2.9440810    -1.3050920     0.9648860
  C       -3.8044560     0.3593180    -0.5664320
  C       -4.0170070    -0.7392060     0.2722830
  H        0.1024420    -1.6051810    -0.9713120
  H        4.4463530     0.1894450     0.5890330
  H       -0.8230280    -1.2242950     1.3551890
  H       -2.3449380     1.7597130    -1.3385060
  H        2.1152040    -3.0473210    -1.0273030
  H        4.2948280    -2.1392510    -0.2075020
  H       -3.1109310    -2.1478130     1.6315680
  H       -4.6398270     0.8046650    -1.1014830
  H       -5.0175780    -1.1483650     0.3907290
  H        1.7883890     2.5757360     0.3792320
  H        3.4241960     2.3021350     0.7487690
units angstrom
no_reorient  #important for SAPT in psi4, default
symmetry c1  #important for SAPT in psi4, default
}

set PROPERTIES_ORIGIN ["COM"]
properties('MP2/aug-cc-pvtz', properties = ['dipole'])
--------------------------------------------------------------------------

    Molecular point group: c1
  Charge       = 0
  Multiplicity = 1
  Basis Set: AUG-CC-PVTZ
    Blend: AUG-CC-PVTZ
  Basis Set: (AUG-CC-PVTZ AUX)
    Blend: AUG-CC-PVTZ-JKFIT

    Orbital Energies [Eh]
    ---------------------

    Doubly Occupied:

       1A    -20.547577     2A    -15.568304     3A    -11.345522
       4A    -11.310065     5A    -11.254860     6A    -11.251623
       7A    -11.250787     8A    -11.247395     9A    -11.246176
      10A    -11.245842    11A    -11.245216    12A    -11.243837
      13A    -11.243669    14A    -11.227967    15A    -11.225796
      16A     -1.377174    17A     -1.226782    18A     -1.165353
      19A     -1.146274    20A     -1.064457    21A     -1.028527
      22A     -1.023440    23A     -0.988352    24A     -0.896145
      25A     -0.843677    26A     -0.833809    27A     -0.825083
      28A     -0.771378    29A     -0.716737    30A     -0.703251
      31A     -0.695588    32A     -0.671684    33A     -0.648835
      34A     -0.632697    35A     -0.614589    36A     -0.608990
      37A     -0.602582    38A     -0.596765    39A     -0.592579
      40A     -0.553189    41A     -0.539271    42A     -0.526833
      43A     -0.519088    44A     -0.502234    45A     -0.498534
      46A     -0.490922    47A     -0.460847    48A     -0.418677
      49A     -0.365515    50A     -0.346528    51A     -0.344169
      52A     -0.291906

  @DF-RHF Final Energy:  -628.19966337737992

   => Energetics <=

    Nuclear Repulsion Energy =            893.3250832417527363
    One-Electron Energy =               -2625.8752896647129091
    Two-Electron Energy =                1104.3505430455802525
    Total Energy =                       -628.1996633773799203
  Basis Set: (AUG-CC-PVTZ AUX)
    Blend: AUG-CC-PVTZ-RI
    Molecular point group: c1

    Geometry (in Angstrom), charge = 0, multiplicity = 1:

       Center              X                  Y                   Z               Mass
    ------------   -----------------  -----------------  -----------------  -----------------
         O           -0.034826411116     2.174719011916    -0.306231162587    15.994914619570
         N            2.487519588884     1.921984011916     0.751214837413    14.003074004430
         C            1.028017188884    -0.028398588084    -0.122688562587    12.000000000000
         C           -1.434755411116     0.295802011916    -0.037639162587    12.000000000000
         C           -0.093687411116     0.940547011916    -0.171641162587    12.000000000000
         C            2.375237588884     0.632374011916     0.255560837413    12.000000000000
         C            1.061035588884    -1.231197988084    -0.614423162587    12.000000000000
         C            3.495047588884    -0.219283988084     0.259017837413    12.000000000000
         C           -1.648978411116    -0.803274988084     0.807735837413    12.000000000000
         C           -2.517969411116     0.879565011916    -0.709795162587    12.000000000000
         C            2.188114588884    -2.042970988084    -0.645424162587    12.000000000000
         C            3.410230588884    -1.527010988084    -0.202110162587    12.000000000000
         C           -2.937153411116    -1.316195988084     0.966052837413    12.000000000000
         C           -3.797528411116     0.348214011916    -0.565265162587    12.000000000000
         C           -4.010079411116    -0.750309988084     0.273449837413    12.000000000000
         H            0.109369588884    -1.616284988084    -0.970145162587     1.007825032230
         H            4.453280588884     0.178341011916     0.590199837413     1.007825032230
         H           -0.816100411116    -1.235398988084     1.356355837413     1.007825032230
         H           -2.338010411116     1.748609011916    -1.337339162587     1.007825032230
         H            2.122131588884    -3.058424988084    -1.026136162587     1.007825032230
         H            4.301755588884    -2.150354988084    -0.206335162587     1.007825032230
         H           -3.104003411116    -2.158916988084     1.632734837413     1.007825032230
         H           -4.632899411116     0.793561011916    -1.100316162587     1.007825032230
         H           -5.010650411116    -1.159468988084     0.391895837413     1.007825032230
         H            1.795316588884     2.564632011916     0.380398837413     1.007825032230
         H            3.431123588884     2.291031011916     0.749935837413     1.007825032230

  Basis Set: AUG-CC-PVTZ
    Blend: AUG-CC-PVTZ
  Basis Set: (AUG-CC-PVTZ AUX)
    Blend: AUG-CC-PVTZ-JKFIT
	 Reference Energy          =    -628.1996633773799203 [Eh]
	 Singles Energy            =      -0.0000000000000000 [Eh]
	 Same-Spin Energy          =      -0.6919590807751380 [Eh]
	 Opposite-Spin Energy      =      -2.1108462958318146 [Eh]
	 Correlation Energy        =      -2.8028053766069525 [Eh]
	 Total Energy              =    -631.0024687539868182 [Eh]

	 ================> DF-SCS-MP2 Energies <==================
	-----------------------------------------------------------
	 SCS Same-Spin Scale       =       0.3333333333333333 [-]
	 SCS Opposite-Spin Scale   =       1.2000000000000000 [-]
	 SCS Same-Spin Energy      =      -0.2306530269250460 [Eh]
	 SCS Opposite-Spin Energy  =      -2.5330155549981774 [Eh]
	 SCS Correlation Energy    =      -2.7636685819232234 [Eh]
	 SCS Total Energy          =    -630.9633319593031047 [Eh]
	-----------------------------------------------------------

  Dipole Moment: [D]
     X:     0.3806      Y:    -1.4466      Z:    -0.0753     Total:     1.4977

*** Psi4 exiting successfully. Buy a developer a beer!
