                               Psi4 1.3.2 release

  ==> Input File <==

--------------------------------------------------------------------------
#psi4
#
memory 32 gb

molecule  {
0 1
  O       -0.0417540     2.1858230    -0.3073980
  N        2.4805920     1.9330880     0.7500480
  C        1.1160800     0.1042180    -0.1414450
  C       -1.4416830     0.3069060    -0.0388060
  C        0.0634638     0.8373695    -0.1685785
  C        2.3683100     0.6434780     0.2543940
  C        1.0541080    -1.2200940    -0.6155900
  C        3.4881200    -0.2081800     0.2578510
  C       -1.6559060    -0.7921710     0.8065690
  C       -2.5248970     0.8906690    -0.7109620
  C        2.1811870    -2.0318670    -0.6465910
  C        3.4033030    -1.5159070    -0.2032770
  C       -2.9440810    -1.3050920     0.9648860
  C       -3.8044560     0.3593180    -0.5664320
  C       -4.0170070    -0.7392060     0.2722830
  H        0.1024420    -1.6051810    -0.9713120
  H        4.4463530     0.1894450     0.5890330
  H       -0.8230280    -1.2242950     1.3551890
  H       -2.3449380     1.7597130    -1.3385060
  H        2.1152040    -3.0473210    -1.0273030
  H        4.2948280    -2.1392510    -0.2075020
  H       -3.1109310    -2.1478130     1.6315680
  H       -4.6398270     0.8046650    -1.1014830
  H       -5.0175780    -1.1483650     0.3907290
  H        1.7883890     2.5757360     0.3792320
  H        3.4241960     2.3021350     0.7487690
units angstrom
no_reorient  #important for SAPT in psi4, default
symmetry c1  #important for SAPT in psi4, default
}

set PROPERTIES_ORIGIN ["COM"]
properties('MP2/aug-cc-pvtz', properties = ['dipole'])
--------------------------------------------------------------------------

    Molecular point group: c1
  Charge       = 0
  Multiplicity = 1
  Basis Set: AUG-CC-PVTZ
    Blend: AUG-CC-PVTZ
  Basis Set: (AUG-CC-PVTZ AUX)
    Blend: AUG-CC-PVTZ-JKFIT

    Orbital Energies [Eh]
    ---------------------

    Doubly Occupied:

       1A    -20.515103     2A    -15.574651     3A    -11.333436
       4A    -11.320431     5A    -11.275688     6A    -11.273314
       7A    -11.252776     8A    -11.246141     9A    -11.242413
      10A    -11.240828    11A    -11.240206    12A    -11.238417
      13A    -11.237591    14A    -11.236888    15A    -11.234586
      16A     -1.300612    17A     -1.238337    18A     -1.162377
      19A     -1.149134    20A     -1.085629    21A     -1.016880
      22A     -1.016133    23A     -1.014074    24A     -0.915845
      25A     -0.856875    26A     -0.827806    27A     -0.822876
      28A     -0.777098    29A     -0.720490    30A     -0.708996
      31A     -0.699134    32A     -0.663925    33A     -0.635477
      34A     -0.633669    35A     -0.620050    36A     -0.617575
      37A     -0.604850    38A     -0.588800    39A     -0.578291
      40A     -0.553986    41A     -0.538780    42A     -0.528065
      43A     -0.509696    44A     -0.500519    45A     -0.490869
      46A     -0.470047    47A     -0.460933    48A     -0.407537
      49A     -0.362266    50A     -0.338521    51A     -0.331806
      52A     -0.315751

  @DF-RHF Final Energy:  -628.16071862746605

   => Energetics <=

    Nuclear Repulsion Energy =            893.8981262538661667
    One-Electron Energy =               -2627.0653301583961365
    Two-Electron Energy =                1105.0064852770638026
    Total Energy =                       -628.1607186274661672
  Basis Set: (AUG-CC-PVTZ AUX)
    Blend: AUG-CC-PVTZ-RI
    Molecular point group: c1

    Geometry (in Angstrom), charge = 0, multiplicity = 1:

       Center              X                  Y                   Z               Mass
    ------------   -----------------  -----------------  -----------------  -----------------
         O           -0.050600544941     2.174278726698    -0.305417696512    15.994914619570
         N            2.471745455059     1.921543726698     0.752028303488    14.003074004430
         C            1.107233455059     0.092673726698    -0.139464696512    12.000000000000
         C           -1.450529544941     0.295361726698    -0.036825696512    12.000000000000
         C            0.054617255059     0.825825226698    -0.166598196512    12.000000000000
         C            2.359463455059     0.631933726698     0.256374303488    12.000000000000
         C            1.045261455059    -1.231638273302    -0.613609696512    12.000000000000
         C            3.479273455059    -0.219724273302     0.259831303488    12.000000000000
         C           -1.664752544941    -0.803715273302     0.808549303488    12.000000000000
         C           -2.533743544941     0.879124726698    -0.708981696512    12.000000000000
         C            2.172340455059    -2.043411273302    -0.644610696512    12.000000000000
         C            3.394456455059    -1.527451273302    -0.201296696512    12.000000000000
         C           -2.952927544941    -1.316636273302     0.966866303488    12.000000000000
         C           -3.813302544941     0.347773726698    -0.564451696512    12.000000000000
         C           -4.025853544941    -0.750750273302     0.274263303488    12.000000000000
         H            0.093595455059    -1.616725273302    -0.969331696512     1.007825032230
         H            4.437506455059     0.177900726698     0.591013303488     1.007825032230
         H           -0.831874544941    -1.235839273302     1.357169303488     1.007825032230
         H           -2.353784544941     1.748168726698    -1.336525696512     1.007825032230
         H            2.106357455059    -3.058865273302    -1.025322696512     1.007825032230
         H            4.285981455059    -2.150795273302    -0.205521696512     1.007825032230
         H           -3.119777544941    -2.159357273302     1.633548303488     1.007825032230
         H           -4.648673544941     0.793120726698    -1.099502696512     1.007825032230
         H           -5.026424544941    -1.159909273302     0.392709303488     1.007825032230
         H            1.779542455059     2.564191726698     0.381212303488     1.007825032230
         H            3.415349455059     2.290590726698     0.750749303488     1.007825032230

  Basis Set: AUG-CC-PVTZ
    Blend: AUG-CC-PVTZ
  Basis Set: (AUG-CC-PVTZ AUX)
    Blend: AUG-CC-PVTZ-JKFIT
	 Reference Energy          =    -628.1607186274660535 [Eh]
	 Singles Energy            =      -0.0000000000000000 [Eh]
	 Same-Spin Energy          =      -0.6961844730218903 [Eh]
	 Opposite-Spin Energy      =      -2.1186375272731568 [Eh]
	 Correlation Energy        =      -2.8148220002950470 [Eh]
	 Total Energy              =    -630.9755406277611200 [Eh]

	 ================> DF-SCS-MP2 Energies <==================
	-----------------------------------------------------------
	 SCS Same-Spin Scale       =       0.3333333333333333 [-]
	 SCS Opposite-Spin Scale   =       1.2000000000000000 [-]
	 SCS Same-Spin Energy      =      -0.2320614910072968 [Eh]
	 SCS Opposite-Spin Energy  =      -2.5423650327277882 [Eh]
	 SCS Correlation Energy    =      -2.7744265237350851 [Eh]
	 SCS Total Energy          =    -630.9351451512011408 [Eh]
	-----------------------------------------------------------

  Dipole Moment: [D]
     X:     2.1820      Y:    -2.2066      Z:    -0.0938     Total:     3.1047

*** Psi4 exiting successfully. Buy a developer a beer!
