                               Psi4 1.3.2 release

  ==> Input File <==

--------------------------------------------------------------------------
#psi4
#
memory 32 gb

molecule  {
0 1
  O        0.0014869     2.1828044    -0.3091758
  N        2.4805920     1.9330880     0.7500480
  C        1.1160800     0.1042180    -0.1414450
  C       -1.4416830     0.3069060    -0.0388060
  C       -0.1006150     0.9516510    -0.1728080
  C        2.3683100     0.6434780     0.2543940
  C        1.0541080    -1.2200940    -0.6155900
  C        3.4881200    -0.2081800     0.2578510
  C       -1.6559060    -0.7921710     0.8065690
  C       -2.5248970     0.8906690    -0.7109620
  C        2.1811870    -2.0318670    -0.6465910
  C        3.4033030    -1.5159070    -0.2032770
  C       -2.9440810    -1.3050920     0.9648860
  C       -3.8044560     0.3593180    -0.5664320
  C       -4.0170070    -0.7392060     0.2722830
  H        0.1024420    -1.6051810    -0.9713120
  H        4.4463530     0.1894450     0.5890330
  H       -0.8230280    -1.2242950     1.3551890
  H       -2.3449380     1.7597130    -1.3385060
  H        2.1152040    -3.0473210    -1.0273030
  H        4.2948280    -2.1392510    -0.2075020
  H       -3.1109310    -2.1478130     1.6315680
  H       -4.6398270     0.8046650    -1.1014830
  H       -5.0175780    -1.1483650     0.3907290
  H        1.7883890     2.5757360     0.3792320
  H        3.4241960     2.3021350     0.7487690
units angstrom
no_reorient  #important for SAPT in psi4, default
symmetry c1  #important for SAPT in psi4, default
}

set PROPERTIES_ORIGIN ["COM"]
properties('MP2/aug-cc-pvtz', properties = ['dipole'])
--------------------------------------------------------------------------

    Molecular point group: c1
  Charge       = 0
  Multiplicity = 1
  Basis Set: AUG-CC-PVTZ
    Blend: AUG-CC-PVTZ
  Basis Set: (AUG-CC-PVTZ AUX)
    Blend: AUG-CC-PVTZ-JKFIT

    Orbital Energies [Eh]
    ---------------------

    Doubly Occupied:

       1A    -20.541560     2A    -15.559937     3A    -11.341882
       4A    -11.297677     5A    -11.254135     6A    -11.253345
       7A    -11.252911     8A    -11.252812     9A    -11.251926
      10A    -11.249686    11A    -11.246980    12A    -11.245581
      13A    -11.239540    14A    -11.232563    15A    -11.228826
      16A     -1.374837    17A     -1.226796    18A     -1.165742
      19A     -1.137478    20A     -1.057664    21A     -1.027653
      22A     -1.021307    23A     -0.996653    24A     -0.893344
      25A     -0.849114    26A     -0.839631    27A     -0.819639
      28A     -0.771139    29A     -0.718296    30A     -0.702073
      31A     -0.687357    32A     -0.670075    33A     -0.649482
      34A     -0.634911    35A     -0.616328    36A     -0.610985
      37A     -0.603822    38A     -0.598246    39A     -0.585833
      40A     -0.554695    41A     -0.535617    42A     -0.527222
      43A     -0.519911    44A     -0.509056    45A     -0.503626
      46A     -0.491186    47A     -0.452761    48A     -0.421685
      49A     -0.351530    50A     -0.347608    51A     -0.345427
      52A     -0.300781

  @DF-RHF Final Energy:  -628.22565925686706

   => Energetics <=

    Nuclear Repulsion Energy =            893.3723827971477931
    One-Electron Energy =               -2626.0583404059775603
    Two-Electron Energy =                1104.4602983519625923
    Total Energy =                       -628.2256592568671749
  Basis Set: (AUG-CC-PVTZ AUX)
    Blend: AUG-CC-PVTZ-RI
    Molecular point group: c1

    Geometry (in Angstrom), charge = 0, multiplicity = 1:

       Center              X                  Y                   Z               Mass
    ------------   -----------------  -----------------  -----------------  -----------------
         O           -0.000878597866     2.164546769342    -0.306793689498    15.994914619570
         N            2.478226502134     1.914830369342     0.752430110502    14.003074004430
         C            1.113714502134     0.085960369342    -0.139062889498    12.000000000000
         C           -1.444048497866     0.288648369342    -0.036423889498    12.000000000000
         C           -0.102980497866     0.933393369342    -0.170425889498    12.000000000000
         C            2.365944502134     0.625220369342     0.256776110502    12.000000000000
         C            1.051742502134    -1.238351630658    -0.613207889498    12.000000000000
         C            3.485754502134    -0.226437630658     0.260233110502    12.000000000000
         C           -1.658271497866    -0.810428630658     0.808951110502    12.000000000000
         C           -2.527262497866     0.872411369342    -0.708579889498    12.000000000000
         C            2.178821502134    -2.050124630658    -0.644208889498    12.000000000000
         C            3.400937502134    -1.534164630658    -0.200894889498    12.000000000000
         C           -2.946446497866    -1.323349630658     0.967268110502    12.000000000000
         C           -3.806821497866     0.341060369342    -0.564049889498    12.000000000000
         C           -4.019372497866    -0.757463630658     0.274665110502    12.000000000000
         H            0.100076502134    -1.623438630658    -0.968929889498     1.007825032230
         H            4.443987502134     0.171187369342     0.591415110502     1.007825032230
         H           -0.825393497866    -1.242552630658     1.357571110502     1.007825032230
         H           -2.347303497866     1.741455369342    -1.336123889498     1.007825032230
         H            2.112838502134    -3.065578630658    -1.024920889498     1.007825032230
         H            4.292462502134    -2.157508630658    -0.205119889498     1.007825032230
         H           -3.113296497866    -2.166070630658     1.633950110502     1.007825032230
         H           -4.642192497866     0.786407369342    -1.099100889498     1.007825032230
         H           -5.019943497866    -1.166622630658     0.393111110502     1.007825032230
         H            1.786023502134     2.557478369342     0.381614110502     1.007825032230
         H            3.421830502134     2.283877369342     0.751151110502     1.007825032230

  Basis Set: AUG-CC-PVTZ
    Blend: AUG-CC-PVTZ
  Basis Set: (AUG-CC-PVTZ AUX)
    Blend: AUG-CC-PVTZ-JKFIT
	 Reference Energy          =    -628.2256592568670612 [Eh]
	 Singles Energy            =      -0.0000000000000000 [Eh]
	 Same-Spin Energy          =      -0.6916588599580048 [Eh]
	 Opposite-Spin Energy      =      -2.1096788417438472 [Eh]
	 Correlation Energy        =      -2.8013377017018519 [Eh]
	 Total Energy              =    -631.0269969585689296 [Eh]

	 ================> DF-SCS-MP2 Energies <==================
	-----------------------------------------------------------
	 SCS Same-Spin Scale       =       0.3333333333333333 [-]
	 SCS Opposite-Spin Scale   =       1.2000000000000000 [-]
	 SCS Same-Spin Energy      =      -0.2305529533193349 [Eh]
	 SCS Opposite-Spin Energy  =      -2.5316146100926167 [Eh]
	 SCS Correlation Energy    =      -2.7621675634119516 [Eh]
	 SCS Total Energy          =    -630.9878268202789968 [Eh]
	-----------------------------------------------------------

  Dipole Moment: [D]
     X:     0.1629      Y:    -1.6301      Z:    -0.0937     Total:     1.6409

*** Psi4 exiting successfully. Buy a developer a beer!
