                               Psi4 1.3.2 release

  ==> Input File <==

--------------------------------------------------------------------------
#psi4
#
memory 32 gb

molecule  {
0 1
  O        0.0875431     2.1722727    -0.3122310
  N        2.4805920     1.9330880     0.7500480
  C        1.1160800     0.1042180    -0.1414450
  C       -1.4416830     0.3069060    -0.0388060
  C       -0.1006150     0.9516510    -0.1728080
  C        2.3683100     0.6434780     0.2543940
  C        1.0541080    -1.2200940    -0.6155900
  C        3.4881200    -0.2081800     0.2578510
  C       -1.6559060    -0.7921710     0.8065690
  C       -2.5248970     0.8906690    -0.7109620
  C        2.1811870    -2.0318670    -0.6465910
  C        3.4033030    -1.5159070    -0.2032770
  C       -2.9440810    -1.3050920     0.9648860
  C       -3.8044560     0.3593180    -0.5664320
  C       -4.0170070    -0.7392060     0.2722830
  H        0.1024420    -1.6051810    -0.9713120
  H        4.4463530     0.1894450     0.5890330
  H       -0.8230280    -1.2242950     1.3551890
  H       -2.3449380     1.7597130    -1.3385060
  H        2.1152040    -3.0473210    -1.0273030
  H        4.2948280    -2.1392510    -0.2075020
  H       -3.1109310    -2.1478130     1.6315680
  H       -4.6398270     0.8046650    -1.1014830
  H       -5.0175780    -1.1483650     0.3907290
  H        1.7883890     2.5757360     0.3792320
  H        3.4241960     2.3021350     0.7487690
units angstrom
no_reorient  #important for SAPT in psi4, default
symmetry c1  #important for SAPT in psi4, default
}

set PROPERTIES_ORIGIN ["COM"]
properties('MP2/aug-cc-pvtz', properties = ['dipole'])
--------------------------------------------------------------------------

    Molecular point group: c1
  Charge       = 0
  Multiplicity = 1
  Basis Set: AUG-CC-PVTZ
    Blend: AUG-CC-PVTZ
  Basis Set: (AUG-CC-PVTZ AUX)
    Blend: AUG-CC-PVTZ-JKFIT

    Orbital Energies [Eh]
    ---------------------

    Doubly Occupied:

       1A    -20.541500     2A    -15.555896     3A    -11.342669
       4A    -11.294909     5A    -11.257100     6A    -11.255419
       7A    -11.255366     8A    -11.252751     9A    -11.250963
      10A    -11.250204    11A    -11.249177    12A    -11.247806
      13A    -11.236378    14A    -11.230509    15A    -11.226740
      16A     -1.376325    17A     -1.223196    18A     -1.168442
      19A     -1.135229    20A     -1.058214    21A     -1.029937
      22A     -1.021220    23A     -0.994375    24A     -0.893482
      25A     -0.848889    26A     -0.840880    27A     -0.818585
      28A     -0.772635    29A     -0.718632    30A     -0.701633
      31A     -0.684942    32A     -0.669320    33A     -0.652771
      34A     -0.635828    35A     -0.617813    36A     -0.610215
      37A     -0.602406    38A     -0.599684    39A     -0.581945
      40A     -0.554508    41A     -0.535254    42A     -0.528328
      43A     -0.520230    44A     -0.507445    45A     -0.506162
      46A     -0.491357    47A     -0.450179    48A     -0.420459
      49A     -0.352115    50A     -0.350229    51A     -0.345061
      52A     -0.298087

  @DF-RHF Final Energy:  -628.22231994582296

   => Energetics <=

    Nuclear Repulsion Energy =            893.8323100737372897
    One-Electron Energy =               -2626.9824618717361773
    Two-Electron Energy =                1104.9278318521760411
    Total Energy =                       -628.2223199458228464
  Basis Set: (AUG-CC-PVTZ AUX)
    Blend: AUG-CC-PVTZ-RI
    Molecular point group: c1

    Geometry (in Angstrom), charge = 0, multiplicity = 1:

       Center              X                  Y                   Z               Mass
    ------------   -----------------  -----------------  -----------------  -----------------
         O            0.078193467833     2.154869799242    -0.309600936101    15.994914619570
         N            2.471242367833     1.915685099242     0.752678063899    14.003074004430
         C            1.106730367833     0.086815099242    -0.138814936101    12.000000000000
         C           -1.451032632167     0.289503099242    -0.036175936101    12.000000000000
         C           -0.109964632167     0.934248099242    -0.170177936101    12.000000000000
         C            2.358960367833     0.626075099242     0.257024063899    12.000000000000
         C            1.044758367833    -1.237496900758    -0.612959936101    12.000000000000
         C            3.478770367833    -0.225582900758     0.260481063899    12.000000000000
         C           -1.665255632167    -0.809573900758     0.809199063899    12.000000000000
         C           -2.534246632167     0.873266099242    -0.708331936101    12.000000000000
         C            2.171837367833    -2.049269900758    -0.643960936101    12.000000000000
         C            3.393953367833    -1.533309900758    -0.200646936101    12.000000000000
         C           -2.953430632167    -1.322494900758     0.967516063899    12.000000000000
         C           -3.813805632167     0.341915099242    -0.563801936101    12.000000000000
         C           -4.026356632167    -0.756608900758     0.274913063899    12.000000000000
         H            0.093092367833    -1.622583900758    -0.968681936101     1.007825032230
         H            4.437003367833     0.172042099242     0.591663063899     1.007825032230
         H           -0.832377632167    -1.241697900758     1.357819063899     1.007825032230
         H           -2.354287632167     1.742310099242    -1.335875936101     1.007825032230
         H            2.105854367833    -3.064723900758    -1.024672936101     1.007825032230
         H            4.285478367833    -2.156653900758    -0.204871936101     1.007825032230
         H           -3.120280632167    -2.165215900758     1.634198063899     1.007825032230
         H           -4.649176632167     0.787262099242    -1.098852936101     1.007825032230
         H           -5.026927632167    -1.165767900758     0.393359063899     1.007825032230
         H            1.779039367833     2.558333099242     0.381862063899     1.007825032230
         H            3.414846367833     2.284732099242     0.751399063899     1.007825032230

  Basis Set: AUG-CC-PVTZ
    Blend: AUG-CC-PVTZ
  Basis Set: (AUG-CC-PVTZ AUX)
    Blend: AUG-CC-PVTZ-JKFIT
	 Reference Energy          =    -628.2223199458229601 [Eh]
	 Singles Energy            =      -0.0000000000000000 [Eh]
	 Same-Spin Energy          =      -0.6919961961832501 [Eh]
	 Opposite-Spin Energy      =      -2.1100724888887803 [Eh]
	 Correlation Energy        =      -2.8020686850720304 [Eh]
	 Total Energy              =    -631.0243886308950323 [Eh]

	 ================> DF-SCS-MP2 Energies <==================
	-----------------------------------------------------------
	 SCS Same-Spin Scale       =       0.3333333333333333 [-]
	 SCS Opposite-Spin Scale   =       1.2000000000000000 [-]
	 SCS Same-Spin Energy      =      -0.2306653987277500 [Eh]
	 SCS Opposite-Spin Energy  =      -2.5320869866665361 [Eh]
	 SCS Correlation Energy    =      -2.7627523853942861 [Eh]
	 SCS Total Energy          =    -630.9850723312172249 [Eh]
	-----------------------------------------------------------

  Dipole Moment: [D]
     X:    -0.2133      Y:    -1.6048      Z:    -0.0803     Total:     1.6209

*** Psi4 exiting successfully. Buy a developer a beer!
