                               Psi4 1.3.2 release

  ==> Input File <==

--------------------------------------------------------------------------
#psi4
#
memory 32 gb

molecule  {
0 1
  O       -0.0417540     2.1858230    -0.3073980
  N        2.4805920     1.9330880     0.7500480
  C        1.1160800     0.1042180    -0.1414450
  C       -1.4416830     0.3069060    -0.0388060
  C       -0.1006150     0.9516510    -0.1728080
  C        2.3683100     0.6434780     0.2543940
  C        1.0541080    -1.2200940    -0.6155900
  C        3.4881200    -0.2081800     0.2578510
  C       -1.6559060    -0.7921710     0.8065690
  C       -2.5248970     0.8906690    -0.7109620
  C        2.1811870    -2.0318670    -0.6465910
  C        3.4033030    -1.5159070    -0.2032770
  C       -2.9440810    -1.3050920     0.9648860
  C       -3.8044560     0.3593180    -0.5664320
  C       -4.0170070    -0.7392060     0.2722830
  H        0.1024420    -1.6051810    -0.9713120
  H        4.4463530     0.1894450     0.5890330
  H       -0.8230280    -1.2242950     1.3551890
  H       -2.3449380     1.7597130    -1.3385060
  H        2.1152040    -3.0473210    -1.0273030
  H        4.2948280    -2.1392510    -0.2075020
  H       -3.1109310    -2.1478130     1.6315680
  H       -4.6398270     0.8046650    -1.1014830
  H       -5.0175780    -1.1483650     0.3907290
  H        1.7883890     2.5757360     0.3792320
  H        3.4241960     2.3021350     0.7487690
units angstrom
no_reorient  #important for SAPT in psi4, default
symmetry c1  #important for SAPT in psi4, default
}

set PROPERTIES_ORIGIN ["COM"]
properties('MP2/aug-cc-pvtz', properties = ['dipole'])
--------------------------------------------------------------------------

    Molecular point group: c1
  Charge       = 0
  Multiplicity = 1
  Basis Set: AUG-CC-PVTZ
    Blend: AUG-CC-PVTZ
  Basis Set: (AUG-CC-PVTZ AUX)
    Blend: AUG-CC-PVTZ-JKFIT

    Orbital Energies [Eh]
    ---------------------

    Doubly Occupied:

       1A    -20.541523     2A    -15.561912     3A    -11.341560
       4A    -11.299016     5A    -11.254497     6A    -11.254213
       7A    -11.252614     8A    -11.251483     9A    -11.250191
      10A    -11.248106    11A    -11.245845    12A    -11.244429
      13A    -11.241154    14A    -11.233568    15A    -11.229839
      16A     -1.374366    17A     -1.228557    18A     -1.164364
      19A     -1.138574    20A     -1.057500    21A     -1.026513
      22A     -1.021109    23A     -0.997781    24A     -0.893357
      25A     -0.849294    26A     -0.838882    27A     -0.820059
      28A     -0.770494    29A     -0.718224    30A     -0.702354
      31A     -0.688640    32A     -0.670406    33A     -0.647766
      34A     -0.634549    35A     -0.615879    36A     -0.611145
      37A     -0.604725    38A     -0.597215    39A     -0.587577
      40A     -0.554866    41A     -0.535809    42A     -0.526832
      43A     -0.519670    44A     -0.509662    45A     -0.502317
      46A     -0.490962    47A     -0.454028    48A     -0.421992
      49A     -0.352045    50A     -0.346358    51A     -0.344552
      52A     -0.302091

  @DF-RHF Final Energy:  -628.22607805420444

   => Energetics <=

    Nuclear Repulsion Energy =            893.2038404072487765
    One-Electron Energy =               -2625.7189070745935169
    Two-Electron Energy =                1104.2889886131404182
    Total Energy =                       -628.2260780542044358
  Basis Set: (AUG-CC-PVTZ AUX)
    Blend: AUG-CC-PVTZ-RI
    Molecular point group: c1

    Geometry (in Angstrom), charge = 0, multiplicity = 1:

       Center              X                  Y                   Z               Mass
    ------------   -----------------  -----------------  -----------------  -----------------
         O           -0.040610160329     2.167320386321    -0.305160171885    15.994914619570
         N            2.481735839671     1.914585386321     0.752285828115    14.003074004430
         C            1.117223839671     0.085715386321    -0.139207171885    12.000000000000
         C           -1.440539160329     0.288403386321    -0.036568171885    12.000000000000
         C           -0.099471160329     0.933148386321    -0.170570171885    12.000000000000
         C            2.369453839671     0.624975386321     0.256631828115    12.000000000000
         C            1.055251839671    -1.238596613679    -0.613352171885    12.000000000000
         C            3.489263839671    -0.226682613679     0.260088828115    12.000000000000
         C           -1.654762160329    -0.810673613679     0.808806828115    12.000000000000
         C           -2.523753160329     0.872166386321    -0.708724171885    12.000000000000
         C            2.182330839671    -2.050369613679    -0.644353171885    12.000000000000
         C            3.404446839671    -1.534409613679    -0.201039171885    12.000000000000
         C           -2.942937160329    -1.323594613679     0.967123828115    12.000000000000
         C           -3.803312160329     0.340815386321    -0.564194171885    12.000000000000
         C           -4.015863160329    -0.757708613679     0.274520828115    12.000000000000
         H            0.103585839671    -1.623683613679    -0.969074171885     1.007825032230
         H            4.447496839671     0.170942386321     0.591270828115     1.007825032230
         H           -0.821884160329    -1.242797613679     1.357426828115     1.007825032230
         H           -2.343794160329     1.741210386321    -1.336268171885     1.007825032230
         H            2.116347839671    -3.065823613679    -1.025065171885     1.007825032230
         H            4.295971839671    -2.157753613679    -0.205264171885     1.007825032230
         H           -3.109787160329    -2.166315613679     1.633805828115     1.007825032230
         H           -4.638683160329     0.786162386321    -1.099245171885     1.007825032230
         H           -5.016434160329    -1.166867613679     0.392966828115     1.007825032230
         H            1.789532839671     2.557233386321     0.381469828115     1.007825032230
         H            3.425339839671     2.283632386321     0.751006828115     1.007825032230

  Basis Set: AUG-CC-PVTZ
    Blend: AUG-CC-PVTZ
  Basis Set: (AUG-CC-PVTZ AUX)
    Blend: AUG-CC-PVTZ-JKFIT
	 Reference Energy          =    -628.2260780542044358 [Eh]
	 Singles Energy            =      -0.0000000000000000 [Eh]
	 Same-Spin Energy          =      -0.6915532576418828 [Eh]
	 Opposite-Spin Energy      =      -2.1095876688403044 [Eh]
	 Correlation Energy        =      -2.8011409264821872 [Eh]
	 Total Energy              =    -631.0272189806865981 [Eh]

	 ================> DF-SCS-MP2 Energies <==================
	-----------------------------------------------------------
	 SCS Same-Spin Scale       =       0.3333333333333333 [-]
	 SCS Opposite-Spin Scale   =       1.2000000000000000 [-]
	 SCS Same-Spin Energy      =      -0.2305177525472943 [Eh]
	 SCS Opposite-Spin Energy  =      -2.5315052026083653 [Eh]
	 SCS Correlation Energy    =      -2.7620229551556594 [Eh]
	 SCS Total Energy          =    -630.9881010093600935 [Eh]
	-----------------------------------------------------------

  Dipole Moment: [D]
     X:     0.3517      Y:    -1.6359      Z:    -0.1018     Total:     1.6763

*** Psi4 exiting successfully. Buy a developer a beer!
