                               Psi4 1.3.2 release

  ==> Input File <==

--------------------------------------------------------------------------
#psi4
#
memory 32 gb

molecule  {
0 1
  O       -0.0417540     2.1858230    -0.3073980
  N        2.4805920     1.9330880     0.7500480
  C        1.0201121     0.1120999    -0.1611014
  C       -1.4416830     0.3069060    -0.0388060
  C       -0.1006150     0.9516510    -0.1728080
  C        2.3683100     0.6434780     0.2543940
  C        1.0541080    -1.2200940    -0.6155900
  C        3.4881200    -0.2081800     0.2578510
  C       -1.6559060    -0.7921710     0.8065690
  C       -2.5248970     0.8906690    -0.7109620
  C        2.1811870    -2.0318670    -0.6465910
  C        3.4033030    -1.5159070    -0.2032770
  C       -2.9440810    -1.3050920     0.9648860
  C       -3.8044560     0.3593180    -0.5664320
  C       -4.0170070    -0.7392060     0.2722830
  H        0.1024420    -1.6051810    -0.9713120
  H        4.4463530     0.1894450     0.5890330
  H       -0.8230280    -1.2242950     1.3551890
  H       -2.3449380     1.7597130    -1.3385060
  H        2.1152040    -3.0473210    -1.0273030
  H        4.2948280    -2.1392510    -0.2075020
  H       -3.1109310    -2.1478130     1.6315680
  H       -4.6398270     0.8046650    -1.1014830
  H       -5.0175780    -1.1483650     0.3907290
  H        1.7883890     2.5757360     0.3792320
  H        3.4241960     2.3021350     0.7487690
units angstrom
no_reorient  #important for SAPT in psi4, default
symmetry c1  #important for SAPT in psi4, default
}

set PROPERTIES_ORIGIN ["COM"]
properties('MP2/aug-cc-pvtz', properties = ['dipole'])
--------------------------------------------------------------------------

    Molecular point group: c1
  Charge       = 0
  Multiplicity = 1
  Basis Set: AUG-CC-PVTZ
    Blend: AUG-CC-PVTZ
  Basis Set: (AUG-CC-PVTZ AUX)
    Blend: AUG-CC-PVTZ-JKFIT

    Orbital Energies [Eh]
    ---------------------

    Doubly Occupied:

       1A    -20.535440     2A    -15.567038     3A    -11.332813
       4A    -11.312790     5A    -11.261439     6A    -11.259869
       7A    -11.250211     8A    -11.249321     9A    -11.246652
      10A    -11.245225    11A    -11.243972    12A    -11.242462
      13A    -11.242414    14A    -11.234081    15A    -11.230724
      16A     -1.371514    17A     -1.228619    18A     -1.162853
      19A     -1.138480    20A     -1.065224    21A     -1.024841
      22A     -1.020513    23A     -0.995807    24A     -0.901718
      25A     -0.848066    26A     -0.835484    27A     -0.819303
      28A     -0.771817    29A     -0.718928    30A     -0.704067
      31A     -0.692994    32A     -0.672679    33A     -0.646588
      34A     -0.633251    35A     -0.614714    36A     -0.610298
      37A     -0.605283    38A     -0.595301    39A     -0.585803
      40A     -0.553689    41A     -0.541275    42A     -0.524397
      43A     -0.518653    44A     -0.501850    45A     -0.500457
      46A     -0.486461    47A     -0.456598    48A     -0.423429
      49A     -0.355148    50A     -0.344857    51A     -0.342584
      52A     -0.299159

  @DF-RHF Final Energy:  -628.21356770598493

   => Energetics <=

    Nuclear Repulsion Energy =            893.3935639831537401
    One-Electron Energy =               -2626.0799624720752945
    Two-Electron Energy =                1104.4728307829366258
    Total Energy =                       -628.2135677059848149
  Basis Set: (AUG-CC-PVTZ AUX)
    Blend: AUG-CC-PVTZ-RI
    Molecular point group: c1

    Geometry (in Angstrom), charge = 0, multiplicity = 1:

       Center              X                  Y                   Z               Mass
    ------------   -----------------  -----------------  -----------------  -----------------
         O           -0.034766893366     2.166840475373    -0.303963338436    15.994914619570
         N            2.487579106634     1.914105475373     0.753482661564    14.003074004430
         C            1.027099206634     0.093117375373    -0.157666738436    12.000000000000
         C           -1.434695893366     0.287923475373    -0.035371338436    12.000000000000
         C           -0.093627893366     0.932668475373    -0.169373338436    12.000000000000
         C            2.375297106634     0.624495475373     0.257828661564    12.000000000000
         C            1.061095106634    -1.239076524627    -0.612155338436    12.000000000000
         C            3.495107106634    -0.227162524627     0.261285661564    12.000000000000
         C           -1.648918893366    -0.811153524627     0.810003661564    12.000000000000
         C           -2.517909893366     0.871686475373    -0.707527338436    12.000000000000
         C            2.188174106634    -2.050849524627    -0.643156338436    12.000000000000
         C            3.410290106634    -1.534889524627    -0.199842338436    12.000000000000
         C           -2.937093893366    -1.324074524627     0.968320661564    12.000000000000
         C           -3.797468893366     0.340335475373    -0.562997338436    12.000000000000
         C           -4.010019893366    -0.758188524627     0.275717661564    12.000000000000
         H            0.109429106634    -1.624163524627    -0.967877338436     1.007825032230
         H            4.453340106634     0.170462475373     0.592467661564     1.007825032230
         H           -0.816040893366    -1.243277524627     1.358623661564     1.007825032230
         H           -2.337950893366     1.740730475373    -1.335071338436     1.007825032230
         H            2.122191106634    -3.066303524627    -1.023868338436     1.007825032230
         H            4.301815106634    -2.158233524627    -0.204067338436     1.007825032230
         H           -3.103943893366    -2.166795524627     1.635002661564     1.007825032230
         H           -4.632839893366     0.785682475373    -1.098048338436     1.007825032230
         H           -5.010590893366    -1.167347524627     0.394163661564     1.007825032230
         H            1.795376106634     2.556753475373     0.382666661564     1.007825032230
         H            3.431183106634     2.283152475373     0.752203661564     1.007825032230

  Basis Set: AUG-CC-PVTZ
    Blend: AUG-CC-PVTZ
  Basis Set: (AUG-CC-PVTZ AUX)
    Blend: AUG-CC-PVTZ-JKFIT
	 Reference Energy          =    -628.2135677059849286 [Eh]
	 Singles Energy            =      -0.0000000000000000 [Eh]
	 Same-Spin Energy          =      -0.6923699558974389 [Eh]
	 Opposite-Spin Energy      =      -2.1108393038714537 [Eh]
	 Correlation Energy        =      -2.8032092597688925 [Eh]
	 Total Energy              =    -631.0167769657538201 [Eh]

	 ================> DF-SCS-MP2 Energies <==================
	-----------------------------------------------------------
	 SCS Same-Spin Scale       =       0.3333333333333333 [-]
	 SCS Opposite-Spin Scale   =       1.2000000000000000 [-]
	 SCS Same-Spin Energy      =      -0.2307899852991463 [Eh]
	 SCS Opposite-Spin Energy  =      -2.5330071646457442 [Eh]
	 SCS Correlation Energy    =      -2.7637971499448906 [Eh]
	 SCS Total Energy          =    -630.9773648559298636 [Eh]
	-----------------------------------------------------------

  Dipole Moment: [D]
     X:     0.7422      Y:    -1.6756      Z:    -0.0486     Total:     1.8332

*** Psi4 exiting successfully. Buy a developer a beer!
