                               Psi4 1.4a3.dev225

  ==> Input File <==

--------------------------------------------------------------------------
#psi4
#
memory 32 gb

molecule  {
0 1
  O       -0.0417540     2.1858230    -0.3073980
  N        2.4805920     1.9330880     0.7500480
  C        1.1160800     0.1042180    -0.1414450
  C       -1.4416830     0.3069060    -0.0388060
  C       -0.1416347     0.9802214    -0.1738654
  C        2.3683100     0.6434780     0.2543940
  C        1.0541080    -1.2200940    -0.6155900
  C        3.4881200    -0.2081800     0.2578510
  C       -1.6559060    -0.7921710     0.8065690
  C       -2.5248970     0.8906690    -0.7109620
  C        2.1811870    -2.0318670    -0.6465910
  C        3.4033030    -1.5159070    -0.2032770
  C       -2.9440810    -1.3050920     0.9648860
  C       -3.8044560     0.3593180    -0.5664320
  C       -4.0170070    -0.7392060     0.2722830
  H        0.1024420    -1.6051810    -0.9713120
  H        4.4463530     0.1894450     0.5890330
  H       -0.8230280    -1.2242950     1.3551890
  H       -2.3449380     1.7597130    -1.3385060
  H        2.1152040    -3.0473210    -1.0273030
  H        4.2948280    -2.1392510    -0.2075020
  H       -3.1109310    -2.1478130     1.6315680
  H       -4.6398270     0.8046650    -1.1014830
  H       -5.0175780    -1.1483650     0.3907290
  H        1.7883890     2.5757360     0.3792320
  H        3.4241960     2.3021350     0.7487690
units angstrom
no_reorient  #important for SAPT in psi4, default
symmetry c1  #important for SAPT in psi4, default
}

set PROPERTIES_ORIGIN ["COM"]
properties('MP2/aug-cc-pvtz', properties = ['dipole'])
--------------------------------------------------------------------------

    Molecular point group: c1
  Charge       = 0
  Multiplicity = 1
  Basis Set: AUG-CC-PVTZ
    Blend: AUG-CC-PVTZ
  Basis Set: (AUG-CC-PVTZ AUX)
    Blend: AUG-CC-PVTZ-JKFIT

    Orbital Energies [Eh]
    ---------------------

    Doubly Occupied:

       1A    -20.545864     2A    -15.559412     3A    -11.341562
       4A    -11.294571     5A    -11.255533     6A    -11.253994
       7A    -11.250850     8A    -11.250158     9A    -11.249937
      10A    -11.249384    11A    -11.247790    12A    -11.246091
      13A    -11.240629    14A    -11.230828    15A    -11.227089
      16A     -1.393019    17A     -1.225702    18A     -1.167158
      19A     -1.134623    20A     -1.056566    21A     -1.028687
      22A     -1.019188    23A     -0.993625    24A     -0.892218
      25A     -0.847867    26A     -0.839504    27A     -0.817625
      28A     -0.770423    29A     -0.717557    30A     -0.701633
      31A     -0.686148    32A     -0.670488    33A     -0.653930
      34A     -0.635961    35A     -0.617482    36A     -0.610917
      37A     -0.602702    38A     -0.598885    39A     -0.587089
      40A     -0.556400    41A     -0.536498    42A     -0.528903
      43A     -0.520819    44A     -0.508634    45A     -0.504667
      46A     -0.495111    47A     -0.451468    48A     -0.419117
      49A     -0.350910    50A     -0.348666    51A     -0.344804
      52A     -0.298933

  @DF-RHF Final Energy:  -628.22606443494533

   => Energetics <=

    Nuclear Repulsion Energy =            893.1284208012153840
    One-Electron Energy =               -2625.5537378618369075
    Two-Electron Energy =                1104.1992526256763085
    Total Energy =                       -628.2260644349453287
  Basis Set: (AUG-CC-PVTZ AUX)
    Blend: AUG-CC-PVTZ-RI
    Molecular point group: c1

    Geometry (in Angstrom), charge = 0, multiplicity = 1:

       Center              X                  Y                   Z               Mass
    ------------   -----------------  -----------------  -----------------  -----------------
         O           -0.038112564176     2.165580799705    -0.305095789206    15.994914619570
         N            2.484233435824     1.912845799705     0.752350210794    14.003074004430
         C            1.119721435824     0.083975799705    -0.139142789206    12.000000000000
         C           -1.438041564176     0.286663799705    -0.036503789206    12.000000000000
         C           -0.137993264176     0.959979199705    -0.171563189206    12.000000000000
         C            2.371951435824     0.623235799705     0.256696210794    12.000000000000
         C            1.057749435824    -1.240336200295    -0.613287789206    12.000000000000
         C            3.491761435824    -0.228422200295     0.260153210794    12.000000000000
         C           -1.652264564176    -0.812413200295     0.808871210794    12.000000000000
         C           -2.521255564176     0.870426799705    -0.708659789206    12.000000000000
         C            2.184828435824    -2.052109200295    -0.644288789206    12.000000000000
         C            3.406944435824    -1.536149200295    -0.200974789206    12.000000000000
         C           -2.940439564176    -1.325334200295     0.967188210794    12.000000000000
         C           -3.800814564176     0.339075799705    -0.564129789206    12.000000000000
         C           -4.013365564176    -0.759448200295     0.274585210794    12.000000000000
         H            0.106083435824    -1.625423200295    -0.969009789206     1.007825032230
         H            4.449994435824     0.169202799705     0.591335210794     1.007825032230
         H           -0.819386564176    -1.244537200295     1.357491210794     1.007825032230
         H           -2.341296564176     1.739470799705    -1.336203789206     1.007825032230
         H            2.118845435824    -3.067563200295    -1.025000789206     1.007825032230
         H            4.298469435824    -2.159493200295    -0.205199789206     1.007825032230
         H           -3.107289564176    -2.168055200295     1.633870210794     1.007825032230
         H           -4.636185564176     0.784422799705    -1.099180789206     1.007825032230
         H           -5.013936564176    -1.168607200295     0.393031210794     1.007825032230
         H            1.792030435824     2.555493799705     0.381534210794     1.007825032230
         H            3.427837435824     2.281892799705     0.751071210794     1.007825032230

  Basis Set: AUG-CC-PVTZ
    Blend: AUG-CC-PVTZ
  Basis Set: (AUG-CC-PVTZ AUX)
    Blend: AUG-CC-PVTZ-JKFIT
	 Reference Energy          =    -628.2260644349453287 [Eh]
	 Singles Energy            =      -0.0000000000000000 [Eh]
	 Same-Spin Energy          =      -0.6908646690699091 [Eh]
	 Opposite-Spin Energy      =      -2.1082436972429561 [Eh]
	 Correlation Energy        =      -2.7991083663128653 [Eh]
	 Total Energy              =    -631.0251728012582362 [Eh]

	 ================> DF-SCS-MP2 Energies <==================
	-----------------------------------------------------------
	 SCS Same-Spin Scale       =       0.3333333333333333 [-]
	 SCS Opposite-Spin Scale   =       1.2000000000000000 [-]
	 SCS Same-Spin Energy      =      -0.2302882230233030 [Eh]
	 SCS Opposite-Spin Energy  =      -2.5298924366915472 [Eh]
	 SCS Correlation Energy    =      -2.7601806597148504 [Eh]
	 SCS Total Energy          =    -630.9862450946601484 [Eh]
	-----------------------------------------------------------

  Dipole Moment: [D]
     X:    -0.1012      Y:    -1.4893      Z:    -0.0951     Total:     1.4958

*** Psi4 exiting successfully. Buy a developer a beer!
