                               Psi4 1.3.2 release

  ==> Input File <==

--------------------------------------------------------------------------
#psi4
#
memory 32 gb

molecule  {
0 1
  O       -0.0417540     2.1858230    -0.3073980
  N        2.4805920     1.9330880     0.7500480
  C        1.1160800     0.1042180    -0.1414450
  C       -1.4416830     0.3069060    -0.0388060
  C       -0.1903770     0.9084962    -0.1638388
  C        2.3683100     0.6434780     0.2543940
  C        1.0541080    -1.2200940    -0.6155900
  C        3.4881200    -0.2081800     0.2578510
  C       -1.6559060    -0.7921710     0.8065690
  C       -2.5248970     0.8906690    -0.7109620
  C        2.1811870    -2.0318670    -0.6465910
  C        3.4033030    -1.5159070    -0.2032770
  C       -2.9440810    -1.3050920     0.9648860
  C       -3.8044560     0.3593180    -0.5664320
  C       -4.0170070    -0.7392060     0.2722830
  H        0.1024420    -1.6051810    -0.9713120
  H        4.4463530     0.1894450     0.5890330
  H       -0.8230280    -1.2242950     1.3551890
  H       -2.3449380     1.7597130    -1.3385060
  H        2.1152040    -3.0473210    -1.0273030
  H        4.2948280    -2.1392510    -0.2075020
  H       -3.1109310    -2.1478130     1.6315680
  H       -4.6398270     0.8046650    -1.1014830
  H       -5.0175780    -1.1483650     0.3907290
  H        1.7883890     2.5757360     0.3792320
  H        3.4241960     2.3021350     0.7487690
units angstrom
no_reorient  #important for SAPT in psi4, default
symmetry c1  #important for SAPT in psi4, default
}

set PROPERTIES_ORIGIN ["COM"]
properties('MP2/aug-cc-pvtz', properties = ['dipole'])
--------------------------------------------------------------------------

    Molecular point group: c1
  Charge       = 0
  Multiplicity = 1
  Basis Set: AUG-CC-PVTZ
    Blend: AUG-CC-PVTZ
  Basis Set: (AUG-CC-PVTZ AUX)
    Blend: AUG-CC-PVTZ-JKFIT

    Orbital Energies [Eh]
    ---------------------

    Doubly Occupied:

       1A    -20.534247     2A    -15.556434     3A    -11.342537
       4A    -11.295397     5A    -11.262033     6A    -11.260759
       7A    -11.257245     8A    -11.251581     9A    -11.249976
      10A    -11.249910    11A    -11.249146    12A    -11.248933
      13A    -11.243287    14A    -11.230676    15A    -11.226314
      16A     -1.341155    17A     -1.222541    18A     -1.174397
      19A     -1.134345    20A     -1.067642    21A     -1.033744
      22A     -1.021589    23A     -0.992608    24A     -0.904121
      25A     -0.850985    26A     -0.841376    27A     -0.819578
      28A     -0.772719    29A     -0.718593    30A     -0.701241
      31A     -0.683329    32A     -0.671774    33A     -0.651484
      34A     -0.634265    35A     -0.616960    36A     -0.607806
      37A     -0.604317    38A     -0.600194    39A     -0.576256
      40A     -0.548742    41A     -0.530880    42A     -0.529043
      43A     -0.523884    44A     -0.507174    45A     -0.506106
      46A     -0.480442    47A     -0.449622    48A     -0.421482
      49A     -0.354610    50A     -0.351503    51A     -0.344509
      52A     -0.297477

  @DF-RHF Final Energy:  -628.20794404240439

   => Energetics <=

    Nuclear Repulsion Energy =            893.1498648482429417
    One-Electron Energy =               -2625.6216830205153201
    Two-Electron Energy =                1104.2638741298678724
    Total Energy =                       -628.2079440424045060
  Basis Set: (AUG-CC-PVTZ AUX)
    Blend: AUG-CC-PVTZ-RI
    Molecular point group: c1

    Geometry (in Angstrom), charge = 0, multiplicity = 1:

       Center              X                  Y                   Z               Mass
    ------------   -----------------  -----------------  -----------------  -----------------
         O           -0.035144756489     2.169947983853    -0.305706286055    15.994914619570
         N            2.487201243511     1.917212983853     0.751739713945    14.003074004430
         C            1.122689243511     0.088342983853    -0.139753286055    12.000000000000
         C           -1.435073756489     0.291030983853    -0.037114286055    12.000000000000
         C           -0.183767756489     0.892621183853    -0.162147086055    12.000000000000
         C            2.374919243511     0.627602983853     0.256085713945    12.000000000000
         C            1.060717243511    -1.235969016147    -0.613898286055    12.000000000000
         C            3.494729243511    -0.224055016147     0.259542713945    12.000000000000
         C           -1.649296756489    -0.808046016147     0.808260713945    12.000000000000
         C           -2.518287756489     0.874793983853    -0.709270286055    12.000000000000
         C            2.187796243511    -2.047742016147    -0.644899286055    12.000000000000
         C            3.409912243511    -1.531782016147    -0.201585286055    12.000000000000
         C           -2.937471756489    -1.320967016147     0.966577713945    12.000000000000
         C           -3.797846756489     0.343442983853    -0.564740286055    12.000000000000
         C           -4.010397756489    -0.755081016147     0.273974713945    12.000000000000
         H            0.109051243511    -1.621056016147    -0.969620286055     1.007825032230
         H            4.452962243511     0.173569983853     0.590724713945     1.007825032230
         H           -0.816418756489    -1.240170016147     1.356880713945     1.007825032230
         H           -2.338328756489     1.743837983853    -1.336814286055     1.007825032230
         H            2.121813243511    -3.063196016147    -1.025611286055     1.007825032230
         H            4.301437243511    -2.155126016147    -0.205810286055     1.007825032230
         H           -3.104321756489    -2.163688016147     1.633259713945     1.007825032230
         H           -4.633217756489     0.788789983853    -1.099791286055     1.007825032230
         H           -5.010968756489    -1.164240016147     0.392420713945     1.007825032230
         H            1.794998243511     2.559860983853     0.380923713945     1.007825032230
         H            3.430805243511     2.286259983853     0.750460713945     1.007825032230

  Basis Set: AUG-CC-PVTZ
    Blend: AUG-CC-PVTZ
  Basis Set: (AUG-CC-PVTZ AUX)
    Blend: AUG-CC-PVTZ-JKFIT
	 Reference Energy          =    -628.2079440424043923 [Eh]
	 Singles Energy            =      -0.0000000000000000 [Eh]
	 Same-Spin Energy          =      -0.6936873915270523 [Eh]
	 Opposite-Spin Energy      =      -2.1136733291990168 [Eh]
	 Correlation Energy        =      -2.8073607207260691 [Eh]
	 Total Energy              =    -631.0153047631304162 [Eh]

	 ================> DF-SCS-MP2 Energies <==================
	-----------------------------------------------------------
	 SCS Same-Spin Scale       =       0.3333333333333333 [-]
	 SCS Opposite-Spin Scale   =       1.2000000000000000 [-]
	 SCS Same-Spin Energy      =      -0.2312291305090174 [Eh]
	 SCS Opposite-Spin Energy  =      -2.5364079950388203 [Eh]
	 SCS Correlation Energy    =      -2.7676371255478376 [Eh]
	 SCS Total Energy          =    -630.9755811679522139 [Eh]
	-----------------------------------------------------------

  Dipole Moment: [D]
     X:    -0.5141      Y:    -1.8175      Z:    -0.0223     Total:     1.8889

*** Psi4 exiting successfully. Buy a developer a beer!
