                               Psi4 1.3.2 release

  ==> Input File <==

--------------------------------------------------------------------------
#psi4
#
memory 32 gb

molecule  {
0 1
  O       -0.0417540     2.1858230    -0.3073980
  N        2.4805920     1.9330880     0.7500480
  C        1.0541728     0.0220935    -0.1296684
  C       -1.4416830     0.3069060    -0.0388060
  C       -0.1006150     0.9516510    -0.1728080
  C        2.3683100     0.6434780     0.2543940
  C        1.0541080    -1.2200940    -0.6155900
  C        3.4881200    -0.2081800     0.2578510
  C       -1.6559060    -0.7921710     0.8065690
  C       -2.5248970     0.8906690    -0.7109620
  C        2.1811870    -2.0318670    -0.6465910
  C        3.4033030    -1.5159070    -0.2032770
  C       -2.9440810    -1.3050920     0.9648860
  C       -3.8044560     0.3593180    -0.5664320
  C       -4.0170070    -0.7392060     0.2722830
  H        0.1024420    -1.6051810    -0.9713120
  H        4.4463530     0.1894450     0.5890330
  H       -0.8230280    -1.2242950     1.3551890
  H       -2.3449380     1.7597130    -1.3385060
  H        2.1152040    -3.0473210    -1.0273030
  H        4.2948280    -2.1392510    -0.2075020
  H       -3.1109310    -2.1478130     1.6315680
  H       -4.6398270     0.8046650    -1.1014830
  H       -5.0175780    -1.1483650     0.3907290
  H        1.7883890     2.5757360     0.3792320
  H        3.4241960     2.3021350     0.7487690
units angstrom
no_reorient  #important for SAPT in psi4, default
symmetry c1  #important for SAPT in psi4, default
}

set PROPERTIES_ORIGIN ["COM"]
properties('MP2/aug-cc-pvtz', properties = ['dipole'])
--------------------------------------------------------------------------

    Molecular point group: c1
  Charge       = 0
  Multiplicity = 1
  Basis Set: AUG-CC-PVTZ
    Blend: AUG-CC-PVTZ
  Basis Set: (AUG-CC-PVTZ AUX)
    Blend: AUG-CC-PVTZ-JKFIT

    Orbital Energies [Eh]
    ---------------------

    Doubly Occupied:

       1A    -20.545331     2A    -15.566530     3A    -11.343837
       4A    -11.307183     5A    -11.254729     6A    -11.251822
       7A    -11.250914     8A    -11.248172     9A    -11.248040
      10A    -11.246849    11A    -11.245327    12A    -11.243825
      13A    -11.243565    14A    -11.229909    15A    -11.227135
      16A     -1.375996    17A     -1.227373    18A     -1.164700
      19A     -1.143647    20A     -1.061942    21A     -1.027343
      22A     -1.022957    23A     -0.991525    24A     -0.894921
      25A     -0.844801    26A     -0.836007    27A     -0.823248
      28A     -0.771365    29A     -0.717179    30A     -0.702666
      31A     -0.693729    32A     -0.671061    33A     -0.648364
      34A     -0.633112    35A     -0.614707    36A     -0.607534
      37A     -0.603959    38A     -0.597032    39A     -0.593140
      40A     -0.553538    41A     -0.538463    42A     -0.526735
      43A     -0.519114    44A     -0.503325    45A     -0.501208
      46A     -0.491684    47A     -0.458590    48A     -0.420492
      49A     -0.360722    50A     -0.346520    51A     -0.344262
      52A     -0.295067

  @DF-RHF Final Energy:  -628.21394890269926

   => Energetics <=

    Nuclear Repulsion Energy =            893.2708583120677304
    One-Electron Energy =               -2625.8072264823890691
    Two-Electron Energy =                1104.3224192676220810
    Total Energy =                       -628.2139489026992578
  Basis Set: (AUG-CC-PVTZ AUX)
    Blend: AUG-CC-PVTZ-RI
    Molecular point group: c1

    Geometry (in Angstrom), charge = 0, multiplicity = 1:

       Center              X                  Y                   Z               Mass
    ------------   -----------------  -----------------  -----------------  -----------------
         O           -0.036840771851     2.172320760172    -0.305877222250    15.994914619570
         N            2.485505228149     1.919585760172     0.751568777750    14.003074004430
         C            1.059086028149     0.008591260172    -0.128147622250    12.000000000000
         C           -1.436769771851     0.293403760172    -0.037285222250    12.000000000000
         C           -0.095701771851     0.938148760172    -0.171287222250    12.000000000000
         C            2.373223228149     0.629975760172     0.255914777750    12.000000000000
         C            1.059021228149    -1.233596239828    -0.614069222250    12.000000000000
         C            3.493033228149    -0.221682239828     0.259371777750    12.000000000000
         C           -1.650992771851    -0.805673239828     0.808089777750    12.000000000000
         C           -2.519983771851     0.877166760172    -0.709441222250    12.000000000000
         C            2.186100228149    -2.045369239828    -0.645070222250    12.000000000000
         C            3.408216228149    -1.529409239828    -0.201756222250    12.000000000000
         C           -2.939167771851    -1.318594239828     0.966406777750    12.000000000000
         C           -3.799542771851     0.345815760172    -0.564911222250    12.000000000000
         C           -4.012093771851    -0.752708239828     0.273803777750    12.000000000000
         H            0.107355228149    -1.618683239828    -0.969791222250     1.007825032230
         H            4.451266228149     0.175942760172     0.590553777750     1.007825032230
         H           -0.818114771851    -1.237797239828     1.356709777750     1.007825032230
         H           -2.340024771851     1.746210760172    -1.336985222250     1.007825032230
         H            2.120117228149    -3.060823239828    -1.025782222250     1.007825032230
         H            4.299741228149    -2.152753239828    -0.205981222250     1.007825032230
         H           -3.106017771851    -2.161315239828     1.633088777750     1.007825032230
         H           -4.634913771851     0.791162760172    -1.099962222250     1.007825032230
         H           -5.012664771851    -1.161867239828     0.392249777750     1.007825032230
         H            1.793302228149     2.562233760172     0.380752777750     1.007825032230
         H            3.429109228149     2.288632760172     0.750289777750     1.007825032230

  Basis Set: AUG-CC-PVTZ
    Blend: AUG-CC-PVTZ
  Basis Set: (AUG-CC-PVTZ AUX)
    Blend: AUG-CC-PVTZ-JKFIT
	 Reference Energy          =    -628.2139489026992578 [Eh]
	 Singles Energy            =      -0.0000000000000000 [Eh]
	 Same-Spin Energy          =      -0.6918061759884800 [Eh]
	 Opposite-Spin Energy      =      -2.1101425730371979 [Eh]
	 Correlation Energy        =      -2.8019487490256778 [Eh]
	 Total Energy              =    -631.0158976517249130 [Eh]

	 ================> DF-SCS-MP2 Energies <==================
	-----------------------------------------------------------
	 SCS Same-Spin Scale       =       0.3333333333333333 [-]
	 SCS Opposite-Spin Scale   =       1.2000000000000000 [-]
	 SCS Same-Spin Energy      =      -0.2306020586628267 [Eh]
	 SCS Opposite-Spin Energy  =      -2.5321710876446373 [Eh]
	 SCS Correlation Energy    =      -2.7627731463074641 [Eh]
	 SCS Total Energy          =    -630.9767220490067530 [Eh]
	-----------------------------------------------------------

  Dipole Moment: [D]
     X:     0.3821      Y:    -1.5035      Z:    -0.0815     Total:     1.5535

*** Psi4 exiting successfully. Buy a developer a beer!
