                               Psi4 1.3.2 release

  ==> Input File <==

--------------------------------------------------------------------------
#psi4
#
memory 32 gb

molecule  {
0 1
  O       -0.0417540     2.1858230    -0.3073980
  N        2.4805920     1.9330880     0.7500480
  C        1.1160800     0.1042180    -0.1414450
  C       -1.4416830     0.3069060    -0.0388060
  C       -0.1006150     0.9516510    -0.1728080
  C        2.3454851     0.6860305     0.2655281
  C        1.0541080    -1.2200940    -0.6155900
  C        3.4881200    -0.2081800     0.2578510
  C       -1.6559060    -0.7921710     0.8065690
  C       -2.5248970     0.8906690    -0.7109620
  C        2.1811870    -2.0318670    -0.6465910
  C        3.4033030    -1.5159070    -0.2032770
  C       -2.9440810    -1.3050920     0.9648860
  C       -3.8044560     0.3593180    -0.5664320
  C       -4.0170070    -0.7392060     0.2722830
  H        0.1024420    -1.6051810    -0.9713120
  H        4.4463530     0.1894450     0.5890330
  H       -0.8230280    -1.2242950     1.3551890
  H       -2.3449380     1.7597130    -1.3385060
  H        2.1152040    -3.0473210    -1.0273030
  H        4.2948280    -2.1392510    -0.2075020
  H       -3.1109310    -2.1478130     1.6315680
  H       -4.6398270     0.8046650    -1.1014830
  H       -5.0175780    -1.1483650     0.3907290
  H        1.7883890     2.5757360     0.3792320
  H        3.4241960     2.3021350     0.7487690
units angstrom
no_reorient  #important for SAPT in psi4, default
symmetry c1  #important for SAPT in psi4, default
}

set PROPERTIES_ORIGIN ["COM"]
properties('MP2/aug-cc-pvtz', properties = ['dipole'])
--------------------------------------------------------------------------

    Molecular point group: c1
  Charge       = 0
  Multiplicity = 1
  Basis Set: AUG-CC-PVTZ
    Blend: AUG-CC-PVTZ
  Basis Set: (AUG-CC-PVTZ AUX)
    Blend: AUG-CC-PVTZ-JKFIT

    Orbital Energies [Eh]
    ---------------------

    Doubly Occupied:

       1A    -20.540360     2A    -15.568634     3A    -11.339622
       4A    -11.303470     5A    -11.252943     6A    -11.252662
       7A    -11.251782     8A    -11.250788     9A    -11.249077
      10A    -11.247271    11A    -11.245179    12A    -11.243764
      13A    -11.238760    14A    -11.236023    15A    -11.227124
      16A     -1.373862    17A     -1.244787    18A     -1.163615
      19A     -1.137541    20A     -1.055647    21A     -1.025577
      22A     -1.019545    23A     -0.993303    24A     -0.890788
      25A     -0.847979    26A     -0.838631    27A     -0.820750
      28A     -0.769498    29A     -0.717682    30A     -0.707835
      31A     -0.694002    32A     -0.672815    33A     -0.646814
      34A     -0.636010    35A     -0.616842    36A     -0.611952
      37A     -0.599284    38A     -0.596219    39A     -0.587044
      40A     -0.556226    41A     -0.534402    42A     -0.527188
      43A     -0.518390    44A     -0.507886    45A     -0.501481
      46A     -0.491811    47A     -0.458646    48A     -0.419317
      49A     -0.351034    50A     -0.345783    51A     -0.343832
      52A     -0.296591

  @DF-RHF Final Energy:  -628.22285531875195

   => Energetics <=

    Nuclear Repulsion Energy =            893.2344667980280519
    One-Electron Energy =               -2625.7785077629105217
    Two-Electron Energy =                1104.3211856461305160
    Total Energy =                       -628.2228553187519537
  Basis Set: (AUG-CC-PVTZ AUX)
    Blend: AUG-CC-PVTZ-RI
    Molecular point group: c1

    Geometry (in Angstrom), charge = 0, multiplicity = 1:

       Center              X                  Y                   Z               Mass
    ------------   -----------------  -----------------  -----------------  -----------------
         O           -0.039220404128     2.164729461466    -0.305838101888    15.994914619570
         N            2.483125595872     1.911994461466     0.751607898112    14.003074004430
         C            1.118613595872     0.083124461466    -0.139885101888    12.000000000000
         C           -1.439149404128     0.285812461466    -0.037246101888    12.000000000000
         C           -0.098081404128     0.930557461466    -0.171248101888    12.000000000000
         C            2.348018695872     0.664936961466     0.267087998112    12.000000000000
         C            1.056641595872    -1.241187538534    -0.614030101888    12.000000000000
         C            3.490653595872    -0.229273538534     0.259410898112    12.000000000000
         C           -1.653372404128    -0.813264538534     0.808128898112    12.000000000000
         C           -2.522363404128     0.869575461466    -0.709402101888    12.000000000000
         C            2.183720595872    -2.052960538534    -0.645031101888    12.000000000000
         C            3.405836595872    -1.537000538534    -0.201717101888    12.000000000000
         C           -2.941547404128    -1.326185538534     0.966445898112    12.000000000000
         C           -3.801922404128     0.338224461466    -0.564872101888    12.000000000000
         C           -4.014473404128    -0.760299538534     0.273842898112    12.000000000000
         H            0.104975595872    -1.626274538534    -0.969752101888     1.007825032230
         H            4.448886595872     0.168351461466     0.590592898112     1.007825032230
         H           -0.820494404128    -1.245388538534     1.356748898112     1.007825032230
         H           -2.342404404128     1.738619461466    -1.336946101888     1.007825032230
         H            2.117737595872    -3.068414538534    -1.025743101888     1.007825032230
         H            4.297361595872    -2.160344538534    -0.205942101888     1.007825032230
         H           -3.108397404128    -2.168906538534     1.633127898112     1.007825032230
         H           -4.637293404128     0.783571461466    -1.099923101888     1.007825032230
         H           -5.015044404128    -1.169458538534     0.392288898112     1.007825032230
         H            1.790922595872     2.554642461466     0.380791898112     1.007825032230
         H            3.426729595872     2.281041461466     0.750328898112     1.007825032230

  Basis Set: AUG-CC-PVTZ
    Blend: AUG-CC-PVTZ
  Basis Set: (AUG-CC-PVTZ AUX)
    Blend: AUG-CC-PVTZ-JKFIT
	 Reference Energy          =    -628.2228553187519537 [Eh]
	 Singles Energy            =      -0.0000000000000000 [Eh]
	 Same-Spin Energy          =      -0.6916786956499766 [Eh]
	 Opposite-Spin Energy      =      -2.1096594461452756 [Eh]
	 Correlation Energy        =      -2.8013381417952523 [Eh]
	 Total Energy              =    -631.0241934605471670 [Eh]

	 ================> DF-SCS-MP2 Energies <==================
	-----------------------------------------------------------
	 SCS Same-Spin Scale       =       0.3333333333333333 [-]
	 SCS Opposite-Spin Scale   =       1.2000000000000000 [-]
	 SCS Same-Spin Energy      =      -0.2305595652166589 [Eh]
	 SCS Opposite-Spin Energy  =      -2.5315913353743307 [Eh]
	 SCS Correlation Energy    =      -2.7621509005909894 [Eh]
	 SCS Total Energy          =    -630.9850062193429494 [Eh]
	-----------------------------------------------------------

  Dipole Moment: [D]
     X:     0.4617      Y:    -1.3606      Z:     0.0118     Total:     1.4369

*** Psi4 exiting successfully. Buy a developer a beer!
