                               Psi4 1.3.2 release

  ==> Input File <==

--------------------------------------------------------------------------
#psi4
#
memory 32 gb

molecule  {
0 1
  O       -0.0417540     2.1858230    -0.3073980
  N        2.4805920     1.9330880     0.7500480
  C        1.1011476     0.0832838    -0.1384843
  C       -1.4416830     0.3069060    -0.0388060
  C       -0.1006150     0.9516510    -0.1728080
  C        2.3683100     0.6434780     0.2543940
  C        1.0541080    -1.2200940    -0.6155900
  C        3.4881200    -0.2081800     0.2578510
  C       -1.6559060    -0.7921710     0.8065690
  C       -2.5248970     0.8906690    -0.7109620
  C        2.1811870    -2.0318670    -0.6465910
  C        3.4033030    -1.5159070    -0.2032770
  C       -2.9440810    -1.3050920     0.9648860
  C       -3.8044560     0.3593180    -0.5664320
  C       -4.0170070    -0.7392060     0.2722830
  H        0.1024420    -1.6051810    -0.9713120
  H        4.4463530     0.1894450     0.5890330
  H       -0.8230280    -1.2242950     1.3551890
  H       -2.3449380     1.7597130    -1.3385060
  H        2.1152040    -3.0473210    -1.0273030
  H        4.2948280    -2.1392510    -0.2075020
  H       -3.1109310    -2.1478130     1.6315680
  H       -4.6398270     0.8046650    -1.1014830
  H       -5.0175780    -1.1483650     0.3907290
  H        1.7883890     2.5757360     0.3792320
  H        3.4241960     2.3021350     0.7487690
units angstrom
no_reorient  #important for SAPT in psi4, default
symmetry c1  #important for SAPT in psi4, default
}

set PROPERTIES_ORIGIN ["COM"]
properties('MP2/aug-cc-pvtz', properties = ['dipole'])
--------------------------------------------------------------------------

    Molecular point group: c1
  Charge       = 0
  Multiplicity = 1
  Basis Set: AUG-CC-PVTZ
    Blend: AUG-CC-PVTZ
  Basis Set: (AUG-CC-PVTZ AUX)
    Blend: AUG-CC-PVTZ-JKFIT

    Orbital Energies [Eh]
    ---------------------

    Doubly Occupied:

       1A    -20.542373     2A    -15.563188     3A    -11.341986
       4A    -11.301328     5A    -11.254555     6A    -11.252778
       7A    -11.252365     8A    -11.251302     9A    -11.249575
      10A    -11.247780    11A    -11.245680    12A    -11.244242
      13A    -11.241804    14A    -11.232693    15A    -11.229173
      16A     -1.374668    17A     -1.228239    18A     -1.164349
      19A     -1.139809    20A     -1.058506    21A     -1.026535
      22A     -1.021631    23A     -0.996294    24A     -0.893644
      25A     -0.847948    26A     -0.838334    27A     -0.820763
      28A     -0.770812    29A     -0.717938    30A     -0.702353
      31A     -0.690026    32A     -0.670485    33A     -0.647868
      34A     -0.634093    35A     -0.615401    36A     -0.609659
      37A     -0.605110    38A     -0.597147    39A     -0.589448
      40A     -0.554447    41A     -0.536597    42A     -0.526772
      43A     -0.519432    44A     -0.508260    45A     -0.502157
      46A     -0.491255    47A     -0.455161    48A     -0.421838
      49A     -0.353945    50A     -0.346485    51A     -0.344509
      52A     -0.300263

  @DF-RHF Final Energy:  -628.22515899239966

   => Energetics <=

    Nuclear Repulsion Energy =            893.2149288158933587
    One-Electron Energy =               -2625.7341599685273650
    Two-Electron Energy =                1104.2940721602342364
    Total Energy =                       -628.2251589923996562
  Basis Set: (AUG-CC-PVTZ AUX)
    Blend: AUG-CC-PVTZ-RI
    Molecular point group: c1

    Geometry (in Angstrom), charge = 0, multiplicity = 1:

       Center              X                  Y                   Z               Mass
    ------------   -----------------  -----------------  -----------------  -----------------
         O           -0.039700960486     2.168595022103    -0.305340442168    15.994914619570
         N            2.482645039514     1.915860022103     0.752105557832    14.003074004430
         C            1.103200639514     0.066055822103    -0.136426742168    12.000000000000
         C           -1.439629960486     0.289678022103    -0.036748442168    12.000000000000
         C           -0.098561960486     0.934423022103    -0.170750442168    12.000000000000
         C            2.370363039514     0.626250022103     0.256451557832    12.000000000000
         C            1.056161039514    -1.237321977897    -0.613532442168    12.000000000000
         C            3.490173039514    -0.225407977897     0.259908557832    12.000000000000
         C           -1.653852960486    -0.809398977897     0.808626557832    12.000000000000
         C           -2.522843960486     0.873441022103    -0.708904442168    12.000000000000
         C            2.183240039514    -2.049094977897    -0.644533442168    12.000000000000
         C            3.405356039514    -1.533134977897    -0.201219442168    12.000000000000
         C           -2.942027960486    -1.322319977897     0.966943557832    12.000000000000
         C           -3.802402960486     0.342090022103    -0.564374442168    12.000000000000
         C           -4.014953960486    -0.756433977897     0.274340557832    12.000000000000
         H            0.104495039514    -1.622408977897    -0.969254442168     1.007825032230
         H            4.448406039514     0.172217022103     0.591090557832     1.007825032230
         H           -0.820974960486    -1.241522977897     1.357246557832     1.007825032230
         H           -2.342884960486     1.742485022103    -1.336448442168     1.007825032230
         H            2.117257039514    -3.064548977897    -1.025245442168     1.007825032230
         H            4.296881039514    -2.156478977897    -0.205444442168     1.007825032230
         H           -3.108877960486    -2.165040977897     1.633625557832     1.007825032230
         H           -4.637773960486     0.787437022103    -1.099425442168     1.007825032230
         H           -5.015524960486    -1.165592977897     0.392786557832     1.007825032230
         H            1.790442039514     2.558508022103     0.381289557832     1.007825032230
         H            3.426249039514     2.284907022103     0.750826557832     1.007825032230

  Basis Set: AUG-CC-PVTZ
    Blend: AUG-CC-PVTZ
  Basis Set: (AUG-CC-PVTZ AUX)
    Blend: AUG-CC-PVTZ-JKFIT
	 Reference Energy          =    -628.2251589923996562 [Eh]
	 Singles Energy            =      -0.0000000000000000 [Eh]
	 Same-Spin Energy          =      -0.6916213402401232 [Eh]
	 Opposite-Spin Energy      =      -2.1096137157841151 [Eh]
	 Correlation Energy        =      -2.8012350560242383 [Eh]
	 Total Energy              =    -631.0263940484238674 [Eh]

	 ================> DF-SCS-MP2 Energies <==================
	-----------------------------------------------------------
	 SCS Same-Spin Scale       =       0.3333333333333333 [-]
	 SCS Opposite-Spin Scale   =       1.2000000000000000 [-]
	 SCS Same-Spin Energy      =      -0.2305404467467077 [Eh]
	 SCS Opposite-Spin Energy  =      -2.5315364589409382 [Eh]
	 SCS Correlation Energy    =      -2.7620769056876457 [Eh]
	 SCS Total Energy          =    -630.9872358980873059 [Eh]
	-----------------------------------------------------------

  Dipole Moment: [D]
     X:     0.3633      Y:    -1.6006      Z:    -0.0957     Total:     1.6441

*** Psi4 exiting successfully. Buy a developer a beer!
