                               Psi4 1.4a3.dev225

  ==> Input File <==

--------------------------------------------------------------------------
#psi4
#
memory 32 gb

molecule  {
0 1
  O       -0.0417540     2.1858230    -0.3073980
  N        2.4805920     1.9330880     0.7500480
  C        1.1160800     0.1042180    -0.1414450
  C       -1.4416830     0.3069060    -0.0388060
  C       -0.1006150     0.9516510    -0.1728080
  C        2.3683100     0.6434780     0.2543940
  C        1.0541080    -1.2200940    -0.6155900
  C        3.4881200    -0.2081800     0.2578510
  C       -1.6528523    -0.7765039     0.7945184
  C       -2.5248970     0.8906690    -0.7109620
  C        2.1811870    -2.0318670    -0.6465910
  C        3.4033030    -1.5159070    -0.2032770
  C       -2.9440810    -1.3050920     0.9648860
  C       -3.8044560     0.3593180    -0.5664320
  C       -4.0170070    -0.7392060     0.2722830
  H        0.1024420    -1.6051810    -0.9713120
  H        4.4463530     0.1894450     0.5890330
  H       -0.8230280    -1.2242950     1.3551890
  H       -2.3449380     1.7597130    -1.3385060
  H        2.1152040    -3.0473210    -1.0273030
  H        4.2948280    -2.1392510    -0.2075020
  H       -3.1109310    -2.1478130     1.6315680
  H       -4.6398270     0.8046650    -1.1014830
  H       -5.0175780    -1.1483650     0.3907290
  H        1.7883890     2.5757360     0.3792320
  H        3.4241960     2.3021350     0.7487690
units angstrom
no_reorient  #important for SAPT in psi4, default
symmetry c1  #important for SAPT in psi4, default
}

set PROPERTIES_ORIGIN ["COM"]
properties('MP2/aug-cc-pvtz', properties = ['dipole'])
--------------------------------------------------------------------------

    Molecular point group: c1
  Charge       = 0
  Multiplicity = 1
  Basis Set: AUG-CC-PVTZ
    Blend: AUG-CC-PVTZ
  Basis Set: (AUG-CC-PVTZ AUX)
    Blend: AUG-CC-PVTZ-JKFIT

    Orbital Energies [Eh]
    ---------------------

    Doubly Occupied:

       1A    -20.541797     2A    -15.561958     3A    -11.341697
       4A    -11.299049     5A    -11.254516     6A    -11.254243
       7A    -11.252323     8A    -11.251204     9A    -11.248715
      10A    -11.247551    11A    -11.246668    12A    -11.244115
      13A    -11.241177    14A    -11.233571    15A    -11.229836
      16A     -1.374616    17A     -1.228596    18A     -1.165599
      19A     -1.138588    20A     -1.058478    21A     -1.025541
      22A     -1.021427    23A     -0.997827    24A     -0.892985
      25A     -0.848726    26A     -0.839326    27A     -0.820680
      28A     -0.771069    29A     -0.718107    30A     -0.701977
      31A     -0.688689    32A     -0.669958    33A     -0.648058
      34A     -0.634235    35A     -0.617310    36A     -0.611077
      37A     -0.604798    38A     -0.595564    39A     -0.587767
      40A     -0.554646    41A     -0.535912    42A     -0.526065
      43A     -0.519450    44A     -0.509778    45A     -0.503404
      46A     -0.491082    47A     -0.453988    48A     -0.422021
      49A     -0.352347    50A     -0.348243    51A     -0.342985
      52A     -0.302137

  @DF-RHF Final Energy:  -628.22577672496766

   => Energetics <=

    Nuclear Repulsion Energy =            893.5086409576529149
    One-Electron Energy =               -2626.3258846015887684
    Two-Electron Energy =                1104.5914669189683082
    Total Energy =                       -628.2257767249675453
  Basis Set: (AUG-CC-PVTZ AUX)
    Blend: AUG-CC-PVTZ-RI
    Molecular point group: c1

    Geometry (in Angstrom), charge = 0, multiplicity = 1:

       Center              X                  Y                   Z               Mass
    ------------   -----------------  -----------------  -----------------  -----------------
         O           -0.040796093170     2.166366452268    -0.304426438284    15.994914619570
         N            2.481549906830     1.913631452268     0.753019561716    14.003074004430
         C            1.117037906830     0.084761452268    -0.138473438284    12.000000000000
         C           -1.440725093170     0.287449452268    -0.035834438284    12.000000000000
         C           -0.099657093170     0.932194452268    -0.169836438284    12.000000000000
         C            2.369267906830     0.624021452268     0.257365561716    12.000000000000
         C            1.055065906830    -1.239550547732    -0.612618438284    12.000000000000
         C            3.489077906830    -0.227636547732     0.260822561716    12.000000000000
         C           -1.651894393170    -0.795960447732     0.797489961716    12.000000000000
         C           -2.523939093170     0.871212452268    -0.707990438284    12.000000000000
         C            2.182144906830    -2.051323547732    -0.643619438284    12.000000000000
         C            3.404260906830    -1.535363547732    -0.200305438284    12.000000000000
         C           -2.943123093170    -1.324548547732     0.967857561716    12.000000000000
         C           -3.803498093170     0.339861452268    -0.563460438284    12.000000000000
         C           -4.016049093170    -0.758662547732     0.275254561716    12.000000000000
         H            0.103399906830    -1.624637547732    -0.968340438284     1.007825032230
         H            4.447310906830     0.169988452268     0.592004561716     1.007825032230
         H           -0.822070093170    -1.243751547732     1.358160561716     1.007825032230
         H           -2.343980093170     1.740256452268    -1.335534438284     1.007825032230
         H            2.116161906830    -3.066777547732    -1.024331438284     1.007825032230
         H            4.295785906830    -2.158707547732    -0.204530438284     1.007825032230
         H           -3.109973093170    -2.167269547732     1.634539561716     1.007825032230
         H           -4.638869093170     0.785208452268    -1.098511438284     1.007825032230
         H           -5.016620093170    -1.167821547732     0.393700561716     1.007825032230
         H            1.789346906830     2.556279452268     0.382203561716     1.007825032230
         H            3.425153906830     2.282678452268     0.751740561716     1.007825032230

  Basis Set: AUG-CC-PVTZ
    Blend: AUG-CC-PVTZ
  Basis Set: (AUG-CC-PVTZ AUX)
    Blend: AUG-CC-PVTZ-JKFIT
	 Reference Energy          =    -628.2257767249676590 [Eh]
	 Singles Energy            =      -0.0000000000000000 [Eh]
	 Same-Spin Energy          =      -0.6915208272317750 [Eh]
	 Opposite-Spin Energy      =      -2.1095404818348786 [Eh]
	 Correlation Energy        =      -2.8010613090666538 [Eh]
	 Total Energy              =    -631.0268380340343128 [Eh]

	 ================> DF-SCS-MP2 Energies <==================
	-----------------------------------------------------------
	 SCS Same-Spin Scale       =       0.3333333333333333 [-]
	 SCS Opposite-Spin Scale   =       1.2000000000000000 [-]
	 SCS Same-Spin Energy      =      -0.2305069424105917 [Eh]
	 SCS Opposite-Spin Energy  =      -2.5314485782018541 [Eh]
	 SCS Correlation Energy    =      -2.7619555206124455 [Eh]
	 SCS Total Energy          =    -630.9877322455801050 [Eh]
	-----------------------------------------------------------

  Dipole Moment: [D]
     X:     0.3582      Y:    -1.6380      Z:    -0.0987     Total:     1.6796

*** Psi4 exiting successfully. Buy a developer a beer!
