                               Psi4 1.3.2 release

  ==> Input File <==

--------------------------------------------------------------------------
#psi4
#
memory 32 gb

molecule  {
0 1
  O       -0.0417540     2.1858230    -0.3073980
  N        2.4805920     1.9330880     0.7500480
  C        1.1160800     0.1042180    -0.1414450
  C       -1.4416830     0.3069060    -0.0388060
  C       -0.1100867     0.7530528    -0.1511503
  C        2.3683100     0.6434780     0.2543940
  C        1.0541080    -1.2200940    -0.6155900
  C        3.4881200    -0.2081800     0.2578510
  C       -1.6559060    -0.7921710     0.8065690
  C       -2.5248970     0.8906690    -0.7109620
  C        2.1811870    -2.0318670    -0.6465910
  C        3.4033030    -1.5159070    -0.2032770
  C       -2.9440810    -1.3050920     0.9648860
  C       -3.8044560     0.3593180    -0.5664320
  C       -4.0170070    -0.7392060     0.2722830
  H        0.1024420    -1.6051810    -0.9713120
  H        4.4463530     0.1894450     0.5890330
  H       -0.8230280    -1.2242950     1.3551890
  H       -2.3449380     1.7597130    -1.3385060
  H        2.1152040    -3.0473210    -1.0273030
  H        4.2948280    -2.1392510    -0.2075020
  H       -3.1109310    -2.1478130     1.6315680
  H       -4.6398270     0.8046650    -1.1014830
  H       -5.0175780    -1.1483650     0.3907290
  H        1.7883890     2.5757360     0.3792320
  H        3.4241960     2.3021350     0.7487690
units angstrom
no_reorient  #important for SAPT in psi4, default
symmetry c1  #important for SAPT in psi4, default
}

set PROPERTIES_ORIGIN ["COM"]
properties('MP2/aug-cc-pvtz', properties = ['dipole'])
--------------------------------------------------------------------------

    Molecular point group: c1
  Charge       = 0
  Multiplicity = 1
  Basis Set: AUG-CC-PVTZ
    Blend: AUG-CC-PVTZ
  Basis Set: (AUG-CC-PVTZ AUX)
    Blend: AUG-CC-PVTZ-JKFIT

    Orbital Energies [Eh]
    ---------------------

    Doubly Occupied:

       1A    -20.506306     2A    -15.563081     3A    -11.339610
       4A    -11.311085     5A    -11.264434     6A    -11.261430
       7A    -11.257499     8A    -11.257141     9A    -11.254724
      10A    -11.252300    11A    -11.248145    12A    -11.247580
      13A    -11.243692    14A    -11.239429    15A    -11.234227
      16A     -1.268063    17A     -1.223686    18A     -1.167837
      19A     -1.147177    20A     -1.074037    21A     -1.035415
      22A     -1.028165    23A     -1.004438    24A     -0.910575
      25A     -0.858981    26A     -0.843467    27A     -0.830847
      28A     -0.773904    29A     -0.726124    30A     -0.706299
      31A     -0.689272    32A     -0.676393    33A     -0.645396
      34A     -0.634005    35A     -0.616227    36A     -0.614598
      37A     -0.606749    38A     -0.600299    39A     -0.559829
      40A     -0.547140    41A     -0.528695    42A     -0.523963
      43A     -0.521973    44A     -0.511727    45A     -0.487830
      46A     -0.457799    47A     -0.448560    48A     -0.409843
      49A     -0.355189    50A     -0.347592    51A     -0.340905
      52A     -0.305737

  @DF-RHF Final Energy:  -628.15893478259989

   => Energetics <=

    Nuclear Repulsion Energy =            893.6768479005932022
    One-Electron Energy =               -2626.6527265593763332
    Two-Electron Energy =                1104.8169438761831316
    Total Energy =                       -628.1589347825999994
  Basis Set: (AUG-CC-PVTZ AUX)
    Blend: AUG-CC-PVTZ-RI
    Molecular point group: c1

    Geometry (in Angstrom), charge = 0, multiplicity = 1:

       Center              X                  Y                   Z               Mass
    ------------   -----------------  -----------------  -----------------  -----------------
         O           -0.040033450078     2.179412578617    -0.306478859935    15.994914619570
         N            2.482312549922     1.926677578617     0.750967140065    14.003074004430
         C            1.117800549922     0.097807578617    -0.140525859935    12.000000000000
         C           -1.439962450078     0.300495578617    -0.037886859935    12.000000000000
         C           -0.108366150078     0.746642378617    -0.150231159935    12.000000000000
         C            2.370030549922     0.637067578617     0.255313140065    12.000000000000
         C            1.055828549922    -1.226504421383    -0.614670859935    12.000000000000
         C            3.489840549922    -0.214590421383     0.258770140065    12.000000000000
         C           -1.654185450078    -0.798581421383     0.807488140065    12.000000000000
         C           -2.523176450078     0.884258578617    -0.710042859935    12.000000000000
         C            2.182907549922    -2.038277421383    -0.645671859935    12.000000000000
         C            3.405023549922    -1.522317421383    -0.202357859935    12.000000000000
         C           -2.942360450078    -1.311502421383     0.965805140065    12.000000000000
         C           -3.802735450078     0.352907578617    -0.565512859935    12.000000000000
         C           -4.015286450078    -0.745616421383     0.273202140065    12.000000000000
         H            0.104162549922    -1.611591421383    -0.970392859935     1.007825032230
         H            4.448073549922     0.183034578617     0.589952140065     1.007825032230
         H           -0.821307450078    -1.230705421383     1.356108140065     1.007825032230
         H           -2.343217450078     1.753302578617    -1.337586859935     1.007825032230
         H            2.116924549922    -3.053731421383    -1.026383859935     1.007825032230
         H            4.296548549922    -2.145661421383    -0.206582859935     1.007825032230
         H           -3.109210450078    -2.154223421383     1.632487140065     1.007825032230
         H           -4.638106450078     0.798254578617    -1.100563859935     1.007825032230
         H           -5.015857450078    -1.154775421383     0.391648140065     1.007825032230
         H            1.790109549922     2.569325578617     0.380151140065     1.007825032230
         H            3.425916549922     2.295724578617     0.749688140065     1.007825032230

  Basis Set: AUG-CC-PVTZ
    Blend: AUG-CC-PVTZ
  Basis Set: (AUG-CC-PVTZ AUX)
    Blend: AUG-CC-PVTZ-JKFIT
	 Reference Energy          =    -628.1589347825998857 [Eh]
	 Singles Energy            =      -0.0000000000000000 [Eh]
	 Same-Spin Energy          =      -0.6989386665231688 [Eh]
	 Opposite-Spin Energy      =      -2.1235578687994483 [Eh]
	 Correlation Energy        =      -2.8224965353226170 [Eh]
	 Total Energy              =    -630.9814313179225564 [Eh]

	 ================> DF-SCS-MP2 Energies <==================
	-----------------------------------------------------------
	 SCS Same-Spin Scale       =       0.3333333333333333 [-]
	 SCS Opposite-Spin Scale   =       1.2000000000000000 [-]
	 SCS Same-Spin Energy      =      -0.2329795555077229 [Eh]
	 SCS Opposite-Spin Energy  =      -2.5482694425593380 [Eh]
	 SCS Correlation Energy    =      -2.7812489980670607 [Eh]
	 SCS Total Energy          =    -630.9401837806669846 [Eh]
	-----------------------------------------------------------

  Dipole Moment: [D]
     X:     0.5498      Y:    -2.3489      Z:     0.0144     Total:     2.4124

*** Psi4 exiting successfully. Buy a developer a beer!
