                               Psi4 1.3.2 release

  ==> Input File <==

--------------------------------------------------------------------------
#psi4
#
memory 32 gb

molecule  {
0 1
  O       -0.0417540     2.1858230    -0.3073980
  N        2.4805920     1.9330880     0.7500480
  C        1.1160800     0.1042180    -0.1414450
  C       -1.4416830     0.3069060    -0.0388060
  C       -0.1826544     1.0087918    -0.1749227
  C        2.3683100     0.6434780     0.2543940
  C        1.0541080    -1.2200940    -0.6155900
  C        3.4881200    -0.2081800     0.2578510
  C       -1.6559060    -0.7921710     0.8065690
  C       -2.5248970     0.8906690    -0.7109620
  C        2.1811870    -2.0318670    -0.6465910
  C        3.4033030    -1.5159070    -0.2032770
  C       -2.9440810    -1.3050920     0.9648860
  C       -3.8044560     0.3593180    -0.5664320
  C       -4.0170070    -0.7392060     0.2722830
  H        0.1024420    -1.6051810    -0.9713120
  H        4.4463530     0.1894450     0.5890330
  H       -0.8230280    -1.2242950     1.3551890
  H       -2.3449380     1.7597130    -1.3385060
  H        2.1152040    -3.0473210    -1.0273030
  H        4.2948280    -2.1392510    -0.2075020
  H       -3.1109310    -2.1478130     1.6315680
  H       -4.6398270     0.8046650    -1.1014830
  H       -5.0175780    -1.1483650     0.3907290
  H        1.7883890     2.5757360     0.3792320
  H        3.4241960     2.3021350     0.7487690
units angstrom
no_reorient  #important for SAPT in psi4, default
symmetry c1  #important for SAPT in psi4, default
}

set PROPERTIES_ORIGIN ["COM"]
properties('MP2/aug-cc-pvtz', properties = ['dipole'])
--------------------------------------------------------------------------

    Molecular point group: c1
  Charge       = 0
  Multiplicity = 1
  Basis Set: AUG-CC-PVTZ
    Blend: AUG-CC-PVTZ
  Basis Set: (AUG-CC-PVTZ AUX)
    Blend: AUG-CC-PVTZ-JKFIT

    Orbital Energies [Eh]
    ---------------------

    Doubly Occupied:

       1A    -20.549881     2A    -15.557058     3A    -11.341618
       4A    -11.290278     5A    -11.258551     6A    -11.256515
       7A    -11.252995     8A    -11.249769     9A    -11.249519
      10A    -11.247771    11A    -11.246019    12A    -11.245709
      13A    -11.239012    14A    -11.228109    15A    -11.224351
      16A     -1.411344    17A     -1.222889    18A     -1.170166
      19A     -1.130787    20A     -1.058009    21A     -1.030833
      22A     -1.015925    23A     -0.989502    24A     -0.893058
      25A     -0.847715    26A     -0.837883    27A     -0.814799
      28A     -0.770856    29A     -0.717153    30A     -0.701194
      31A     -0.683814    32A     -0.670312    33A     -0.660734
      34A     -0.637460    35A     -0.619895    36A     -0.610628
      37A     -0.602238    38A     -0.598687    39A     -0.585782
      40A     -0.560044    41A     -0.537124    42A     -0.530467
      43A     -0.521310    44A     -0.508186    45A     -0.507102
      46A     -0.497426    47A     -0.448916    48A     -0.413507
      49A     -0.352504    50A     -0.350758    51A     -0.342323
      52A     -0.295775

  @DF-RHF Final Energy:  -628.22050987534010

   => Energetics <=

    Nuclear Repulsion Energy =            893.0764217803698557
    One-Electron Energy =               -2625.4253443757893365
    Two-Electron Energy =                1104.1284127200792682
    Total Energy =                       -628.2205098753402126
  Basis Set: (AUG-CC-PVTZ AUX)
    Blend: AUG-CC-PVTZ-RI
    Molecular point group: c1

    Geometry (in Angstrom), charge = 0, multiplicity = 1:

       Center              X                  Y                   Z               Mass
    ------------   -----------------  -----------------  -----------------  -----------------
         O           -0.035614968023     2.163841213088    -0.305031412616    15.994914619570
         N            2.486731031977     1.911106213088     0.752414587384    14.003074004430
         C            1.122219031977     0.082236213088    -0.139078412616    12.000000000000
         C           -1.435543968023     0.284924213088    -0.036439412616    12.000000000000
         C           -0.176515368023     0.986810013088    -0.172556112616    12.000000000000
         C            2.374449031977     0.621496213088     0.256760587384    12.000000000000
         C            1.060247031977    -1.242075786912    -0.613223412616    12.000000000000
         C            3.494259031977    -0.230161786912     0.260217587384    12.000000000000
         C           -1.649766968023    -0.814152786912     0.808935587384    12.000000000000
         C           -2.518757968023     0.868687213088    -0.708595412616    12.000000000000
         C            2.187326031977    -2.053848786912    -0.644224412616    12.000000000000
         C            3.409442031977    -1.537888786912    -0.200910412616    12.000000000000
         C           -2.937941968023    -1.327073786912     0.967252587384    12.000000000000
         C           -3.798316968023     0.337336213088    -0.564065412616    12.000000000000
         C           -4.010867968023    -0.761187786912     0.274649587384    12.000000000000
         H            0.108581031977    -1.627162786912    -0.968945412616     1.007825032230
         H            4.452492031977     0.167463213088     0.591399587384     1.007825032230
         H           -0.816888968023    -1.246276786912     1.357555587384     1.007825032230
         H           -2.338798968023     1.737731213088    -1.336139412616     1.007825032230
         H            2.121343031977    -3.069302786912    -1.024936412616     1.007825032230
         H            4.300967031977    -2.161232786912    -0.205135412616     1.007825032230
         H           -3.104791968023    -2.169794786912     1.633934587384     1.007825032230
         H           -4.633687968023     0.782683213088    -1.099116412616     1.007825032230
         H           -5.011438968023    -1.170346786912     0.393095587384     1.007825032230
         H            1.794528031977     2.553754213088     0.381598587384     1.007825032230
         H            3.430335031977     2.280153213088     0.751135587384     1.007825032230

  Basis Set: AUG-CC-PVTZ
    Blend: AUG-CC-PVTZ
  Basis Set: (AUG-CC-PVTZ AUX)
    Blend: AUG-CC-PVTZ-JKFIT
	 Reference Energy          =    -628.2205098753400989 [Eh]
	 Singles Energy            =      -0.0000000000000000 [Eh]
	 Same-Spin Energy          =      -0.6904525752415176 [Eh]
	 Opposite-Spin Energy      =      -2.1073895351070320 [Eh]
	 Correlation Energy        =      -2.7978421103485496 [Eh]
	 Total Energy              =    -631.0183519856886960 [Eh]

	 ================> DF-SCS-MP2 Energies <==================
	-----------------------------------------------------------
	 SCS Same-Spin Scale       =       0.3333333333333333 [-]
	 SCS Opposite-Spin Scale   =       1.2000000000000000 [-]
	 SCS Same-Spin Energy      =      -0.2301508584138392 [Eh]
	 SCS Opposite-Spin Energy  =      -2.5288674421284383 [Eh]
	 SCS Correlation Energy    =      -2.7590183005422775 [Eh]
	 SCS Total Energy          =    -630.9795281758823648 [Eh]
	-----------------------------------------------------------

  Dipole Moment: [D]
     X:    -0.5561      Y:    -1.3375      Z:    -0.0863     Total:     1.4511

*** Psi4 exiting successfully. Buy a developer a beer!
