                               Psi4 1.4a3.dev225

  ==> Input File <==

--------------------------------------------------------------------------
#psi4
#
memory 32 gb

molecule  {
0 1
  O       -0.0417540     2.1858230    -0.3073980
  N        2.4805920     1.9330880     0.7500480
  C        1.1160800     0.1042180    -0.1414450
  C       -1.4416830     0.3069060    -0.0388060
  C       -0.1006150     0.9516510    -0.1728080
  C        2.3683100     0.6434780     0.2543940
  C        1.0541080    -1.2200940    -0.6155900
  C        3.4881200    -0.2081800     0.2578510
  C       -1.6635402    -0.8313387     0.8366956
  C       -2.5248970     0.8906690    -0.7109620
  C        2.1811870    -2.0318670    -0.6465910
  C        3.4033030    -1.5159070    -0.2032770
  C       -2.9440810    -1.3050920     0.9648860
  C       -3.8044560     0.3593180    -0.5664320
  C       -4.0170070    -0.7392060     0.2722830
  H        0.1024420    -1.6051810    -0.9713120
  H        4.4463530     0.1894450     0.5890330
  H       -0.8230280    -1.2242950     1.3551890
  H       -2.3449380     1.7597130    -1.3385060
  H        2.1152040    -3.0473210    -1.0273030
  H        4.2948280    -2.1392510    -0.2075020
  H       -3.1109310    -2.1478130     1.6315680
  H       -4.6398270     0.8046650    -1.1014830
  H       -5.0175780    -1.1483650     0.3907290
  H        1.7883890     2.5757360     0.3792320
  H        3.4241960     2.3021350     0.7487690
units angstrom
no_reorient  #important for SAPT in psi4, default
symmetry c1  #important for SAPT in psi4, default
}

set PROPERTIES_ORIGIN ["COM"]
properties('MP2/aug-cc-pvtz', properties = ['dipole'])
--------------------------------------------------------------------------

    Molecular point group: c1
  Charge       = 0
  Multiplicity = 1
  Basis Set: AUG-CC-PVTZ
    Blend: AUG-CC-PVTZ
  Basis Set: (AUG-CC-PVTZ AUX)
    Blend: AUG-CC-PVTZ-JKFIT

    Orbital Energies [Eh]
    ---------------------

    Doubly Occupied:

       1A    -20.540888     2A    -15.561803     3A    -11.341228
       4A    -11.298933     5A    -11.254454     6A    -11.254450
       7A    -11.254145     8A    -11.252763     9A    -11.252169
      10A    -11.248773    11A    -11.245273    12A    -11.243803
      13A    -11.241100    14A    -11.233560    15A    -11.229849
      16A     -1.373777    17A     -1.228461    18A     -1.161824
      19A     -1.138546    20A     -1.055427    21A     -1.030474
      22A     -1.018817    23A     -0.997658    24A     -0.894342
      25A     -0.850724    26A     -0.838176    27A     -0.818390
      28A     -0.768886    29A     -0.718570    30A     -0.703466
      31A     -0.688526    32A     -0.672019    33A     -0.647037
      34A     -0.635850    35A     -0.613299    36A     -0.610212
      37A     -0.604606    38A     -0.600677    39A     -0.587004
      40A     -0.555531    41A     -0.535603    42A     -0.529769
      43A     -0.519561    44A     -0.509655    45A     -0.497660
      46A     -0.490465    47A     -0.454105    48A     -0.421661
      49A     -0.352897    50A     -0.348068    51A     -0.341114
      52A     -0.301973

  @DF-RHF Final Energy:  -628.22269650834789

   => Energetics <=

    Nuclear Repulsion Energy =            892.4635775433083609
    One-Electron Energy =               -2624.2365063579309208
    Two-Electron Energy =                1103.5502323062744381
    Total Energy =                       -628.2226965083480081
  Basis Set: (AUG-CC-PVTZ AUX)
    Blend: AUG-CC-PVTZ-RI
    Molecular point group: c1

    Geometry (in Angstrom), charge = 0, multiplicity = 1:

       Center              X                  Y                   Z               Mass
    ------------   -----------------  -----------------  -----------------  -----------------
         O           -0.040145331270     2.169705218410    -0.306994511977    15.994914619570
         N            2.482200668730     1.916970218410     0.750451488023    14.003074004430
         C            1.117688668730     0.088100218410    -0.141041511977    12.000000000000
         C           -1.440074331270     0.290788218410    -0.038402511977    12.000000000000
         C           -0.099006331270     0.935533218410    -0.172404511977    12.000000000000
         C            2.369918668730     0.627360218410     0.254797488023    12.000000000000
         C            1.055716668730    -1.236211781590    -0.615186511977    12.000000000000
         C            3.489728668730    -0.224297781590     0.258254488023    12.000000000000
         C           -1.661931531270    -0.847456481590     0.837099088023    12.000000000000
         C           -2.523288331270     0.874551218410    -0.710558511977    12.000000000000
         C            2.182795668730    -2.047984781590    -0.646187511977    12.000000000000
         C            3.404911668730    -1.532024781590    -0.202873511977    12.000000000000
         C           -2.942472331270    -1.321209781590     0.965289488023    12.000000000000
         C           -3.802847331270     0.343200218410    -0.566028511977    12.000000000000
         C           -4.015398331270    -0.755323781590     0.272686488023    12.000000000000
         H            0.104050668730    -1.621298781590    -0.970908511977     1.007825032230
         H            4.447961668730     0.173327218410     0.589436488023     1.007825032230
         H           -0.821419331270    -1.240412781590     1.355592488023     1.007825032230
         H           -2.343329331270     1.743595218410    -1.338102511977     1.007825032230
         H            2.116812668730    -3.063438781590    -1.026899511977     1.007825032230
         H            4.296436668730    -2.155368781590    -0.207098511977     1.007825032230
         H           -3.109322331270    -2.163930781590     1.631971488023     1.007825032230
         H           -4.638218331270     0.788547218410    -1.101079511977     1.007825032230
         H           -5.015969331270    -1.164482781590     0.391132488023     1.007825032230
         H            1.789997668730     2.559618218410     0.379635488023     1.007825032230
         H            3.425804668730     2.286017218410     0.749172488023     1.007825032230

  Basis Set: AUG-CC-PVTZ
    Blend: AUG-CC-PVTZ
  Basis Set: (AUG-CC-PVTZ AUX)
    Blend: AUG-CC-PVTZ-JKFIT
	 Reference Energy          =    -628.2226965083478945 [Eh]
	 Singles Energy            =      -0.0000000000000000 [Eh]
	 Same-Spin Energy          =      -0.6915844675899383 [Eh]
	 Opposite-Spin Energy      =      -2.1099074030421305 [Eh]
	 Correlation Energy        =      -2.8014918706320691 [Eh]
	 Total Energy              =    -631.0241883789799431 [Eh]

	 ================> DF-SCS-MP2 Energies <==================
	-----------------------------------------------------------
	 SCS Same-Spin Scale       =       0.3333333333333333 [-]
	 SCS Opposite-Spin Scale   =       1.2000000000000000 [-]
	 SCS Same-Spin Energy      =      -0.2305281558633128 [Eh]
	 SCS Opposite-Spin Energy  =      -2.5318888836505566 [Eh]
	 SCS Correlation Energy    =      -2.7624170395138692 [Eh]
	 SCS Total Energy          =    -630.9851135478617152 [Eh]
	-----------------------------------------------------------

  Dipole Moment: [D]
     X:     0.3357      Y:    -1.6297      Z:    -0.1098     Total:     1.6675

*** Psi4 exiting successfully. Buy a developer a beer!
