                               Psi4 1.3.2 release

  ==> Input File <==

--------------------------------------------------------------------------
#psi4
#
memory 32 gb

molecule  {
0 1
  O       -0.0417540     2.1858230    -0.3073980
  N        2.4805920     1.9330880     0.7500480
  C        1.1160800     0.1042180    -0.1414450
  C       -1.4416830     0.3069060    -0.0388060
  C       -0.0909156     0.9344982    -0.1557309
  C        2.3683100     0.6434780     0.2543940
  C        1.0541080    -1.2200940    -0.6155900
  C        3.4881200    -0.2081800     0.2578510
  C       -1.6559060    -0.7921710     0.8065690
  C       -2.5248970     0.8906690    -0.7109620
  C        2.1811870    -2.0318670    -0.6465910
  C        3.4033030    -1.5159070    -0.2032770
  C       -2.9440810    -1.3050920     0.9648860
  C       -3.8044560     0.3593180    -0.5664320
  C       -4.0170070    -0.7392060     0.2722830
  H        0.1024420    -1.6051810    -0.9713120
  H        4.4463530     0.1894450     0.5890330
  H       -0.8230280    -1.2242950     1.3551890
  H       -2.3449380     1.7597130    -1.3385060
  H        2.1152040    -3.0473210    -1.0273030
  H        4.2948280    -2.1392510    -0.2075020
  H       -3.1109310    -2.1478130     1.6315680
  H       -4.6398270     0.8046650    -1.1014830
  H       -5.0175780    -1.1483650     0.3907290
  H        1.7883890     2.5757360     0.3792320
  H        3.4241960     2.3021350     0.7487690
units angstrom
no_reorient  #important for SAPT in psi4, default
symmetry c1  #important for SAPT in psi4, default
}

set PROPERTIES_ORIGIN ["COM"]
properties('MP2/aug-cc-pvtz', properties = ['dipole'])
--------------------------------------------------------------------------

    Molecular point group: c1
  Charge       = 0
  Multiplicity = 1
  Basis Set: AUG-CC-PVTZ
    Blend: AUG-CC-PVTZ
  Basis Set: (AUG-CC-PVTZ AUX)
    Blend: AUG-CC-PVTZ-JKFIT

    Orbital Energies [Eh]
    ---------------------

    Doubly Occupied:

       1A    -20.538542     2A    -15.562455     3A    -11.341688
       4A    -11.300605     5A    -11.256010     6A    -11.255666
       7A    -11.252281     8A    -11.251403     9A    -11.250457
      10A    -11.248194    11A    -11.245564    12A    -11.244367
      13A    -11.241360    14A    -11.234489    15A    -11.230770
      16A     -1.361651    17A     -1.229177    18A     -1.164213
      19A     -1.139941    20A     -1.059264    21A     -1.026317
      22A     -1.021969    23A     -0.999162    24A     -0.895216
      25A     -0.850231    26A     -0.838808    27A     -0.821095
      28A     -0.770832    29A     -0.718662    30A     -0.702650
      31A     -0.689271    32A     -0.670289    33A     -0.645523
      34A     -0.634161    35A     -0.615272    36A     -0.611137
      37A     -0.605128    38A     -0.597019    39A     -0.586198
      40A     -0.554017    41A     -0.535081    42A     -0.525992
      43A     -0.519241    44A     -0.509582    45A     -0.501885
      46A     -0.487468    47A     -0.454699    48A     -0.422936
      49A     -0.352772    50A     -0.346077    51A     -0.344312
      52A     -0.303015

  @DF-RHF Final Energy:  -628.22330967755966

   => Energetics <=

    Nuclear Repulsion Energy =            893.2464846054331247
    One-Electron Energy =               -2625.8113605873836605
    Two-Electron Energy =                1104.3415663043908808
    Total Energy =                       -628.2233096775596550
  Basis Set: (AUG-CC-PVTZ AUX)
    Blend: AUG-CC-PVTZ-RI
    Molecular point group: c1

    Geometry (in Angstrom), charge = 0, multiplicity = 1:

       Center              X                  Y                   Z               Mass
    ------------   -----------------  -----------------  -----------------  -----------------
         O           -0.041200734715     2.168364781265    -0.306199957629    15.994914619570
         N            2.481145265285     1.915629781265     0.751246042371    14.003074004430
         C            1.116633265285     0.086759781265    -0.140246957629    12.000000000000
         C           -1.441129734715     0.289447781265    -0.037607957629    12.000000000000
         C           -0.090362334715     0.917039981265    -0.154532857629    12.000000000000
         C            2.368863265285     0.626019781265     0.255592042371    12.000000000000
         C            1.054661265285    -1.237552218735    -0.614391957629    12.000000000000
         C            3.488673265285    -0.225638218735     0.259049042371    12.000000000000
         C           -1.655352734715    -0.809629218735     0.807767042371    12.000000000000
         C           -2.524343734715     0.873210781265    -0.709763957629    12.000000000000
         C            2.181740265285    -2.049325218735    -0.645392957629    12.000000000000
         C            3.403856265285    -1.533365218735    -0.202078957629    12.000000000000
         C           -2.943527734715    -1.322550218735     0.966084042371    12.000000000000
         C           -3.803902734715     0.341859781265    -0.565233957629    12.000000000000
         C           -4.016453734715    -0.756664218735     0.273481042371    12.000000000000
         H            0.102995265285    -1.622639218735    -0.970113957629     1.007825032230
         H            4.446906265285     0.171986781265     0.590231042371     1.007825032230
         H           -0.822474734715    -1.241753218735     1.356387042371     1.007825032230
         H           -2.344384734715     1.742254781265    -1.337307957629     1.007825032230
         H            2.115757265285    -3.064779218735    -1.026104957629     1.007825032230
         H            4.295381265285    -2.156709218735    -0.206303957629     1.007825032230
         H           -3.110377734715    -2.165271218735     1.632766042371     1.007825032230
         H           -4.639273734715     0.787206781265    -1.100284957629     1.007825032230
         H           -5.017024734715    -1.165823218735     0.391927042371     1.007825032230
         H            1.788942265285     2.558277781265     0.380430042371     1.007825032230
         H            3.424749265285     2.284676781265     0.749967042371     1.007825032230

  Basis Set: AUG-CC-PVTZ
    Blend: AUG-CC-PVTZ
  Basis Set: (AUG-CC-PVTZ AUX)
    Blend: AUG-CC-PVTZ-JKFIT
	 Reference Energy          =    -628.2233096775596550 [Eh]
	 Singles Energy            =      -0.0000000000000000 [Eh]
	 Same-Spin Energy          =      -0.6921527187679071 [Eh]
	 Opposite-Spin Energy      =      -2.1107503426563197 [Eh]
	 Correlation Energy        =      -2.8029030614242267 [Eh]
	 Total Energy              =    -631.0262127389838724 [Eh]

	 ================> DF-SCS-MP2 Energies <==================
	-----------------------------------------------------------
	 SCS Same-Spin Scale       =       0.3333333333333333 [-]
	 SCS Opposite-Spin Scale   =       1.2000000000000000 [-]
	 SCS Same-Spin Energy      =      -0.2307175729226357 [Eh]
	 SCS Opposite-Spin Energy  =      -2.5329004111875837 [Eh]
	 SCS Correlation Energy    =      -2.7636179841102195 [Eh]
	 SCS Total Energy          =    -630.9869276616698244 [Eh]
	-----------------------------------------------------------

  Dipole Moment: [D]
     X:     0.4502      Y:    -1.7233      Z:    -0.0849     Total:     1.7832

*** Psi4 exiting successfully. Buy a developer a beer!
