                               Psi4 1.3.2 release

  ==> Input File <==

--------------------------------------------------------------------------
#psi4
#
memory 32 gb

molecule  {
0 1
  O       -0.0417540     2.1858230    -0.3073980
  N        2.4805920     1.9330880     0.7500480
  C        1.2117459     0.0898842    -0.1240986
  C       -1.4416830     0.3069060    -0.0388060
  C       -0.1006150     0.9516510    -0.1728080
  C        2.3683100     0.6434780     0.2543940
  C        1.0541080    -1.2200940    -0.6155900
  C        3.4881200    -0.2081800     0.2578510
  C       -1.6559060    -0.7921710     0.8065690
  C       -2.5248970     0.8906690    -0.7109620
  C        2.1811870    -2.0318670    -0.6465910
  C        3.4033030    -1.5159070    -0.2032770
  C       -2.9440810    -1.3050920     0.9648860
  C       -3.8044560     0.3593180    -0.5664320
  C       -4.0170070    -0.7392060     0.2722830
  H        0.1024420    -1.6051810    -0.9713120
  H        4.4463530     0.1894450     0.5890330
  H       -0.8230280    -1.2242950     1.3551890
  H       -2.3449380     1.7597130    -1.3385060
  H        2.1152040    -3.0473210    -1.0273030
  H        4.2948280    -2.1392510    -0.2075020
  H       -3.1109310    -2.1478130     1.6315680
  H       -4.6398270     0.8046650    -1.1014830
  H       -5.0175780    -1.1483650     0.3907290
  H        1.7883890     2.5757360     0.3792320
  H        3.4241960     2.3021350     0.7487690
units angstrom
no_reorient  #important for SAPT in psi4, default
symmetry c1  #important for SAPT in psi4, default
}

set PROPERTIES_ORIGIN ["COM"]
properties('MP2/aug-cc-pvtz', properties = ['dipole'])
--------------------------------------------------------------------------

    Molecular point group: c1
  Charge       = 0
  Multiplicity = 1
  Basis Set: AUG-CC-PVTZ
    Blend: AUG-CC-PVTZ
  Basis Set: (AUG-CC-PVTZ AUX)
    Blend: AUG-CC-PVTZ-JKFIT

    Orbital Energies [Eh]
    ---------------------

    Doubly Occupied:

       1A    -20.545512     2A    -15.557581     3A    -11.346967
       4A    -11.284254     5A    -11.254390     6A    -11.252993
       7A    -11.252762     8A    -11.250389     9A    -11.250088
      10A    -11.248830    11A    -11.247198    12A    -11.245848
      13A    -11.239414    14A    -11.234121    15A    -11.230177
      16A     -1.375482    17A     -1.230055    18A     -1.165526
      19A     -1.140309    20A     -1.052314    21A     -1.027661
      22A     -1.020795    23A     -1.003281    24A     -0.887292
      25A     -0.850684    26A     -0.841357    27A     -0.819762
      28A     -0.768998    29A     -0.717868    30A     -0.702274
      31A     -0.684709    32A     -0.665835    33A     -0.648384
      34A     -0.636294    35A     -0.619875    36A     -0.613468
      37A     -0.603891    38A     -0.598343    39A     -0.585242
      40A     -0.556648    41A     -0.531761    42A     -0.529106
      43A     -0.519805    44A     -0.516065    45A     -0.503382
      46A     -0.492848    47A     -0.452084    48A     -0.414574
      49A     -0.350837    50A     -0.347091    51A     -0.345326
      52A     -0.306607

  @DF-RHF Final Energy:  -628.21583071604198

   => Energetics <=

    Nuclear Repulsion Energy =            893.1639449422087864
    One-Electron Energy =               -2625.6268339483194723
    Two-Electron Energy =                1104.2470582900689351
    Total Energy =                       -628.2158307160418644
  Basis Set: (AUG-CC-PVTZ AUX)
    Blend: AUG-CC-PVTZ-RI
    Molecular point group: c1

    Geometry (in Angstrom), charge = 0, multiplicity = 1:

       Center              X                  Y                   Z               Mass
    ------------   -----------------  -----------------  -----------------  -----------------
         O           -0.046435039200     2.168193138773    -0.306216354693    15.994914619570
         N            2.475910960800     1.915458138773     0.751229645307    14.003074004430
         C            1.207064860800     0.072254338773    -0.122916954693    12.000000000000
         C           -1.446364039200     0.289276138773    -0.037624354693    12.000000000000
         C           -0.105296039200     0.934021138773    -0.171626354693    12.000000000000
         C            2.363628960800     0.625848138773     0.255575645307    12.000000000000
         C            1.049426960800    -1.237723861227    -0.614408354693    12.000000000000
         C            3.483438960800    -0.225809861227     0.259032645307    12.000000000000
         C           -1.660587039200    -0.809800861227     0.807750645307    12.000000000000
         C           -2.529578039200     0.873039138773    -0.709780354693    12.000000000000
         C            2.176505960800    -2.049496861227    -0.645409354693    12.000000000000
         C            3.398621960800    -1.533536861227    -0.202095354693    12.000000000000
         C           -2.948762039200    -1.322721861227     0.966067645307    12.000000000000
         C           -3.809137039200     0.341688138773    -0.565250354693    12.000000000000
         C           -4.021688039200    -0.756835861227     0.273464645307    12.000000000000
         H            0.097760960800    -1.622810861227    -0.970130354693     1.007825032230
         H            4.441671960800     0.171815138773     0.590214645307     1.007825032230
         H           -0.827709039200    -1.241924861227     1.356370645307     1.007825032230
         H           -2.349619039200     1.742083138773    -1.337324354693     1.007825032230
         H            2.110522960800    -3.064950861227    -1.026121354693     1.007825032230
         H            4.290146960800    -2.156880861227    -0.206320354693     1.007825032230
         H           -3.115612039200    -2.165442861227     1.632749645307     1.007825032230
         H           -4.644508039200     0.787035138773    -1.100301354693     1.007825032230
         H           -5.022259039200    -1.165994861227     0.391910645307     1.007825032230
         H            1.783707960800     2.558106138773     0.380413645307     1.007825032230
         H            3.419514960800     2.284505138773     0.749950645307     1.007825032230

  Basis Set: AUG-CC-PVTZ
    Blend: AUG-CC-PVTZ
  Basis Set: (AUG-CC-PVTZ AUX)
    Blend: AUG-CC-PVTZ-JKFIT
	 Reference Energy          =    -628.2158307160419781 [Eh]
	 Singles Energy            =      -0.0000000000000000 [Eh]
	 Same-Spin Energy          =      -0.6912621089795625 [Eh]
	 Opposite-Spin Energy      =      -2.1096463418000679 [Eh]
	 Correlation Energy        =      -2.8009084507796302 [Eh]
	 Total Energy              =    -631.0167391668215942 [Eh]

	 ================> DF-SCS-MP2 Energies <==================
	-----------------------------------------------------------
	 SCS Same-Spin Scale       =       0.3333333333333333 [-]
	 SCS Opposite-Spin Scale   =       1.2000000000000000 [-]
	 SCS Same-Spin Energy      =      -0.2304207029931875 [Eh]
	 SCS Opposite-Spin Energy  =      -2.5315756101600813 [Eh]
	 SCS Correlation Energy    =      -2.7619963131532685 [Eh]
	 SCS Total Energy          =    -630.9778270291952822 [Eh]
	-----------------------------------------------------------

  Dipole Moment: [D]
     X:     0.0216      Y:    -1.6160      Z:    -0.1536     Total:     1.6234

*** Psi4 exiting successfully. Buy a developer a beer!
