                               Psi4 1.4a3.dev225

  ==> Input File <==

--------------------------------------------------------------------------
#psi4
#
memory 32 gb

molecule  {
0 1
  O       -0.0417540     2.1858230    -0.3073980
  N        2.4805920     1.9330880     0.7500480
  C        1.1160800     0.1042180    -0.1414450
  C       -1.4416830     0.3069060    -0.0388060
  C       -0.1006150     0.9516510    -0.1728080
  C        2.3683100     0.6434780     0.2543940
  C        1.0541080    -1.2200940    -0.6155900
  C        3.4881200    -0.2081800     0.2578510
  C       -1.6589597    -0.8078381     0.8186196
  C       -2.5248970     0.8906690    -0.7109620
  C        2.1811870    -2.0318670    -0.6465910
  C        3.4033030    -1.5159070    -0.2032770
  C       -2.9440810    -1.3050920     0.9648860
  C       -3.8044560     0.3593180    -0.5664320
  C       -4.0170070    -0.7392060     0.2722830
  H        0.1024420    -1.6051810    -0.9713120
  H        4.4463530     0.1894450     0.5890330
  H       -0.8230280    -1.2242950     1.3551890
  H       -2.3449380     1.7597130    -1.3385060
  H        2.1152040    -3.0473210    -1.0273030
  H        4.2948280    -2.1392510    -0.2075020
  H       -3.1109310    -2.1478130     1.6315680
  H       -4.6398270     0.8046650    -1.1014830
  H       -5.0175780    -1.1483650     0.3907290
  H        1.7883890     2.5757360     0.3792320
  H        3.4241960     2.3021350     0.7487690
units angstrom
no_reorient  #important for SAPT in psi4, default
symmetry c1  #important for SAPT in psi4, default
}

set PROPERTIES_ORIGIN ["COM"]
properties('MP2/aug-cc-pvtz', properties = ['dipole'])
--------------------------------------------------------------------------

    Molecular point group: c1
  Charge       = 0
  Multiplicity = 1
  Basis Set: AUG-CC-PVTZ
    Blend: AUG-CC-PVTZ
  Basis Set: (AUG-CC-PVTZ AUX)
    Blend: AUG-CC-PVTZ-JKFIT

    Orbital Energies [Eh]
    ---------------------

    Doubly Occupied:

       1A    -20.541261     2A    -15.561868     3A    -11.341426
       4A    -11.298983     5A    -11.254479     6A    -11.254185
       7A    -11.252957     8A    -11.251772     9A    -11.251692
      10A    -11.248405    11A    -11.245030    12A    -11.244747
      13A    -11.241132    14A    -11.233565    15A    -11.229843
      16A     -1.374124    17A     -1.228518    18A     -1.163260
      19A     -1.138562    20A     -1.056610    21A     -1.027983
      22A     -1.020298    23A     -0.997733    24A     -0.893743
      25A     -0.849868    26A     -0.838537    27A     -0.819399
      28A     -0.769875    29A     -0.718353    30A     -0.702769
      31A     -0.688593    32A     -0.670968    33A     -0.647467
      34A     -0.634985    35A     -0.614514    36A     -0.611108
      37A     -0.604664    38A     -0.598736    39A     -0.587366
      40A     -0.555113    41A     -0.535718    42A     -0.527899
      43A     -0.519718    44A     -0.509640    45A     -0.500700
      46A     -0.490815    47A     -0.454062    48A     -0.421904
      49A     -0.352153    50A     -0.346146    51A     -0.344192
      52A     -0.302044

  @DF-RHF Final Energy:  -628.22540470574040

   => Energetics <=

    Nuclear Repulsion Energy =            892.9042014547293320
    One-Electron Energy =               -2625.1202544632410536
    Two-Electron Energy =                1103.9906483027712056
    Total Energy =                       -628.2254047057404023
  Basis Set: (AUG-CC-PVTZ AUX)
    Blend: AUG-CC-PVTZ-RI
    Molecular point group: c1

    Geometry (in Angstrom), charge = 0, multiplicity = 1:

       Center              X                  Y                   Z               Mass
    ------------   -----------------  -----------------  -----------------  -----------------
         O           -0.040424227488     2.168274320375    -0.305893905486    15.994914619570
         N            2.481921772512     1.915539320375     0.751552094514    14.003074004430
         C            1.117409772512     0.086669320375    -0.139940905486    12.000000000000
         C           -1.440353227488     0.289357320375    -0.037301905486    12.000000000000
         C           -0.099285227488     0.934102320375    -0.171303905486    12.000000000000
         C            2.369639772512     0.625929320375     0.255898094514    12.000000000000
         C            1.055437772512    -1.237642679625    -0.614085905486    12.000000000000
         C            3.489449772512    -0.225728679625     0.259355094514    12.000000000000
         C           -1.657629927488    -0.825386779625     0.820123694514    12.000000000000
         C           -2.523567227488     0.873120320375    -0.709457905486    12.000000000000
         C            2.182516772512    -2.049415679625    -0.645086905486    12.000000000000
         C            3.404632772512    -1.533455679625    -0.201772905486    12.000000000000
         C           -2.942751227488    -1.322640679625     0.966390094514    12.000000000000
         C           -3.803126227488     0.341769320375    -0.564927905486    12.000000000000
         C           -4.015677227488    -0.756754679625     0.273787094514    12.000000000000
         H            0.103771772512    -1.622729679625    -0.969807905486     1.007825032230
         H            4.447682772512     0.171896320375     0.590537094514     1.007825032230
         H           -0.821698227488    -1.241843679625     1.356693094514     1.007825032230
         H           -2.343608227488     1.742164320375    -1.337001905486     1.007825032230
         H            2.116533772512    -3.064869679625    -1.025798905486     1.007825032230
         H            4.296157772512    -2.156799679625    -0.205997905486     1.007825032230
         H           -3.109601227488    -2.165361679625     1.633072094514     1.007825032230
         H           -4.638497227488     0.787116320375    -1.099978905486     1.007825032230
         H           -5.016248227488    -1.165913679625     0.392233094514     1.007825032230
         H            1.789718772512     2.558187320375     0.380736094514     1.007825032230
         H            3.425525772512     2.284586320375     0.750273094514     1.007825032230

  Basis Set: AUG-CC-PVTZ
    Blend: AUG-CC-PVTZ
  Basis Set: (AUG-CC-PVTZ AUX)
    Blend: AUG-CC-PVTZ-JKFIT
	 Reference Energy          =    -628.2254047057404023 [Eh]
	 Singles Energy            =      -0.0000000000000000 [Eh]
	 Same-Spin Energy          =      -0.6915736572890110 [Eh]
	 Opposite-Spin Energy      =      -2.1096811033699838 [Eh]
	 Correlation Energy        =      -2.8012547606589946 [Eh]
	 Total Energy              =    -631.0266594663994510 [Eh]

	 ================> DF-SCS-MP2 Energies <==================
	-----------------------------------------------------------
	 SCS Same-Spin Scale       =       0.3333333333333333 [-]
	 SCS Opposite-Spin Scale   =       1.2000000000000000 [-]
	 SCS Same-Spin Energy      =      -0.2305245524296703 [Eh]
	 SCS Opposite-Spin Energy  =      -2.5316173240439803 [Eh]
	 SCS Correlation Energy    =      -2.7621418764736507 [Eh]
	 SCS Total Energy          =    -630.9875465822140086 [Eh]
	-----------------------------------------------------------

  Dipole Moment: [D]
     X:     0.3453      Y:    -1.6335      Z:    -0.1050     Total:     1.6729

*** Psi4 exiting successfully. Buy a developer a beer!
