                               Psi4 1.4a3.dev225

  ==> Input File <==

--------------------------------------------------------------------------
#psi4
#
memory 32 gb

molecule  {
0 1
  O       -0.0417540     2.1858230    -0.3073980
  N        2.4805920     1.9330880     0.7500480
  C        1.1160800     0.1042180    -0.1414450
  C       -1.4416830     0.3069060    -0.0388060
  C       -0.1454960     0.9300736    -0.1683234
  C        2.3683100     0.6434780     0.2543940
  C        1.0541080    -1.2200940    -0.6155900
  C        3.4881200    -0.2081800     0.2578510
  C       -1.6559060    -0.7921710     0.8065690
  C       -2.5248970     0.8906690    -0.7109620
  C        2.1811870    -2.0318670    -0.6465910
  C        3.4033030    -1.5159070    -0.2032770
  C       -2.9440810    -1.3050920     0.9648860
  C       -3.8044560     0.3593180    -0.5664320
  C       -4.0170070    -0.7392060     0.2722830
  H        0.1024420    -1.6051810    -0.9713120
  H        4.4463530     0.1894450     0.5890330
  H       -0.8230280    -1.2242950     1.3551890
  H       -2.3449380     1.7597130    -1.3385060
  H        2.1152040    -3.0473210    -1.0273030
  H        4.2948280    -2.1392510    -0.2075020
  H       -3.1109310    -2.1478130     1.6315680
  H       -4.6398270     0.8046650    -1.1014830
  H       -5.0175780    -1.1483650     0.3907290
  H        1.7883890     2.5757360     0.3792320
  H        3.4241960     2.3021350     0.7487690
units angstrom
no_reorient  #important for SAPT in psi4, default
symmetry c1  #important for SAPT in psi4, default
}

set PROPERTIES_ORIGIN ["COM"]
properties('MP2/aug-cc-pvtz', properties = ['dipole'])
--------------------------------------------------------------------------

    Molecular point group: c1
  Charge       = 0
  Multiplicity = 1
  Basis Set: AUG-CC-PVTZ
    Blend: AUG-CC-PVTZ
  Basis Set: (AUG-CC-PVTZ AUX)
    Blend: AUG-CC-PVTZ-JKFIT

    Orbital Energies [Eh]
    ---------------------

    Doubly Occupied:

       1A    -20.538177     2A    -15.559195     3A    -11.342252
       4A    -11.297226     5A    -11.257152     6A    -11.255938
       7A    -11.252716     8A    -11.252215     9A    -11.251557
      10A    -11.249987    11A    -11.248670    12A    -11.247158
      13A    -11.242139    14A    -11.232133    15A    -11.228075
      16A     -1.357872    17A     -1.225547    18A     -1.169171
      19A     -1.136475    20A     -1.061323    21A     -1.030154
      22A     -1.021999    23A     -0.995198    24A     -0.897682
      25A     -0.849678    26A     -0.841121    27A     -0.820045
      28A     -0.771348    29A     -0.718524    30A     -0.701712
      31A     -0.685810    32A     -0.670957    33A     -0.649138
      34A     -0.634910    35A     -0.616026    36A     -0.609881
      37A     -0.603367    38A     -0.599824    39A     -0.582120
      40A     -0.551502    41A     -0.532812    42A     -0.528022
      43A     -0.521663    44A     -0.508114    45A     -0.504941
      46A     -0.486183    47A     -0.451844    48A     -0.423010
      49A     -0.352286    50A     -0.348694    51A     -0.345909
      52A     -0.299802

  @DF-RHF Final Energy:  -628.22028182059785

   => Energetics <=

    Nuclear Repulsion Energy =            893.1578868898133123
    One-Electron Energy =               -2625.6378326900480715
    Two-Electron Energy =                1104.2596639796370255
    Total Energy =                       -628.2202818205978474
  Basis Set: (AUG-CC-PVTZ AUX)
    Blend: AUG-CC-PVTZ-RI
    Molecular point group: c1

    Geometry (in Angstrom), charge = 0, multiplicity = 1:

       Center              X                  Y                   Z               Mass
    ------------   -----------------  -----------------  -----------------  -----------------
         O           -0.037877458409     2.168634185087    -0.305433228970    15.994914619570
         N            2.484468541591     1.915899185087     0.752012771030    14.003074004430
         C            1.119956541591     0.087029185087    -0.139480228970    12.000000000000
         C           -1.437806458409     0.289717185087    -0.036841228970    12.000000000000
         C           -0.141619458409     0.912884785087    -0.166358628970    12.000000000000
         C            2.372186541591     0.626289185087     0.256358771030    12.000000000000
         C            1.057984541591    -1.237282814913    -0.613625228970    12.000000000000
         C            3.491996541591    -0.225368814913     0.259815771030    12.000000000000
         C           -1.652029458409    -0.809359814913     0.808533771030    12.000000000000
         C           -2.521020458409     0.873480185087    -0.708997228970    12.000000000000
         C            2.185063541591    -2.049055814913    -0.644626228970    12.000000000000
         C            3.407179541591    -1.533095814913    -0.201312228970    12.000000000000
         C           -2.940204458409    -1.322280814913     0.966850771030    12.000000000000
         C           -3.800579458409     0.342129185087    -0.564467228970    12.000000000000
         C           -4.013130458409    -0.756394814913     0.274247771030    12.000000000000
         H            0.106318541591    -1.622369814913    -0.969347228970     1.007825032230
         H            4.450229541591     0.172256185087     0.590997771030     1.007825032230
         H           -0.819151458409    -1.241483814913     1.357153771030     1.007825032230
         H           -2.341061458409     1.742524185087    -1.336541228970     1.007825032230
         H            2.119080541591    -3.064509814913    -1.025338228970     1.007825032230
         H            4.298704541591    -2.156439814913    -0.205537228970     1.007825032230
         H           -3.107054458409    -2.165001814913     1.633532771030     1.007825032230
         H           -4.635950458409     0.787476185087    -1.099518228970     1.007825032230
         H           -5.013701458409    -1.165553814913     0.392693771030     1.007825032230
         H            1.792265541591     2.558547185087     0.381196771030     1.007825032230
         H            3.428072541591     2.284946185087     0.750733771030     1.007825032230

  Basis Set: AUG-CC-PVTZ
    Blend: AUG-CC-PVTZ
  Basis Set: (AUG-CC-PVTZ AUX)
    Blend: AUG-CC-PVTZ-JKFIT
	 Reference Energy          =    -628.2202818205978474 [Eh]
	 Singles Energy            =      -0.0000000000000000 [Eh]
	 Same-Spin Energy          =      -0.6924833782883896 [Eh]
	 Opposite-Spin Energy      =      -2.1113903939652818 [Eh]
	 Correlation Energy        =      -2.8038737722536715 [Eh]
	 Total Energy              =    -631.0241555928515709 [Eh]

	 ================> DF-SCS-MP2 Energies <==================
	-----------------------------------------------------------
	 SCS Same-Spin Scale       =       0.3333333333333333 [-]
	 SCS Opposite-Spin Scale   =       1.2000000000000000 [-]
	 SCS Same-Spin Energy      =      -0.2308277927627965 [Eh]
	 SCS Opposite-Spin Energy  =      -2.5336684727583383 [Eh]
	 SCS Correlation Energy    =      -2.7644962655211347 [Eh]
	 SCS Total Energy          =    -630.9847780861190358 [Eh]
	-----------------------------------------------------------

  Dipole Moment: [D]
     X:    -0.0825      Y:    -1.7265      Z:    -0.0619     Total:     1.7296

*** Psi4 exiting successfully. Buy a developer a beer!
