                               Psi4 1.3.2 release

  ==> Input File <==

--------------------------------------------------------------------------
#psi4
#
memory 32 gb

molecule  {
0 1
  O       -0.0201213     2.1845015    -0.3083075
  N        2.4805920     1.9330880     0.7500480
  C        1.1160800     0.1042180    -0.1414450
  C       -1.4416830     0.3069060    -0.0388060
  C       -0.1006150     0.9516510    -0.1728080
  C        2.3683100     0.6434780     0.2543940
  C        1.0541080    -1.2200940    -0.6155900
  C        3.4881200    -0.2081800     0.2578510
  C       -1.6559060    -0.7921710     0.8065690
  C       -2.5248970     0.8906690    -0.7109620
  C        2.1811870    -2.0318670    -0.6465910
  C        3.4033030    -1.5159070    -0.2032770
  C       -2.9440810    -1.3050920     0.9648860
  C       -3.8044560     0.3593180    -0.5664320
  C       -4.0170070    -0.7392060     0.2722830
  H        0.1024420    -1.6051810    -0.9713120
  H        4.4463530     0.1894450     0.5890330
  H       -0.8230280    -1.2242950     1.3551890
  H       -2.3449380     1.7597130    -1.3385060
  H        2.1152040    -3.0473210    -1.0273030
  H        4.2948280    -2.1392510    -0.2075020
  H       -3.1109310    -2.1478130     1.6315680
  H       -4.6398270     0.8046650    -1.1014830
  H       -5.0175780    -1.1483650     0.3907290
  H        1.7883890     2.5757360     0.3792320
  H        3.4241960     2.3021350     0.7487690
units angstrom
no_reorient  #important for SAPT in psi4, default
symmetry c1  #important for SAPT in psi4, default
}

set PROPERTIES_ORIGIN ["COM"]
properties('MP2/aug-cc-pvtz', properties = ['dipole'])
--------------------------------------------------------------------------

    Molecular point group: c1
  Charge       = 0
  Multiplicity = 1
  Basis Set: AUG-CC-PVTZ
    Blend: AUG-CC-PVTZ
  Basis Set: (AUG-CC-PVTZ AUX)
    Blend: AUG-CC-PVTZ-JKFIT

    Orbital Energies [Eh]
    ---------------------

    Doubly Occupied:

       1A    -20.541547     2A    -15.560929     3A    -11.341715
       4A    -11.298350     5A    -11.253924     6A    -11.253566
       7A    -11.253378     8A    -11.252151     9A    -11.251057
      10A    -11.248899    11A    -11.246416    12A    -11.245008
      13A    -11.240345    14A    -11.233067    15A    -11.229335
      16A     -1.374579    17A     -1.227680    18A     -1.165055
      19A     -1.138029    20A     -1.057573    21A     -1.027082
      22A     -1.021229    23A     -0.997218    24A     -0.893344
      25A     -0.849201    26A     -0.839264    27A     -0.819859
      28A     -0.770809    29A     -0.718253    30A     -0.702209
      31A     -0.687993    32A     -0.670247    33A     -0.648626
      34A     -0.634721    35A     -0.616075    36A     -0.611085
      37A     -0.604277    38A     -0.597739    39A     -0.586723
      40A     -0.554774    41A     -0.535712    42A     -0.527010
      43A     -0.519796    44A     -0.509380    45A     -0.502974
      46A     -0.491085    47A     -0.453397    48A     -0.421865
      49A     -0.351736    50A     -0.346965    51A     -0.345075
      52A     -0.301439

  @DF-RHF Final Energy:  -628.22597123154935

   => Energetics <=

    Nuclear Repulsion Energy =            893.2829829100862753
    One-Electron Energy =               -2625.8783768929206417
    Two-Electron Energy =                1104.3694227512849011
    Total Energy =                       -628.2259712315494653
  Basis Set: (AUG-CC-PVTZ AUX)
    Blend: AUG-CC-PVTZ-RI
    Molecular point group: c1

    Geometry (in Angstrom), charge = 0, multiplicity = 1:

       Center              X                  Y                   Z               Mass
    ------------   -----------------  -----------------  -----------------  -----------------
         O           -0.020733123281     2.166106136391    -0.305995858840    15.994914619570
         N            2.479980176719     1.914692636391     0.752359641160    14.003074004430
         C            1.115468176719     0.085822636391    -0.139133358840    12.000000000000
         C           -1.442294823281     0.288510636391    -0.036494358840    12.000000000000
         C           -0.101226823281     0.933255636391    -0.170496358840    12.000000000000
         C            2.367698176719     0.625082636391     0.256705641160    12.000000000000
         C            1.053496176719    -1.238489363609    -0.613278358840    12.000000000000
         C            3.487508176719    -0.226575363609     0.260162641160    12.000000000000
         C           -1.656517823281    -0.810566363609     0.808880641160    12.000000000000
         C           -2.525508823281     0.872273636391    -0.708650358840    12.000000000000
         C            2.180575176719    -2.050262363609    -0.644279358840    12.000000000000
         C            3.402691176719    -1.534302363609    -0.200965358840    12.000000000000
         C           -2.944692823281    -1.323487363609     0.967197641160    12.000000000000
         C           -3.805067823281     0.340922636391    -0.564120358840    12.000000000000
         C           -4.017618823281    -0.757601363609     0.274594641160    12.000000000000
         H            0.101830176719    -1.623576363609    -0.969000358840     1.007825032230
         H            4.445741176719     0.171049636391     0.591344641160     1.007825032230
         H           -0.823639823281    -1.242690363609     1.357500641160     1.007825032230
         H           -2.345549823281     1.741317636391    -1.336194358840     1.007825032230
         H            2.114592176719    -3.065716363609    -1.024991358840     1.007825032230
         H            4.294216176719    -2.157646363609    -0.205190358840     1.007825032230
         H           -3.111542823281    -2.166208363609     1.633879641160     1.007825032230
         H           -4.640438823281     0.786269636391    -1.099171358840     1.007825032230
         H           -5.018189823281    -1.166760363609     0.393040641160     1.007825032230
         H            1.787777176719     2.557340636391     0.381543641160     1.007825032230
         H            3.423584176719     2.283739636391     0.751080641160     1.007825032230

  Basis Set: AUG-CC-PVTZ
    Blend: AUG-CC-PVTZ
  Basis Set: (AUG-CC-PVTZ AUX)
    Blend: AUG-CC-PVTZ-JKFIT
	 Reference Energy          =    -628.2259712315493516 [Eh]
	 Singles Energy            =      -0.0000000000000000 [Eh]
	 Same-Spin Energy          =      -0.6916008686113905 [Eh]
	 Opposite-Spin Energy      =      -2.1096245119659747 [Eh]
	 Correlation Energy        =      -2.8012253805773653 [Eh]
	 Total Energy              =    -631.0271966121267724 [Eh]

	 ================> DF-SCS-MP2 Energies <==================
	-----------------------------------------------------------
	 SCS Same-Spin Scale       =       0.3333333333333333 [-]
	 SCS Opposite-Spin Scale   =       1.2000000000000000 [-]
	 SCS Same-Spin Energy      =      -0.2305336228704635 [Eh]
	 SCS Opposite-Spin Energy  =      -2.5315494143591697 [Eh]
	 SCS Correlation Energy    =      -2.7620830372296332 [Eh]
	 SCS Total Energy          =    -630.9880542687790239 [Eh]
	-----------------------------------------------------------

  Dipole Moment: [D]
     X:     0.2573      Y:    -1.6336      Z:    -0.0976     Total:     1.6566

*** Psi4 exiting successfully. Buy a developer a beer!
