                               Psi4 1.3.2 release

  ==> Input File <==

--------------------------------------------------------------------------
#psi4
#
memory 32 gb

molecule  {
0 1
  O       -0.0417540     2.1858230    -0.3073980
  N        2.4805920     1.9330880     0.7500480
  C        1.1160800     0.1042180    -0.1414450
  C       -1.4416830     0.3069060    -0.0388060
  C       -0.0642973     0.8819141    -0.1043066
  C        2.3683100     0.6434780     0.2543940
  C        1.0541080    -1.2200940    -0.6155900
  C        3.4881200    -0.2081800     0.2578510
  C       -1.6559060    -0.7921710     0.8065690
  C       -2.5248970     0.8906690    -0.7109620
  C        2.1811870    -2.0318670    -0.6465910
  C        3.4033030    -1.5159070    -0.2032770
  C       -2.9440810    -1.3050920     0.9648860
  C       -3.8044560     0.3593180    -0.5664320
  C       -4.0170070    -0.7392060     0.2722830
  H        0.1024420    -1.6051810    -0.9713120
  H        4.4463530     0.1894450     0.5890330
  H       -0.8230280    -1.2242950     1.3551890
  H       -2.3449380     1.7597130    -1.3385060
  H        2.1152040    -3.0473210    -1.0273030
  H        4.2948280    -2.1392510    -0.2075020
  H       -3.1109310    -2.1478130     1.6315680
  H       -4.6398270     0.8046650    -1.1014830
  H       -5.0175780    -1.1483650     0.3907290
  H        1.7883890     2.5757360     0.3792320
  H        3.4241960     2.3021350     0.7487690
units angstrom
no_reorient  #important for SAPT in psi4, default
symmetry c1  #important for SAPT in psi4, default
}

set PROPERTIES_ORIGIN ["COM"]
properties('MP2/aug-cc-pvtz', properties = ['dipole'])
--------------------------------------------------------------------------

    Molecular point group: c1
  Charge       = 0
  Multiplicity = 1
  Basis Set: AUG-CC-PVTZ
    Blend: AUG-CC-PVTZ
  Basis Set: (AUG-CC-PVTZ AUX)
    Blend: AUG-CC-PVTZ-JKFIT

    Orbital Energies [Eh]
    ---------------------

    Doubly Occupied:

       1A    -20.528903     2A    -15.564194     3A    -11.341711
       4A    -11.305534     5A    -11.260709     6A    -11.259893
       7A    -11.252219     8A    -11.251179     9A    -11.250688
      10A    -11.248460    11A    -11.244750    12A    -11.244205
      13A    -11.241318    14A    -11.237280    15A    -11.233551
      16A     -1.325078    17A     -1.230581    18A     -1.163770
      19A     -1.144025    20A     -1.065228    21A     -1.026306
      22A     -1.023546    23A     -1.003209    24A     -0.901008
      25A     -0.853268    26A     -0.838120    27A     -0.824157
      28A     -0.772094    29A     -0.720158    30A     -0.704055
      31A     -0.691236    32A     -0.670221    33A     -0.641419
      34A     -0.633495    35A     -0.614510    36A     -0.612036
      37A     -0.605854    38A     -0.596459    39A     -0.578407
      40A     -0.552962    41A     -0.534151    42A     -0.524368
      43A     -0.517736    44A     -0.508707    45A     -0.499931
      46A     -0.474942    47A     -0.456470    48A     -0.422086
      49A     -0.354582    50A     -0.345416    51A     -0.342937
      52A     -0.305672

  @DF-RHF Final Energy:  -628.20640331052698

   => Energetics <=

    Nuclear Repulsion Energy =            893.3786875126405675
    One-Electron Energy =               -2626.0845897766189410
    Two-Electron Energy =                1104.4994989534511660
    Total Energy =                       -628.2064033105270937
  Basis Set: (AUG-CC-PVTZ AUX)
    Blend: AUG-CC-PVTZ-RI
    Molecular point group: c1

    Geometry (in Angstrom), charge = 0, multiplicity = 1:

       Center              X                  Y                   Z               Mass
    ------------   -----------------  -----------------  -----------------  -----------------
         O           -0.042821462406     2.171566507408    -0.309331066190    15.994914619570
         N            2.479524537594     1.918831507408     0.748114933810    14.003074004430
         C            1.115012537594     0.089961507408    -0.143378066190    12.000000000000
         C           -1.442750462406     0.292649507408    -0.040739066190    12.000000000000
         C           -0.065364762406     0.867657607408    -0.106239666190    12.000000000000
         C            2.367242537594     0.629221507408     0.252460933810    12.000000000000
         C            1.053040537594    -1.234350492592    -0.617523066190    12.000000000000
         C            3.487052537594    -0.222436492592     0.255917933810    12.000000000000
         C           -1.656973462406    -0.806427492592     0.804635933810    12.000000000000
         C           -2.525964462406     0.876412507408    -0.712895066190    12.000000000000
         C            2.180119537594    -2.046123492592    -0.648524066190    12.000000000000
         C            3.402235537594    -1.530163492592    -0.205210066190    12.000000000000
         C           -2.945148462406    -1.319348492592     0.962952933810    12.000000000000
         C           -3.805523462406     0.345061507408    -0.568365066190    12.000000000000
         C           -4.018074462406    -0.753462492592     0.270349933810    12.000000000000
         H            0.101374537594    -1.619437492592    -0.973245066190     1.007825032230
         H            4.445285537594     0.175188507408     0.587099933810     1.007825032230
         H           -0.824095462406    -1.238551492592     1.353255933810     1.007825032230
         H           -2.346005462406     1.745456507408    -1.340439066190     1.007825032230
         H            2.114136537594    -3.061577492592    -1.029236066190     1.007825032230
         H            4.293760537594    -2.153507492592    -0.209435066190     1.007825032230
         H           -3.111998462406    -2.162069492592     1.629634933810     1.007825032230
         H           -4.640894462406     0.790408507408    -1.103416066190     1.007825032230
         H           -5.018645462406    -1.162621492592     0.388795933810     1.007825032230
         H            1.787321537594     2.561479507408     0.377298933810     1.007825032230
         H            3.423128537594     2.287878507408     0.746835933810     1.007825032230

  Basis Set: AUG-CC-PVTZ
    Blend: AUG-CC-PVTZ
  Basis Set: (AUG-CC-PVTZ AUX)
    Blend: AUG-CC-PVTZ-JKFIT
	 Reference Energy          =    -628.2064033105269800 [Eh]
	 Singles Energy            =      -0.0000000000000000 [Eh]
	 Same-Spin Energy          =      -0.6942554575819451 [Eh]
	 Opposite-Spin Energy      =      -2.1148555124824497 [Eh]
	 Correlation Energy        =      -2.8091109700643946 [Eh]
	 Total Energy              =    -631.0155142805913329 [Eh]

	 ================> DF-SCS-MP2 Energies <==================
	-----------------------------------------------------------
	 SCS Same-Spin Scale       =       0.3333333333333333 [-]
	 SCS Opposite-Spin Scale   =       1.2000000000000000 [-]
	 SCS Same-Spin Energy      =      -0.2314184858606483 [Eh]
	 SCS Opposite-Spin Energy  =      -2.5378266149789397 [Eh]
	 SCS Correlation Energy    =      -2.7692451008395880 [Eh]
	 SCS Total Energy          =    -630.9756484113665920 [Eh]
	-----------------------------------------------------------

  Dipole Moment: [D]
     X:     0.7263      Y:    -1.9602      Z:    -0.0416     Total:     2.0909

*** Psi4 exiting successfully. Buy a developer a beer!
