                               Psi4 1.3.2 release

  ==> Input File <==

--------------------------------------------------------------------------
#psi4
#
memory 32 gb

molecule  {
0 1
  O       -0.0417540     2.1858230    -0.3073980
  N        2.4805920     1.9330880     0.7500480
  C        1.1160800     0.1042180    -0.1414450
  C       -1.4416830     0.3069060    -0.0388060
  C       -0.1138117     0.9319262    -0.1831406
  C        2.3683100     0.6434780     0.2543940
  C        1.0541080    -1.2200940    -0.6155900
  C        3.4881200    -0.2081800     0.2578510
  C       -1.6559060    -0.7921710     0.8065690
  C       -2.5248970     0.8906690    -0.7109620
  C        2.1811870    -2.0318670    -0.6465910
  C        3.4033030    -1.5159070    -0.2032770
  C       -2.9440810    -1.3050920     0.9648860
  C       -3.8044560     0.3593180    -0.5664320
  C       -4.0170070    -0.7392060     0.2722830
  H        0.1024420    -1.6051810    -0.9713120
  H        4.4463530     0.1894450     0.5890330
  H       -0.8230280    -1.2242950     1.3551890
  H       -2.3449380     1.7597130    -1.3385060
  H        2.1152040    -3.0473210    -1.0273030
  H        4.2948280    -2.1392510    -0.2075020
  H       -3.1109310    -2.1478130     1.6315680
  H       -4.6398270     0.8046650    -1.1014830
  H       -5.0175780    -1.1483650     0.3907290
  H        1.7883890     2.5757360     0.3792320
  H        3.4241960     2.3021350     0.7487690
units angstrom
no_reorient  #important for SAPT in psi4, default
symmetry c1  #important for SAPT in psi4, default
}

set PROPERTIES_ORIGIN ["COM"]
properties('MP2/aug-cc-pvtz', properties = ['dipole'])
--------------------------------------------------------------------------

    Molecular point group: c1
  Charge       = 0
  Multiplicity = 1
  Basis Set: AUG-CC-PVTZ
    Blend: AUG-CC-PVTZ
  Basis Set: (AUG-CC-PVTZ AUX)
    Blend: AUG-CC-PVTZ-JKFIT

    Orbital Energies [Eh]
    ---------------------

    Doubly Occupied:

       1A    -20.538708     2A    -15.561248     3A    -11.341913
       4A    -11.299411     5A    -11.254550     6A    -11.254146
       7A    -11.253929     8A    -11.252966     9A    -11.250759
      10A    -11.249386    11A    -11.246793    12A    -11.245308
      13A    -11.241595    14A    -11.233598    15A    -11.229622
      16A     -1.361372    17A     -1.227751    18A     -1.165999
      19A     -1.138589    20A     -1.059422    21A     -1.027907
      22A     -1.022119    23A     -0.997525    24A     -0.895535
      25A     -0.849910    26A     -0.839943    27A     -0.820795
      28A     -0.770906    29A     -0.718604    30A     -0.702322
      31A     -0.687784    32A     -0.670532    33A     -0.647036
      34A     -0.634578    35A     -0.615546    36A     -0.610849
      37A     -0.604429    38A     -0.598152    39A     -0.584491
      40A     -0.552996    41A     -0.534176    42A     -0.526686
      43A     -0.520322    44A     -0.509353    45A     -0.503083
      46A     -0.487261    47A     -0.453595    48A     -0.423229
      49A     -0.352212    50A     -0.346897    51A     -0.345383
      52A     -0.301773

  @DF-RHF Final Energy:  -628.22314260305609

   => Energetics <=

    Nuclear Repulsion Energy =            893.1857150503533376
    One-Electron Energy =               -2625.6917313929252487
    Two-Electron Energy =                1104.2828737395159351
    Total Energy =                       -628.2231426030559760
  Basis Set: (AUG-CC-PVTZ AUX)
    Blend: AUG-CC-PVTZ-RI
    Molecular point group: c1

    Geometry (in Angstrom), charge = 0, multiplicity = 1:

       Center              X                  Y                   Z               Mass
    ------------   -----------------  -----------------  -----------------  -----------------
         O           -0.039806643308     2.168521384490    -0.304531043393    15.994914619570
         N            2.482539356692     1.915786384490     0.752914956607    14.003074004430
         C            1.118027356692     0.086916384490    -0.138578043393    12.000000000000
         C           -1.439735643308     0.289604384490    -0.035939043393    12.000000000000
         C           -0.111864343308     0.914624584490    -0.180273643393    12.000000000000
         C            2.370257356692     0.626176384490     0.257260956607    12.000000000000
         C            1.056055356692    -1.237395615510    -0.612723043393    12.000000000000
         C            3.490067356692    -0.225481615510     0.260717956607    12.000000000000
         C           -1.653958643308    -0.809472615510     0.809435956607    12.000000000000
         C           -2.522949643308     0.873367384490    -0.708095043393    12.000000000000
         C            2.183134356692    -2.049168615510    -0.643724043393    12.000000000000
         C            3.405250356692    -1.533208615510    -0.200410043393    12.000000000000
         C           -2.942133643308    -1.322393615510     0.967752956607    12.000000000000
         C           -3.802508643308     0.342016384490    -0.563565043393    12.000000000000
         C           -4.015059643308    -0.756507615510     0.275149956607    12.000000000000
         H            0.104389356692    -1.622482615510    -0.968445043393     1.007825032230
         H            4.448300356692     0.172143384490     0.591899956607     1.007825032230
         H           -0.821080643308    -1.241596615510     1.358055956607     1.007825032230
         H           -2.342990643308     1.742411384490    -1.335639043393     1.007825032230
         H            2.117151356692    -3.064622615510    -1.024436043393     1.007825032230
         H            4.296775356692    -2.156552615510    -0.204635043393     1.007825032230
         H           -3.108983643308    -2.165114615510     1.634434956607     1.007825032230
         H           -4.637879643308     0.787363384490    -1.098616043393     1.007825032230
         H           -5.015630643308    -1.165666615510     0.393595956607     1.007825032230
         H            1.790336356692     2.558434384490     0.382098956607     1.007825032230
         H            3.426143356692     2.284833384490     0.751635956607     1.007825032230

  Basis Set: AUG-CC-PVTZ
    Blend: AUG-CC-PVTZ
  Basis Set: (AUG-CC-PVTZ AUX)
    Blend: AUG-CC-PVTZ-JKFIT
	 Reference Energy          =    -628.2231426030560897 [Eh]
	 Singles Energy            =      -0.0000000000000000 [Eh]
	 Same-Spin Energy          =      -0.6921998679255109 [Eh]
	 Opposite-Spin Energy      =      -2.1108506253015129 [Eh]
	 Correlation Energy        =      -2.8030504932270239 [Eh]
	 Total Energy              =    -631.0261930962831229 [Eh]

	 ================> DF-SCS-MP2 Energies <==================
	-----------------------------------------------------------
	 SCS Same-Spin Scale       =       0.3333333333333333 [-]
	 SCS Opposite-Spin Scale   =       1.2000000000000000 [-]
	 SCS Same-Spin Energy      =      -0.2307332893085036 [Eh]
	 SCS Opposite-Spin Energy  =      -2.5330207503618154 [Eh]
	 SCS Correlation Energy    =      -2.7637540396703191 [Eh]
	 SCS Total Energy          =    -630.9868966427263786 [Eh]
	-----------------------------------------------------------

  Dipole Moment: [D]
     X:     0.2571      Y:    -1.7176      Z:    -0.0913     Total:     1.7392

*** Psi4 exiting successfully. Buy a developer a beer!
