                               Psi4 1.3.2 release

  ==> Input File <==

--------------------------------------------------------------------------
#psi4
#
memory 32 gb

molecule  {
0 1
  O       -0.0417540     2.1858230    -0.3073980
  N        2.4805920     1.9330880     0.7500480
  C        0.9721611     0.1136082    -0.1717663
  C       -1.4416830     0.3069060    -0.0388060
  C       -0.1006150     0.9516510    -0.1728080
  C        2.3683100     0.6434780     0.2543940
  C        1.0541080    -1.2200940    -0.6155900
  C        3.4881200    -0.2081800     0.2578510
  C       -1.6559060    -0.7921710     0.8065690
  C       -2.5248970     0.8906690    -0.7109620
  C        2.1811870    -2.0318670    -0.6465910
  C        3.4033030    -1.5159070    -0.2032770
  C       -2.9440810    -1.3050920     0.9648860
  C       -3.8044560     0.3593180    -0.5664320
  C       -4.0170070    -0.7392060     0.2722830
  H        0.1024420    -1.6051810    -0.9713120
  H        4.4463530     0.1894450     0.5890330
  H       -0.8230280    -1.2242950     1.3551890
  H       -2.3449380     1.7597130    -1.3385060
  H        2.1152040    -3.0473210    -1.0273030
  H        4.2948280    -2.1392510    -0.2075020
  H       -3.1109310    -2.1478130     1.6315680
  H       -4.6398270     0.8046650    -1.1014830
  H       -5.0175780    -1.1483650     0.3907290
  H        1.7883890     2.5757360     0.3792320
  H        3.4241960     2.3021350     0.7487690
units angstrom
no_reorient  #important for SAPT in psi4, default
symmetry c1  #important for SAPT in psi4, default
}

set PROPERTIES_ORIGIN ["COM"]
properties('MP2/aug-cc-pvtz', properties = ['dipole'])
--------------------------------------------------------------------------

    Molecular point group: c1
  Charge       = 0
  Multiplicity = 1
  Basis Set: AUG-CC-PVTZ
    Blend: AUG-CC-PVTZ
  Basis Set: (AUG-CC-PVTZ AUX)
    Blend: AUG-CC-PVTZ-JKFIT

    Orbital Energies [Eh]
    ---------------------

    Doubly Occupied:

       1A    -20.531643     2A    -15.569759     3A    -11.327419
       4A    -11.318856     5A    -11.265285     6A    -11.263320
       7A    -11.248856     8A    -11.248068     9A    -11.244706
      10A    -11.243504    11A    -11.242950    12A    -11.242908
      13A    -11.241247    14A    -11.234643    15A    -11.231619
      16A     -1.369456    17A     -1.229033    18A     -1.162140
      19A     -1.138935    20A     -1.070045    21A     -1.023868
      22A     -1.019844    23A     -0.996018    24A     -0.906533
      25A     -0.847035    26A     -0.833828    27A     -0.819242
      28A     -0.772257    29A     -0.719330    30A     -0.705773
      31A     -0.694746    32A     -0.672860    33A     -0.645898
      34A     -0.632781    35A     -0.614328    36A     -0.610698
      37A     -0.605556    38A     -0.594177    39A     -0.584186
      40A     -0.553185    41A     -0.544303    42A     -0.523162
      43A     -0.518021    44A     -0.499358    45A     -0.498565
      46A     -0.481833    47A     -0.457983    48A     -0.422170
      49A     -0.357159    50A     -0.343856    51A     -0.341356
      52A     -0.298303

  @DF-RHF Final Energy:  -628.19918124228116

   => Energetics <=

    Nuclear Repulsion Energy =            893.5409301353724913
    One-Electron Energy =               -2626.3550144965774962
    Two-Electron Energy =                1104.6149031189238485
    Total Energy =                       -628.1991812422811563
  Basis Set: (AUG-CC-PVTZ AUX)
    Blend: AUG-CC-PVTZ-RI
    Molecular point group: c1

    Geometry (in Angstrom), charge = 0, multiplicity = 1:

       Center              X                  Y                   Z               Mass
    ------------   -----------------  -----------------  -----------------  -----------------
         O           -0.031847266135     2.166748638420    -0.303313976954    15.994914619570
         N            2.490498733865     1.914013638420     0.754132023046    14.003074004430
         C            0.982067833865     0.094533838420    -0.167682276954    12.000000000000
         C           -1.431776266135     0.287831638420    -0.034721976954    12.000000000000
         C           -0.090708266135     0.932576638420    -0.168723976954    12.000000000000
         C            2.378216733865     0.624403638420     0.258478023046    12.000000000000
         C            1.064014733865    -1.239168361580    -0.611505976954    12.000000000000
         C            3.498026733865    -0.227254361580     0.261935023046    12.000000000000
         C           -1.645999266135    -0.811245361580     0.810653023046    12.000000000000
         C           -2.514990266135     0.871594638420    -0.706877976954    12.000000000000
         C            2.191093733865    -2.050941361580    -0.642506976954    12.000000000000
         C            3.413209733865    -1.534981361580    -0.199192976954    12.000000000000
         C           -2.934174266135    -1.324166361580     0.968970023046    12.000000000000
         C           -3.794549266135     0.340243638420    -0.562347976954    12.000000000000
         C           -4.007100266135    -0.758280361580     0.276367023046    12.000000000000
         H            0.112348733865    -1.624255361580    -0.967227976954     1.007825032230
         H            4.456259733865     0.170370638420     0.593117023046     1.007825032230
         H           -0.813121266135    -1.243369361580     1.359273023046     1.007825032230
         H           -2.335031266135     1.740638638420    -1.334421976954     1.007825032230
         H            2.125110733865    -3.066395361580    -1.023218976954     1.007825032230
         H            4.304734733865    -2.158325361580    -0.203417976954     1.007825032230
         H           -3.101024266135    -2.166887361580     1.635652023046     1.007825032230
         H           -4.629920266135     0.785590638420    -1.097398976954     1.007825032230
         H           -5.007671266135    -1.167439361580     0.394813023046     1.007825032230
         H            1.798295733865     2.556661638420     0.383316023046     1.007825032230
         H            3.434102733865     2.283060638420     0.752853023046     1.007825032230

  Basis Set: AUG-CC-PVTZ
    Blend: AUG-CC-PVTZ
  Basis Set: (AUG-CC-PVTZ AUX)
    Blend: AUG-CC-PVTZ-JKFIT
	 Reference Energy          =    -628.1991812422811563 [Eh]
	 Singles Energy            =      -0.0000000000000000 [Eh]
	 Same-Spin Energy          =      -0.6929607196941039 [Eh]
	 Opposite-Spin Energy      =      -2.1118968643927269 [Eh]
	 Correlation Energy        =      -2.8048575840868306 [Eh]
	 Total Energy              =    -631.0040388263679461 [Eh]

	 ================> DF-SCS-MP2 Energies <==================
	-----------------------------------------------------------
	 SCS Same-Spin Scale       =       0.3333333333333333 [-]
	 SCS Opposite-Spin Scale   =       1.2000000000000000 [-]
	 SCS Same-Spin Energy      =      -0.2309869065647013 [Eh]
	 SCS Opposite-Spin Energy  =      -2.5342762372712722 [Eh]
	 SCS Correlation Energy    =      -2.7652631438359734 [Eh]
	 SCS Total Energy          =    -630.9644443861171794 [Eh]
	-----------------------------------------------------------

  Dipole Moment: [D]
     X:     0.9493      Y:    -1.6994      Z:    -0.0206     Total:     1.9467

*** Psi4 exiting successfully. Buy a developer a beer!
