                               Psi4 1.4a3.dev225

  ==> Input File <==

--------------------------------------------------------------------------
#psi4
#
memory 32 gb

molecule  {
0 1
  O       -0.0417540     2.1858230    -0.3073980
  N        2.4805920     1.9330880     0.7500480
  C        1.1160800     0.1042180    -0.1414450
  C       -1.4416830     0.3069060    -0.0388060
  C       -0.0982471     1.0013005    -0.1782224
  C        2.3683100     0.6434780     0.2543940
  C        1.0541080    -1.2200940    -0.6155900
  C        3.4881200    -0.2081800     0.2578510
  C       -1.6559060    -0.7921710     0.8065690
  C       -2.5248970     0.8906690    -0.7109620
  C        2.1811870    -2.0318670    -0.6465910
  C        3.4033030    -1.5159070    -0.2032770
  C       -2.9440810    -1.3050920     0.9648860
  C       -3.8044560     0.3593180    -0.5664320
  C       -4.0170070    -0.7392060     0.2722830
  H        0.1024420    -1.6051810    -0.9713120
  H        4.4463530     0.1894450     0.5890330
  H       -0.8230280    -1.2242950     1.3551890
  H       -2.3449380     1.7597130    -1.3385060
  H        2.1152040    -3.0473210    -1.0273030
  H        4.2948280    -2.1392510    -0.2075020
  H       -3.1109310    -2.1478130     1.6315680
  H       -4.6398270     0.8046650    -1.1014830
  H       -5.0175780    -1.1483650     0.3907290
  H        1.7883890     2.5757360     0.3792320
  H        3.4241960     2.3021350     0.7487690
units angstrom
no_reorient  #important for SAPT in psi4, default
symmetry c1  #important for SAPT in psi4, default
}

set PROPERTIES_ORIGIN ["COM"]
properties('MP2/aug-cc-pvtz', properties = ['dipole'])
--------------------------------------------------------------------------

    Molecular point group: c1
  Charge       = 0
  Multiplicity = 1
  Basis Set: AUG-CC-PVTZ
    Blend: AUG-CC-PVTZ
  Basis Set: (AUG-CC-PVTZ AUX)
    Blend: AUG-CC-PVTZ-JKFIT

    Orbital Energies [Eh]
    ---------------------

    Doubly Occupied:

       1A    -20.549043     2A    -15.562028     3A    -11.340739
       4A    -11.296210     5A    -11.252449     6A    -11.252256
       7A    -11.251159     8A    -11.249796     9A    -11.248878
      10A    -11.246335    11A    -11.245010    12A    -11.243419
      13A    -11.240170    14A    -11.232181    15A    -11.228761
      16A     -1.410872    17A     -1.228564    18A     -1.162483
      19A     -1.136582    20A     -1.052685    21A     -1.025101
      22A     -1.018462    23A     -0.996067    24A     -0.887914
      25A     -0.847333    26A     -0.837483    27A     -0.817690
      28A     -0.769603    29A     -0.717678    30A     -0.702447
      31A     -0.688928    32A     -0.671940    33A     -0.653599
      34A     -0.634556    35A     -0.616936    36A     -0.612715
      37A     -0.604213    38A     -0.596425    39A     -0.591213
      40A     -0.561913    41A     -0.538953    42A     -0.528676
      43A     -0.519727    44A     -0.509892    45A     -0.501780
      46A     -0.497693    47A     -0.453542    48A     -0.416516
      49A     -0.350726    50A     -0.345796    51A     -0.343622
      52A     -0.301094

  @DF-RHF Final Energy:  -628.22757438682038

   => Energetics <=

    Nuclear Repulsion Energy =            893.2044006512019223
    One-Electron Energy =               -2625.6842438188459710
    Two-Electron Energy =                1104.2522687808236697
    Total Energy =                       -628.2275743868203790
  Basis Set: (AUG-CC-PVTZ AUX)
    Blend: AUG-CC-PVTZ-RI
    Molecular point group: c1

    Geometry (in Angstrom), charge = 0, multiplicity = 1:

       Center              X                  Y                   Z               Mass
    ------------   -----------------  -----------------  -----------------  -----------------
         O           -0.040754336370     2.164297341292    -0.304830501395    15.994914619570
         N            2.481591663630     1.911562341292     0.752615498605    14.003074004430
         C            1.117079663630     0.082692341292    -0.138877501395    12.000000000000
         C           -1.440683336370     0.285380341292    -0.036238501395    12.000000000000
         C           -0.097247436370     0.979774841292    -0.175654901395    12.000000000000
         C            2.369309663630     0.621952341292     0.256961498605    12.000000000000
         C            1.055107663630    -1.241619658708    -0.613022501395    12.000000000000
         C            3.489119663630    -0.229705658708     0.260418498605    12.000000000000
         C           -1.654906336370    -0.813696658708     0.809136498605    12.000000000000
         C           -2.523897336370     0.869143341292    -0.708394501395    12.000000000000
         C            2.182186663630    -2.053392658708    -0.644023501395    12.000000000000
         C            3.404302663630    -1.537432658708    -0.200709501395    12.000000000000
         C           -2.943081336370    -1.326617658708     0.967453498605    12.000000000000
         C           -3.803456336370     0.337792341292    -0.563864501395    12.000000000000
         C           -4.016007336370    -0.760731658708     0.274850498605    12.000000000000
         H            0.103441663630    -1.626706658708    -0.968744501395     1.007825032230
         H            4.447352663630     0.167919341292     0.591600498605     1.007825032230
         H           -0.822028336370    -1.245820658708     1.357756498605     1.007825032230
         H           -2.343938336370     1.738187341292    -1.335938501395     1.007825032230
         H            2.116203663630    -3.068846658708    -1.024735501395     1.007825032230
         H            4.295827663630    -2.160776658708    -0.204934501395     1.007825032230
         H           -3.109931336370    -2.169338658708     1.634135498605     1.007825032230
         H           -4.638827336370     0.783139341292    -1.098915501395     1.007825032230
         H           -5.016578336370    -1.169890658708     0.393296498605     1.007825032230
         H            1.789388663630     2.554210341292     0.381799498605     1.007825032230
         H            3.425195663630     2.280609341292     0.751336498605     1.007825032230

  Basis Set: AUG-CC-PVTZ
    Blend: AUG-CC-PVTZ
  Basis Set: (AUG-CC-PVTZ AUX)
    Blend: AUG-CC-PVTZ-JKFIT
	 Reference Energy          =    -628.2275743868203790 [Eh]
	 Singles Energy            =      -0.0000000000000000 [Eh]
	 Same-Spin Energy          =      -0.6900753823922480 [Eh]
	 Opposite-Spin Energy      =      -2.1066767378700400 [Eh]
	 Correlation Energy        =      -2.7967521202622878 [Eh]
	 Total Energy              =    -631.0243265070827192 [Eh]

	 ================> DF-SCS-MP2 Energies <==================
	-----------------------------------------------------------
	 SCS Same-Spin Scale       =       0.3333333333333333 [-]
	 SCS Opposite-Spin Scale   =       1.2000000000000000 [-]
	 SCS Same-Spin Energy      =      -0.2300251274640827 [Eh]
	 SCS Opposite-Spin Energy  =      -2.5280120854440478 [Eh]
	 SCS Correlation Energy    =      -2.7580372129081305 [Eh]
	 SCS Total Energy          =    -630.9856115997284860 [Eh]
	-----------------------------------------------------------

  Dipole Moment: [D]
     X:     0.3257      Y:    -1.3852      Z:    -0.1366     Total:     1.4295

*** Psi4 exiting successfully. Buy a developer a beer!
