                               Psi4 1.3.2 release

  ==> Input File <==

--------------------------------------------------------------------------
#psi4
#
memory 32 gb

molecule  {
0 1
  O       -0.0417540     2.1858230    -0.3073980
  N        2.4805920     1.9330880     0.7500480
  C        1.1639799     0.0978539    -0.1324775
  C       -1.4416830     0.3069060    -0.0388060
  C       -0.1006150     0.9516510    -0.1728080
  C        2.3683100     0.6434780     0.2543940
  C        1.0541080    -1.2200940    -0.6155900
  C        3.4881200    -0.2081800     0.2578510
  C       -1.6559060    -0.7921710     0.8065690
  C       -2.5248970     0.8906690    -0.7109620
  C        2.1811870    -2.0318670    -0.6465910
  C        3.4033030    -1.5159070    -0.2032770
  C       -2.9440810    -1.3050920     0.9648860
  C       -3.8044560     0.3593180    -0.5664320
  C       -4.0170070    -0.7392060     0.2722830
  H        0.1024420    -1.6051810    -0.9713120
  H        4.4463530     0.1894450     0.5890330
  H       -0.8230280    -1.2242950     1.3551890
  H       -2.3449380     1.7597130    -1.3385060
  H        2.1152040    -3.0473210    -1.0273030
  H        4.2948280    -2.1392510    -0.2075020
  H       -3.1109310    -2.1478130     1.6315680
  H       -4.6398270     0.8046650    -1.1014830
  H       -5.0175780    -1.1483650     0.3907290
  H        1.7883890     2.5757360     0.3792320
  H        3.4241960     2.3021350     0.7487690
units angstrom
no_reorient  #important for SAPT in psi4, default
symmetry c1  #important for SAPT in psi4, default
}

set PROPERTIES_ORIGIN ["COM"]
properties('MP2/aug-cc-pvtz', properties = ['dipole'])
--------------------------------------------------------------------------

    Molecular point group: c1
  Charge       = 0
  Multiplicity = 1
  Basis Set: AUG-CC-PVTZ
    Blend: AUG-CC-PVTZ
  Basis Set: (AUG-CC-PVTZ AUX)
    Blend: AUG-CC-PVTZ-JKFIT

    Orbital Energies [Eh]
    ---------------------

    Doubly Occupied:

       1A    -20.543783     2A    -15.559620     3A    -11.344722
       4A    -11.291664     5A    -11.253594     6A    -11.252331
       7A    -11.252062     8A    -11.251627     9A    -11.251488
      10A    -11.249221    11A    -11.246598    12A    -11.245224
      13A    -11.240314    14A    -11.233695    15A    -11.229857
      16A     -1.375143    17A     -1.229071    18A     -1.165014
      19A     -1.139222    20A     -1.054623    21A     -1.027161
      22A     -1.021014    23A     -1.000113    24A     -0.890035
      25A     -0.849814    26A     -0.840352    27A     -0.820161
      28A     -0.769747    29A     -0.717973    30A     -0.702189
      31A     -0.686526    32A     -0.668337    33A     -0.648163
      34A     -0.635342    35A     -0.617233    36A     -0.612523
      37A     -0.604370    38A     -0.597895    39A     -0.586884
      40A     -0.555627    41A     -0.533560    42A     -0.528021
      43A     -0.519881    44A     -0.513120    45A     -0.502966
      46A     -0.492082    47A     -0.452952    48A     -0.419085
      49A     -0.351197    50A     -0.346782    51A     -0.345124
      52A     -0.304165

  @DF-RHF Final Energy:  -628.22386574611414

   => Energetics <=

    Nuclear Repulsion Energy =            893.1649774188813353
    One-Electron Energy =               -2625.6391591997380601
    Two-Electron Energy =                1104.2503160347425819
    Total Energy =                       -628.2238657461141429
  Basis Set: (AUG-CC-PVTZ AUX)
    Blend: AUG-CC-PVTZ-RI
    Molecular point group: c1

    Geometry (in Angstrom), charge = 0, multiplicity = 1:

       Center              X                  Y                   Z               Mass
    ------------   -----------------  -----------------  -----------------  -----------------
         O           -0.043526676197     2.167707881883    -0.305706182546    15.994914619570
         N            2.478819323803     1.914972881883     0.751739817454    14.003074004430
         C            1.162207223803     0.079738781883    -0.130785682546    12.000000000000
         C           -1.443455676197     0.288790881883    -0.037114182546    12.000000000000
         C           -0.102387676197     0.933535881883    -0.171116182546    12.000000000000
         C            2.366537323803     0.625362881883     0.256085817454    12.000000000000
         C            1.052335323803    -1.238209118117    -0.613898182546    12.000000000000
         C            3.486347323803    -0.226295118117     0.259542817454    12.000000000000
         C           -1.657678676197    -0.810286118117     0.808260817454    12.000000000000
         C           -2.526669676197     0.872553881883    -0.709270182546    12.000000000000
         C            2.179414323803    -2.049982118117    -0.644899182546    12.000000000000
         C            3.401530323803    -1.534022118117    -0.201585182546    12.000000000000
         C           -2.945853676197    -1.323207118117     0.966577817454    12.000000000000
         C           -3.806228676197     0.341202881883    -0.564740182546    12.000000000000
         C           -4.018779676197    -0.757321118117     0.273974817454    12.000000000000
         H            0.100669323803    -1.623296118117    -0.969620182546     1.007825032230
         H            4.444580323803     0.171329881883     0.590724817454     1.007825032230
         H           -0.824800676197    -1.242410118117     1.356880817454     1.007825032230
         H           -2.346710676197     1.741597881883    -1.336814182546     1.007825032230
         H            2.113431323803    -3.065436118117    -1.025611182546     1.007825032230
         H            4.293055323803    -2.157366118117    -0.205810182546     1.007825032230
         H           -3.112703676197    -2.165928118117     1.633259817454     1.007825032230
         H           -4.641599676197     0.786549881883    -1.099791182546     1.007825032230
         H           -5.019350676197    -1.166480118117     0.392420817454     1.007825032230
         H            1.786616323803     2.557620881883     0.380923817454     1.007825032230
         H            3.422423323803     2.284019881883     0.750460817454     1.007825032230

  Basis Set: AUG-CC-PVTZ
    Blend: AUG-CC-PVTZ
  Basis Set: (AUG-CC-PVTZ AUX)
    Blend: AUG-CC-PVTZ-JKFIT
	 Reference Energy          =    -628.2238657461141429 [Eh]
	 Singles Energy            =      -0.0000000000000000 [Eh]
	 Same-Spin Energy          =      -0.6913392764772399 [Eh]
	 Opposite-Spin Energy      =      -2.1094481685359106 [Eh]
	 Correlation Energy        =      -2.8007874450131505 [Eh]
	 Total Energy              =    -631.0246531911272996 [Eh]

	 ================> DF-SCS-MP2 Energies <==================
	-----------------------------------------------------------
	 SCS Same-Spin Scale       =       0.3333333333333333 [-]
	 SCS Opposite-Spin Scale   =       1.2000000000000000 [-]
	 SCS Same-Spin Energy      =      -0.2304464254924133 [Eh]
	 SCS Opposite-Spin Energy  =      -2.5313378022430926 [Eh]
	 SCS Correlation Energy    =      -2.7617842277355060 [Eh]
	 SCS Total Energy          =    -630.9856499738496041 [Eh]
	-----------------------------------------------------------

  Dipole Moment: [D]
     X:     0.1772      Y:    -1.6228      Z:    -0.1278     Total:     1.6375

*** Psi4 exiting successfully. Buy a developer a beer!
