                               Psi4 1.3.2 release

  ==> Input File <==

--------------------------------------------------------------------------
#psi4
#
memory 32 gb

molecule  {
0 1
  O       -0.0417540     2.1858230    -0.3073980
  N        2.4805920     1.9330880     0.7500480
  C        1.1160800     0.1042180    -0.1414450
  C       -1.3942297     0.3058402    -0.0267482
  C       -0.1006150     0.9516510    -0.1728080
  C        2.3683100     0.6434780     0.2543940
  C        1.0541080    -1.2200940    -0.6155900
  C        3.4881200    -0.2081800     0.2578510
  C       -1.6559060    -0.7921710     0.8065690
  C       -2.5248970     0.8906690    -0.7109620
  C        2.1811870    -2.0318670    -0.6465910
  C        3.4033030    -1.5159070    -0.2032770
  C       -2.9440810    -1.3050920     0.9648860
  C       -3.8044560     0.3593180    -0.5664320
  C       -4.0170070    -0.7392060     0.2722830
  H        0.1024420    -1.6051810    -0.9713120
  H        4.4463530     0.1894450     0.5890330
  H       -0.8230280    -1.2242950     1.3551890
  H       -2.3449380     1.7597130    -1.3385060
  H        2.1152040    -3.0473210    -1.0273030
  H        4.2948280    -2.1392510    -0.2075020
  H       -3.1109310    -2.1478130     1.6315680
  H       -4.6398270     0.8046650    -1.1014830
  H       -5.0175780    -1.1483650     0.3907290
  H        1.7883890     2.5757360     0.3792320
  H        3.4241960     2.3021350     0.7487690
units angstrom
no_reorient  #important for SAPT in psi4, default
symmetry c1  #important for SAPT in psi4, default
}

set PROPERTIES_ORIGIN ["COM"]
properties('MP2/aug-cc-pvtz', properties = ['dipole'])
--------------------------------------------------------------------------

    Molecular point group: c1
  Charge       = 0
  Multiplicity = 1
  Basis Set: AUG-CC-PVTZ
    Blend: AUG-CC-PVTZ
  Basis Set: (AUG-CC-PVTZ AUX)
    Blend: AUG-CC-PVTZ-JKFIT

    Orbital Energies [Eh]
    ---------------------

    Doubly Occupied:

       1A    -20.540266     2A    -15.561383     3A    -11.338975
       4A    -11.298270     5A    -11.255176     6A    -11.254442
       7A    -11.254293     8A    -11.253963     9A    -11.253621
      10A    -11.251306    11A    -11.246617    12A    -11.244997
      13A    -11.240090    14A    -11.233055    15A    -11.229368
      16A     -1.374369    17A     -1.227997    18A     -1.162227
      19A     -1.138037    20A     -1.061171    21A     -1.023661
      22A     -1.021798    23A     -0.997191    24A     -0.898329
      25A     -0.850403    26A     -0.837139    27A     -0.820356
      28A     -0.770437    29A     -0.718117    30A     -0.702238
      31A     -0.688264    32A     -0.673279    33A     -0.649036
      34A     -0.633986    35A     -0.616956    36A     -0.610734
      37A     -0.604279    38A     -0.594886    39A     -0.587324
      40A     -0.554723    41A     -0.535678    42A     -0.528283
      43A     -0.520493    44A     -0.509509    45A     -0.498060
      46A     -0.488794    47A     -0.453553    48A     -0.424246
      49A     -0.352548    50A     -0.347616    51A     -0.341382
      52A     -0.301493

  @DF-RHF Final Energy:  -628.22210472414849

   => Energetics <=

    Nuclear Repulsion Energy =            893.3906898892424806
    One-Electron Energy =               -2626.0767615242289139
    Two-Electron Energy =                1104.4639669108380531
    Total Energy =                       -628.2221047241484939
  Basis Set: (AUG-CC-PVTZ AUX)
    Blend: AUG-CC-PVTZ-RI
    Molecular point group: c1

    Geometry (in Angstrom), charge = 0, multiplicity = 1:

       Center              X                  Y                   Z               Mass
    ------------   -----------------  -----------------  -----------------  -----------------
         O           -0.043499483740     2.167385280457    -0.305894343878    15.994914619570
         N            2.478846516260     1.914650280457     0.751551656122    14.003074004430
         C            1.114334516260     0.085780280457    -0.139941343878    12.000000000000
         C           -1.395975183740     0.287402480457    -0.025244543878    12.000000000000
         C           -0.102360483740     0.933213280457    -0.171304343878    12.000000000000
         C            2.366564516260     0.625040280457     0.255897656122    12.000000000000
         C            1.052362516260    -1.238531719543    -0.614086343878    12.000000000000
         C            3.486374516260    -0.226617719543     0.259354656122    12.000000000000
         C           -1.657651483740    -0.810608719543     0.808072656122    12.000000000000
         C           -2.526642483740     0.872231280457    -0.709458343878    12.000000000000
         C            2.179441516260    -2.050304719543    -0.645087343878    12.000000000000
         C            3.401557516260    -1.534344719543    -0.201773343878    12.000000000000
         C           -2.945826483740    -1.323529719543     0.966389656122    12.000000000000
         C           -3.806201483740     0.340880280457    -0.564928343878    12.000000000000
         C           -4.018752483740    -0.757643719543     0.273786656122    12.000000000000
         H            0.100696516260    -1.623618719543    -0.969808343878     1.007825032230
         H            4.444607516260     0.171007280457     0.590536656122     1.007825032230
         H           -0.824773483740    -1.242732719543     1.356692656122     1.007825032230
         H           -2.346683483740     1.741275280457    -1.337002343878     1.007825032230
         H            2.113458516260    -3.065758719543    -1.025799343878     1.007825032230
         H            4.293082516260    -2.157688719543    -0.205998343878     1.007825032230
         H           -3.112676483740    -2.166250719543     1.633071656122     1.007825032230
         H           -4.641572483740     0.786227280457    -1.099979343878     1.007825032230
         H           -5.019323483740    -1.166802719543     0.392232656122     1.007825032230
         H            1.786643516260     2.557298280457     0.380735656122     1.007825032230
         H            3.422450516260     2.283697280457     0.750272656122     1.007825032230

  Basis Set: AUG-CC-PVTZ
    Blend: AUG-CC-PVTZ
  Basis Set: (AUG-CC-PVTZ AUX)
    Blend: AUG-CC-PVTZ-JKFIT
	 Reference Energy          =    -628.2221047241484939 [Eh]
	 Singles Energy            =      -0.0000000000000000 [Eh]
	 Same-Spin Energy          =      -0.6920178186991264 [Eh]
	 Opposite-Spin Energy      =      -2.1104780523392561 [Eh]
	 Correlation Energy        =      -2.8024958710383823 [Eh]
	 Total Energy              =    -631.0246005951868256 [Eh]

	 ================> DF-SCS-MP2 Energies <==================
	-----------------------------------------------------------
	 SCS Same-Spin Scale       =       0.3333333333333333 [-]
	 SCS Opposite-Spin Scale   =       1.2000000000000000 [-]
	 SCS Same-Spin Energy      =      -0.2306726062330421 [Eh]
	 SCS Opposite-Spin Energy  =      -2.5325736628071072 [Eh]
	 SCS Correlation Energy    =      -2.7632462690401494 [Eh]
	 SCS Total Energy          =    -630.9853509931886038 [Eh]
	-----------------------------------------------------------

  Dipole Moment: [D]
     X:     0.2279      Y:    -1.6760      Z:    -0.0885     Total:     1.6937

*** Psi4 exiting successfully. Buy a developer a beer!
