                               Psi4 1.3.2 release

  ==> Input File <==

--------------------------------------------------------------------------
#psi4
#
memory 32 gb

molecule  {
0 1
  O       -0.0417540     2.1858230    -0.3073980
  N        2.4805920     1.9330880     0.7500480
  C        1.1160800     0.1042180    -0.1414450
  C       -1.4656239     0.3073580    -0.0439305
  C       -0.1006150     0.9516510    -0.1728080
  C        2.3683100     0.6434780     0.2543940
  C        1.0541080    -1.2200940    -0.6155900
  C        3.4881200    -0.2081800     0.2578510
  C       -1.6559060    -0.7921710     0.8065690
  C       -2.5248970     0.8906690    -0.7109620
  C        2.1811870    -2.0318670    -0.6465910
  C        3.4033030    -1.5159070    -0.2032770
  C       -2.9440810    -1.3050920     0.9648860
  C       -3.8044560     0.3593180    -0.5664320
  C       -4.0170070    -0.7392060     0.2722830
  H        0.1024420    -1.6051810    -0.9713120
  H        4.4463530     0.1894450     0.5890330
  H       -0.8230280    -1.2242950     1.3551890
  H       -2.3449380     1.7597130    -1.3385060
  H        2.1152040    -3.0473210    -1.0273030
  H        4.2948280    -2.1392510    -0.2075020
  H       -3.1109310    -2.1478130     1.6315680
  H       -4.6398270     0.8046650    -1.1014830
  H       -5.0175780    -1.1483650     0.3907290
  H        1.7883890     2.5757360     0.3792320
  H        3.4241960     2.3021350     0.7487690
units angstrom
no_reorient  #important for SAPT in psi4, default
symmetry c1  #important for SAPT in psi4, default
}

set PROPERTIES_ORIGIN ["COM"]
properties('MP2/aug-cc-pvtz', properties = ['dipole'])
--------------------------------------------------------------------------

    Molecular point group: c1
  Charge       = 0
  Multiplicity = 1
  Basis Set: AUG-CC-PVTZ
    Blend: AUG-CC-PVTZ
  Basis Set: (AUG-CC-PVTZ AUX)
    Blend: AUG-CC-PVTZ-JKFIT

    Orbital Energies [Eh]
    ---------------------

    Doubly Occupied:

       1A    -20.542020     2A    -15.562126     3A    -11.342599
       4A    -11.299331     5A    -11.254719     6A    -11.254464
       7A    -11.251508     8A    -11.250185     9A    -11.249377
      10A    -11.245529    11A    -11.245319    12A    -11.243969
      13A    -11.241625    14A    -11.233784    15A    -11.230038
      16A     -1.374252    17A     -1.228785    18A     -1.165740
      19A     -1.138805    20A     -1.055872    21A     -1.028227
      22A     -1.020657    23A     -0.998024    24A     -0.891109
      25A     -0.848600    26A     -0.839855    27A     -0.819844
      28A     -0.770460    29A     -0.718298    30A     -0.702459
      31A     -0.688787    32A     -0.669055    33A     -0.647132
      34A     -0.634888    35A     -0.615409    36A     -0.611380
      37A     -0.605021    38A     -0.598130    39A     -0.587610
      40A     -0.554869    41A     -0.535869    42A     -0.526572
      43A     -0.519175    44A     -0.509739    45A     -0.504023
      46A     -0.491785    47A     -0.454223    48A     -0.420351
      49A     -0.352000    50A     -0.347064    51A     -0.344776
      52A     -0.302338

  @DF-RHF Final Energy:  -628.22587105164985

   => Energetics <=

    Nuclear Repulsion Energy =            893.1244684688170992
    One-Electron Energy =               -2625.5651211785479973
    Two-Electron Energy =                1104.2147816580809376
    Total Energy =                       -628.2258710516498468
  Basis Set: (AUG-CC-PVTZ AUX)
    Blend: AUG-CC-PVTZ-RI
    Molecular point group: c1

    Geometry (in Angstrom), charge = 0, multiplicity = 1:

       Center              X                  Y                   Z               Mass
    ------------   -----------------  -----------------  -----------------  -----------------
         O           -0.039152453429     2.167292865070    -0.304848152746    15.994914619570
         N            2.483193546571     1.914557865070     0.752597847254    14.003074004430
         C            1.118681546571     0.085687865070    -0.138895152746    12.000000000000
         C           -1.463022353429     0.288827865070    -0.041380652746    12.000000000000
         C           -0.098013453429     0.933120865070    -0.170258152746    12.000000000000
         C            2.370911546571     0.624947865070     0.256943847254    12.000000000000
         C            1.056709546571    -1.238624134930    -0.613040152746    12.000000000000
         C            3.490721546571    -0.226710134930     0.260400847254    12.000000000000
         C           -1.653304453429    -0.810701134930     0.809118847254    12.000000000000
         C           -2.522295453429     0.872138865070    -0.708412152746    12.000000000000
         C            2.183788546571    -2.050397134930    -0.644041152746    12.000000000000
         C            3.405904546571    -1.534437134930    -0.200727152746    12.000000000000
         C           -2.941479453429    -1.323622134930     0.967435847254    12.000000000000
         C           -3.801854453429     0.340787865070    -0.563882152746    12.000000000000
         C           -4.014405453429    -0.757736134930     0.274832847254    12.000000000000
         H            0.105043546571    -1.623711134930    -0.968762152746     1.007825032230
         H            4.448954546571     0.170914865070     0.591582847254     1.007825032230
         H           -0.820426453429    -1.242825134930     1.357738847254     1.007825032230
         H           -2.342336453429     1.741182865070    -1.335956152746     1.007825032230
         H            2.117805546571    -3.065851134930    -1.024753152746     1.007825032230
         H            4.297429546571    -2.157781134930    -0.204952152746     1.007825032230
         H           -3.108329453429    -2.166343134930     1.634117847254     1.007825032230
         H           -4.637225453429     0.786134865070    -1.098933152746     1.007825032230
         H           -5.014976453429    -1.166895134930     0.393278847254     1.007825032230
         H            1.790990546571     2.557205865070     0.381781847254     1.007825032230
         H            3.426797546571     2.283604865070     0.751318847254     1.007825032230

  Basis Set: AUG-CC-PVTZ
    Blend: AUG-CC-PVTZ
  Basis Set: (AUG-CC-PVTZ AUX)
    Blend: AUG-CC-PVTZ-JKFIT
	 Reference Energy          =    -628.2258710516498468 [Eh]
	 Singles Energy            =      -0.0000000000000000 [Eh]
	 Same-Spin Energy          =      -0.6913829729679160 [Eh]
	 Opposite-Spin Energy      =      -2.1092970118087386 [Eh]
	 Correlation Energy        =      -2.8006799847766546 [Eh]
	 Total Energy              =    -631.0265510364265538 [Eh]

	 ================> DF-SCS-MP2 Energies <==================
	-----------------------------------------------------------
	 SCS Same-Spin Scale       =       0.3333333333333333 [-]
	 SCS Opposite-Spin Scale   =       1.2000000000000000 [-]
	 SCS Same-Spin Energy      =      -0.2304609909893053 [Eh]
	 SCS Opposite-Spin Energy  =      -2.5311564141704861 [Eh]
	 SCS Correlation Energy    =      -2.7616174051597913 [Eh]
	 SCS Total Energy          =    -630.9874884568096149 [Eh]
	-----------------------------------------------------------

  Dipole Moment: [D]
     X:     0.4096      Y:    -1.6172      Z:    -0.1081     Total:     1.6717

*** Psi4 exiting successfully. Buy a developer a beer!
