                               Psi4 1.3.2 release

  ==> Input File <==

--------------------------------------------------------------------------
#psi4
#
memory 32 gb

molecule  {
0 1
  O       -0.0417540     2.1858230    -0.3073980
  N        2.5044298     1.9298181     0.7525654
  C        1.1160800     0.1042180    -0.1414450
  C       -1.4416830     0.3069060    -0.0388060
  C       -0.1006150     0.9516510    -0.1728080
  C        2.3683100     0.6434780     0.2543940
  C        1.0541080    -1.2200940    -0.6155900
  C        3.4881200    -0.2081800     0.2578510
  C       -1.6559060    -0.7921710     0.8065690
  C       -2.5248970     0.8906690    -0.7109620
  C        2.1811870    -2.0318670    -0.6465910
  C        3.4033030    -1.5159070    -0.2032770
  C       -2.9440810    -1.3050920     0.9648860
  C       -3.8044560     0.3593180    -0.5664320
  C       -4.0170070    -0.7392060     0.2722830
  H        0.1024420    -1.6051810    -0.9713120
  H        4.4463530     0.1894450     0.5890330
  H       -0.8230280    -1.2242950     1.3551890
  H       -2.3449380     1.7597130    -1.3385060
  H        2.1152040    -3.0473210    -1.0273030
  H        4.2948280    -2.1392510    -0.2075020
  H       -3.1109310    -2.1478130     1.6315680
  H       -4.6398270     0.8046650    -1.1014830
  H       -5.0175780    -1.1483650     0.3907290
  H        1.7883890     2.5757360     0.3792320
  H        3.4241960     2.3021350     0.7487690
units angstrom
no_reorient  #important for SAPT in psi4, default
symmetry c1  #important for SAPT in psi4, default
}

set PROPERTIES_ORIGIN ["COM"]
properties('MP2/aug-cc-pvtz', properties = ['dipole'])
--------------------------------------------------------------------------

    Molecular point group: c1
  Charge       = 0
  Multiplicity = 1
  Basis Set: AUG-CC-PVTZ
    Blend: AUG-CC-PVTZ
  Basis Set: (AUG-CC-PVTZ AUX)
    Blend: AUG-CC-PVTZ-JKFIT

    Orbital Energies [Eh]
    ---------------------

    Doubly Occupied:

       1A    -20.541866     2A    -15.561323     3A    -11.341852
       4A    -11.299107     5A    -11.254311     6A    -11.254156
       7A    -11.252743     8A    -11.251601     9A    -11.250316
      10A    -11.248239    11A    -11.245950    12A    -11.244537
      13A    -11.241590    14A    -11.232974    15A    -11.229734
      16A     -1.374604    17A     -1.228759    18A     -1.164485
      19A     -1.138624    20A     -1.057548    21A     -1.026623
      22A     -1.021183    23A     -0.997750    24A     -0.893419
      25A     -0.849375    26A     -0.839099    27A     -0.820372
      28A     -0.770056    29A     -0.718749    30A     -0.705123
      31A     -0.685697    32A     -0.671382    33A     -0.647927
      34A     -0.634398    35A     -0.617293    36A     -0.611002
      37A     -0.603880    38A     -0.597312    39A     -0.587125
      40A     -0.554805    41A     -0.535401    42A     -0.526992
      43A     -0.519584    44A     -0.510163    45A     -0.502431
      46A     -0.491223    47A     -0.453790    48A     -0.421976
      49A     -0.352032    50A     -0.346508    51A     -0.344659
      52A     -0.301803

  @DF-RHF Final Energy:  -628.22537029526131

   => Energetics <=

    Nuclear Repulsion Energy =            892.9851229141166868
    One-Electron Energy =               -2625.2740844738445958
    Two-Electron Energy =                1104.0635912644665950
    Total Energy =                       -628.2253702952612002
  Basis Set: (AUG-CC-PVTZ AUX)
    Blend: AUG-CC-PVTZ-RI
    Molecular point group: c1

    Geometry (in Angstrom), charge = 0, multiplicity = 1:

       Center              X                  Y                   Z               Mass
    ------------   -----------------  -----------------  -----------------  -----------------
         O           -0.042303866409     2.167552716885    -0.305339036365    15.994914619570
         N            2.503879933591     1.911547816885     0.754624363635    14.003074004430
         C            1.115530133591     0.085947716885    -0.139386036365    12.000000000000
         C           -1.442232866409     0.288635716885    -0.036747036365    12.000000000000
         C           -0.101164866409     0.933380716885    -0.170749036365    12.000000000000
         C            2.367760133591     0.625207716885     0.256452963635    12.000000000000
         C            1.053558133591    -1.238364283115    -0.613531036365    12.000000000000
         C            3.487570133591    -0.226450283115     0.259909963635    12.000000000000
         C           -1.656455866409    -0.810441283115     0.808627963635    12.000000000000
         C           -2.525446866409     0.872398716885    -0.708903036365    12.000000000000
         C            2.180637133591    -2.050137283115    -0.644532036365    12.000000000000
         C            3.402753133591    -1.534177283115    -0.201218036365    12.000000000000
         C           -2.944630866409    -1.323362283115     0.966944963635    12.000000000000
         C           -3.805005866409     0.341047716885    -0.564373036365    12.000000000000
         C           -4.017556866409    -0.757476283115     0.274341963635    12.000000000000
         H            0.101892133591    -1.623451283115    -0.969253036365     1.007825032230
         H            4.445803133591     0.171174716885     0.591091963635     1.007825032230
         H           -0.823577866409    -1.242565283115     1.357247963635     1.007825032230
         H           -2.345487866409     1.741442716885    -1.336447036365     1.007825032230
         H            2.114654133591    -3.065591283115    -1.025244036365     1.007825032230
         H            4.294278133591    -2.157521283115    -0.205443036365     1.007825032230
         H           -3.111480866409    -2.166083283115     1.633626963635     1.007825032230
         H           -4.640376866409     0.786394716885    -1.099424036365     1.007825032230
         H           -5.018127866409    -1.166635283115     0.392787963635     1.007825032230
         H            1.787839133591     2.557465716885     0.381290963635     1.007825032230
         H            3.423646133591     2.283864716885     0.750827963635     1.007825032230

  Basis Set: AUG-CC-PVTZ
    Blend: AUG-CC-PVTZ
  Basis Set: (AUG-CC-PVTZ AUX)
    Blend: AUG-CC-PVTZ-JKFIT
	 Reference Energy          =    -628.2253702952613139 [Eh]
	 Singles Energy            =      -0.0000000000000000 [Eh]
	 Same-Spin Energy          =      -0.6915488905657896 [Eh]
	 Opposite-Spin Energy      =      -2.1095514873308070 [Eh]
	 Correlation Energy        =      -2.8011003778965966 [Eh]
	 Total Energy              =    -631.0264706731578599 [Eh]

	 ================> DF-SCS-MP2 Energies <==================
	-----------------------------------------------------------
	 SCS Same-Spin Scale       =       0.3333333333333333 [-]
	 SCS Opposite-Spin Scale   =       1.2000000000000000 [-]
	 SCS Same-Spin Energy      =      -0.2305162968552632 [Eh]
	 SCS Opposite-Spin Energy  =      -2.5314617847969685 [Eh]
	 SCS Correlation Energy    =      -2.7619780816522317 [Eh]
	 SCS Total Energy          =    -630.9873483769135873 [Eh]
	-----------------------------------------------------------

  Dipole Moment: [D]
     X:     0.3213      Y:    -1.6309      Z:    -0.1019     Total:     1.6654

*** Psi4 exiting successfully. Buy a developer a beer!
