                               Psi4 1.3.2 release

  ==> Input File <==

--------------------------------------------------------------------------
#psi4
#
memory 32 gb

molecule  {
0 1
  O       -0.0417540     2.1858230    -0.3073980
  N        2.4805920     1.9330880     0.7500480
  C        1.1160800     0.1042180    -0.1414450
  C       -1.4896227     0.3074751    -0.0487958
  C       -0.1006150     0.9516510    -0.1728080
  C        2.3683100     0.6434780     0.2543940
  C        1.0541080    -1.2200940    -0.6155900
  C        3.4881200    -0.2081800     0.2578510
  C       -1.6559060    -0.7921710     0.8065690
  C       -2.5248970     0.8906690    -0.7109620
  C        2.1811870    -2.0318670    -0.6465910
  C        3.4033030    -1.5159070    -0.2032770
  C       -2.9440810    -1.3050920     0.9648860
  C       -3.8044560     0.3593180    -0.5664320
  C       -4.0170070    -0.7392060     0.2722830
  H        0.1024420    -1.6051810    -0.9713120
  H        4.4463530     0.1894450     0.5890330
  H       -0.8230280    -1.2242950     1.3551890
  H       -2.3449380     1.7597130    -1.3385060
  H        2.1152040    -3.0473210    -1.0273030
  H        4.2948280    -2.1392510    -0.2075020
  H       -3.1109310    -2.1478130     1.6315680
  H       -4.6398270     0.8046650    -1.1014830
  H       -5.0175780    -1.1483650     0.3907290
  H        1.7883890     2.5757360     0.3792320
  H        3.4241960     2.3021350     0.7487690
units angstrom
no_reorient  #important for SAPT in psi4, default
symmetry c1  #important for SAPT in psi4, default
}

set PROPERTIES_ORIGIN ["COM"]
properties('MP2/aug-cc-pvtz', properties = ['dipole'])
--------------------------------------------------------------------------

    Molecular point group: c1
  Charge       = 0
  Multiplicity = 1
  Basis Set: AUG-CC-PVTZ
    Blend: AUG-CC-PVTZ
  Basis Set: (AUG-CC-PVTZ AUX)
    Blend: AUG-CC-PVTZ-JKFIT

    Orbital Energies [Eh]
    ---------------------

    Doubly Occupied:

       1A    -20.542436     2A    -15.562303     3A    -11.343459
       4A    -11.299601     5A    -11.254906     6A    -11.254680
       7A    -11.250524     8A    -11.248974     9A    -11.248597
      10A    -11.245245    11A    -11.244347    12A    -11.242042
      13A    -11.241688    14A    -11.233969    15A    -11.230209
      16A     -1.374062    17A     -1.228974    18A     -1.167335
      19A     -1.139002    20A     -1.054380    21A     -1.030097
      22A     -1.020162    23A     -0.998228    24A     -0.889033
      25A     -0.847854    26A     -0.840846    27A     -0.819569
      28A     -0.770388    29A     -0.718388    30A     -0.702581
      31A     -0.688904    32A     -0.667777    33A     -0.646555
      34A     -0.635260    35A     -0.615125    36A     -0.611530
      37A     -0.605372    38A     -0.598771    39A     -0.587581
      40A     -0.554823    41A     -0.535921    42A     -0.526588
      43A     -0.518761    44A     -0.509967    45A     -0.505173
      46A     -0.492510    47A     -0.454386    48A     -0.418339
      49A     -0.352024    50A     -0.348852    51A     -0.343969
      52A     -0.302546

  @DF-RHF Final Energy:  -628.22416182429072

   => Energetics <=

    Nuclear Repulsion Energy =            893.0552745469013871
    One-Electron Energy =               -2625.4296456651991321
    Two-Electron Energy =                1104.1502092940070270
    Total Energy =                       -628.2241618242908316
  Basis Set: (AUG-CC-PVTZ AUX)
    Blend: AUG-CC-PVTZ-RI
    Molecular point group: c1

    Geometry (in Angstrom), charge = 0, multiplicity = 1:

       Center              X                  Y                   Z               Mass
    ------------   -----------------  -----------------  -----------------  -----------------
         O           -0.037691221129     2.167285735118    -0.304551915705    15.994914619570
         N            2.484654778871     1.914550735118     0.752894084295    14.003074004430
         C            1.120142778871     0.085680735118    -0.138598915705    12.000000000000
         C           -1.485559921129     0.288937835118    -0.045949715705    12.000000000000
         C           -0.096552221129     0.933113735118    -0.169961915705    12.000000000000
         C            2.372372778871     0.624940735118     0.257240084295    12.000000000000
         C            1.058170778871    -1.238631264882    -0.612743915705    12.000000000000
         C            3.492182778871    -0.226717264882     0.260697084295    12.000000000000
         C           -1.651843221129    -0.810708264882     0.809415084295    12.000000000000
         C           -2.520834221129     0.872131735118    -0.708115915705    12.000000000000
         C            2.185249778871    -2.050404264882    -0.643744915705    12.000000000000
         C            3.407365778871    -1.534444264882    -0.200430915705    12.000000000000
         C           -2.940018221129    -1.323629264882     0.967732084295    12.000000000000
         C           -3.800393221129     0.340780735118    -0.563585915705    12.000000000000
         C           -4.012944221129    -0.757743264882     0.275129084295    12.000000000000
         H            0.106504778871    -1.623718264882    -0.968465915705     1.007825032230
         H            4.450415778871     0.170907735118     0.591879084295     1.007825032230
         H           -0.818965221129    -1.242832264882     1.358035084295     1.007825032230
         H           -2.340875221129     1.741175735118    -1.335659915705     1.007825032230
         H            2.119266778871    -3.065858264882    -1.024456915705     1.007825032230
         H            4.298890778871    -2.157788264882    -0.204655915705     1.007825032230
         H           -3.106868221129    -2.166350264882     1.634414084295     1.007825032230
         H           -4.635764221129     0.786127735118    -1.098636915705     1.007825032230
         H           -5.013515221129    -1.166902264882     0.393575084295     1.007825032230
         H            1.792451778871     2.557198735118     0.382078084295     1.007825032230
         H            3.428258778871     2.283597735118     0.751615084295     1.007825032230

  Basis Set: AUG-CC-PVTZ
    Blend: AUG-CC-PVTZ
  Basis Set: (AUG-CC-PVTZ AUX)
    Blend: AUG-CC-PVTZ-JKFIT
	 Reference Energy          =    -628.2241618242907180 [Eh]
	 Singles Energy            =      -0.0000000000000000 [Eh]
	 Same-Spin Energy          =      -0.6912560233660100 [Eh]
	 Opposite-Spin Energy      =      -2.1091126767832984 [Eh]
	 Correlation Energy        =      -2.8003687001493085 [Eh]
	 Total Energy              =    -631.0245305244400242 [Eh]

	 ================> DF-SCS-MP2 Energies <==================
	-----------------------------------------------------------
	 SCS Same-Spin Scale       =       0.3333333333333333 [-]
	 SCS Opposite-Spin Scale   =       1.2000000000000000 [-]
	 SCS Same-Spin Energy      =      -0.2304186744553366 [Eh]
	 SCS Opposite-Spin Energy  =      -2.5309352121399580 [Eh]
	 SCS Correlation Energy    =      -2.7613538865952947 [Eh]
	 SCS Total Energy          =    -630.9855157108860340 [Eh]
	-----------------------------------------------------------

  Dipole Moment: [D]
     X:     0.4641      Y:    -1.5994      Z:    -0.1140     Total:     1.6693

*** Psi4 exiting successfully. Buy a developer a beer!
