                               Psi4 1.3.2 release

  ==> Input File <==

--------------------------------------------------------------------------
#psi4
#
memory 32 gb

molecule  {
0 1
  O       -0.0417540     2.1858230    -0.3073980
  N        2.6196909     1.9022704     0.7774842
  C        1.1160800     0.1042180    -0.1414450
  C       -1.4416830     0.3069060    -0.0388060
  C       -0.1006150     0.9516510    -0.1728080
  C        2.3683100     0.6434780     0.2543940
  C        1.0541080    -1.2200940    -0.6155900
  C        3.4881200    -0.2081800     0.2578510
  C       -1.6559060    -0.7921710     0.8065690
  C       -2.5248970     0.8906690    -0.7109620
  C        2.1811870    -2.0318670    -0.6465910
  C        3.4033030    -1.5159070    -0.2032770
  C       -2.9440810    -1.3050920     0.9648860
  C       -3.8044560     0.3593180    -0.5664320
  C       -4.0170070    -0.7392060     0.2722830
  H        0.1024420    -1.6051810    -0.9713120
  H        4.4463530     0.1894450     0.5890330
  H       -0.8230280    -1.2242950     1.3551890
  H       -2.3449380     1.7597130    -1.3385060
  H        2.1152040    -3.0473210    -1.0273030
  H        4.2948280    -2.1392510    -0.2075020
  H       -3.1109310    -2.1478130     1.6315680
  H       -4.6398270     0.8046650    -1.1014830
  H       -5.0175780    -1.1483650     0.3907290
  H        1.7883890     2.5757360     0.3792320
  H        3.4241960     2.3021350     0.7487690
units angstrom
no_reorient  #important for SAPT in psi4, default
symmetry c1  #important for SAPT in psi4, default
}

set PROPERTIES_ORIGIN ["COM"]
properties('MP2/aug-cc-pvtz', properties = ['dipole'])
--------------------------------------------------------------------------

    Molecular point group: c1
  Charge       = 0
  Multiplicity = 1
  Basis Set: AUG-CC-PVTZ
    Blend: AUG-CC-PVTZ
  Basis Set: (AUG-CC-PVTZ AUX)
    Blend: AUG-CC-PVTZ-JKFIT

    Orbital Energies [Eh]
    ---------------------

    Doubly Occupied:

       1A    -20.544011     2A    -15.558782     3A    -11.343625
       4A    -11.300705     5A    -11.255044     6A    -11.253574
       7A    -11.252621     8A    -11.252351     9A    -11.251140
      10A    -11.249084    11A    -11.246625    12A    -11.245225
      13A    -11.244447    14A    -11.230611    15A    -11.229877
      16A     -1.376231    17A     -1.231714    18A     -1.165306
      19A     -1.139955    20A     -1.058071    21A     -1.027364
      22A     -1.021853    23A     -0.999610    24A     -0.894810
      25A     -0.849603    26A     -0.840764    27A     -0.824883
      28A     -0.769269    29A     -0.728229    30A     -0.714027
      31A     -0.676114    32A     -0.670964    33A     -0.648351
      34A     -0.635529    35A     -0.622242    36A     -0.610552
      37A     -0.601611    38A     -0.598014    39A     -0.573262
      40A     -0.554993    41A     -0.533420    42A     -0.527873
      43A     -0.517708    44A     -0.512357    45A     -0.503161
      46A     -0.492338    47A     -0.453569    48A     -0.421283
      49A     -0.352245    50A     -0.347449    51A     -0.345364
      52A     -0.301386

  @DF-RHF Final Energy:  -628.19556579182154

   => Energetics <=

    Nuclear Repulsion Energy =            892.0326901622131572
    One-Electron Energy =               -2623.2581201085854445
    Two-Electron Energy =                1103.0298641545507508
    Total Energy =                       -628.1955657918215365
  Basis Set: (AUG-CC-PVTZ AUX)
    Blend: AUG-CC-PVTZ-RI
    Molecular point group: c1

    Geometry (in Angstrom), charge = 0, multiplicity = 1:

       Center              X                  Y                   Z               Mass
    ------------   -----------------  -----------------  -----------------  -----------------
         O           -0.050493314509     2.169510016090    -0.307109548873    15.994914619570
         N            2.610951585491     1.885957416090     0.777772651127    14.003074004430
         C            1.107340685491     0.087905016090    -0.141156548873    12.000000000000
         C           -1.450422314509     0.290593016090    -0.038517548873    12.000000000000
         C           -0.109354314509     0.935338016090    -0.172519548873    12.000000000000
         C            2.359570685491     0.627165016090     0.254682451127    12.000000000000
         C            1.045368685491    -1.236406983910    -0.615301548873    12.000000000000
         C            3.479380685491    -0.224492983910     0.258139451127    12.000000000000
         C           -1.664645314509    -0.808483983910     0.806857451127    12.000000000000
         C           -2.533636314509     0.874356016090    -0.710673548873    12.000000000000
         C            2.172447685491    -2.048179983910    -0.646302548873    12.000000000000
         C            3.394563685491    -1.532219983910    -0.202988548873    12.000000000000
         C           -2.952820314509    -1.321404983910     0.965174451127    12.000000000000
         C           -3.813195314509     0.343005016090    -0.566143548873    12.000000000000
         C           -4.025746314509    -0.755518983910     0.272571451127    12.000000000000
         H            0.093702685491    -1.621493983910    -0.971023548873     1.007825032230
         H            4.437613685491     0.173132016090     0.589321451127     1.007825032230
         H           -0.831767314509    -1.240607983910     1.355477451127     1.007825032230
         H           -2.353677314509     1.743400016090    -1.338217548873     1.007825032230
         H            2.106464685491    -3.063633983910    -1.027014548873     1.007825032230
         H            4.286088685491    -2.155563983910    -0.207213548873     1.007825032230
         H           -3.119670314509    -2.164125983910     1.631856451127     1.007825032230
         H           -4.648566314509     0.788352016090    -1.101194548873     1.007825032230
         H           -5.026317314509    -1.164677983910     0.391017451127     1.007825032230
         H            1.779649685491     2.559423016090     0.379520451127     1.007825032230
         H            3.415456685491     2.285822016090     0.749057451127     1.007825032230

  Basis Set: AUG-CC-PVTZ
    Blend: AUG-CC-PVTZ
  Basis Set: (AUG-CC-PVTZ AUX)
    Blend: AUG-CC-PVTZ-JKFIT
	 Reference Energy          =    -628.1955657918215365 [Eh]
	 Singles Energy            =      -0.0000000000000000 [Eh]
	 Same-Spin Energy          =      -0.6920335897473293 [Eh]
	 Opposite-Spin Energy      =      -2.1108760872100403 [Eh]
	 Correlation Energy        =      -2.8029096769573698 [Eh]
	 Total Energy              =    -630.9984754687789064 [Eh]

	 ================> DF-SCS-MP2 Energies <==================
	-----------------------------------------------------------
	 SCS Same-Spin Scale       =       0.3333333333333333 [-]
	 SCS Opposite-Spin Scale   =       1.2000000000000000 [-]
	 SCS Same-Spin Energy      =      -0.2306778632491098 [Eh]
	 SCS Opposite-Spin Energy  =      -2.5330513046520484 [Eh]
	 SCS Correlation Energy    =      -2.7637291679011584 [Eh]
	 SCS Total Energy          =    -630.9592949597226834 [Eh]
	-----------------------------------------------------------

  Dipole Moment: [D]
     X:     0.1381      Y:    -1.6572      Z:    -0.1580     Total:     1.6704

*** Psi4 exiting successfully. Buy a developer a beer!
