                               Psi4 1.3.2 release

  ==> Input File <==

--------------------------------------------------------------------------
#psi4
#
memory 32 gb

molecule  {
0 1
  O       -0.0417540     2.1858230    -0.3073980
  N        2.4805920     1.9330880     0.7500480
  C        1.1160800     0.1042180    -0.1414450
  C       -1.4416830     0.3069060    -0.0388060
  C       -0.0486451     0.8459734    -0.0699153
  C        2.3683100     0.6434780     0.2543940
  C        1.0541080    -1.2200940    -0.6155900
  C        3.4881200    -0.2081800     0.2578510
  C       -1.6559060    -0.7921710     0.8065690
  C       -2.5248970     0.8906690    -0.7109620
  C        2.1811870    -2.0318670    -0.6465910
  C        3.4033030    -1.5159070    -0.2032770
  C       -2.9440810    -1.3050920     0.9648860
  C       -3.8044560     0.3593180    -0.5664320
  C       -4.0170070    -0.7392060     0.2722830
  H        0.1024420    -1.6051810    -0.9713120
  H        4.4463530     0.1894450     0.5890330
  H       -0.8230280    -1.2242950     1.3551890
  H       -2.3449380     1.7597130    -1.3385060
  H        2.1152040    -3.0473210    -1.0273030
  H        4.2948280    -2.1392510    -0.2075020
  H       -3.1109310    -2.1478130     1.6315680
  H       -4.6398270     0.8046650    -1.1014830
  H       -5.0175780    -1.1483650     0.3907290
  H        1.7883890     2.5757360     0.3792320
  H        3.4241960     2.3021350     0.7487690
units angstrom
no_reorient  #important for SAPT in psi4, default
symmetry c1  #important for SAPT in psi4, default
}

set PROPERTIES_ORIGIN ["COM"]
properties('MP2/aug-cc-pvtz', properties = ['dipole'])
--------------------------------------------------------------------------

    Molecular point group: c1
  Charge       = 0
  Multiplicity = 1
  Basis Set: AUG-CC-PVTZ
    Blend: AUG-CC-PVTZ
  Basis Set: (AUG-CC-PVTZ AUX)
    Blend: AUG-CC-PVTZ-JKFIT

    Orbital Energies [Eh]
    ---------------------

    Doubly Occupied:

       1A    -20.521809     2A    -15.565480     3A    -11.341180
       4A    -11.308990     5A    -11.264013     6A    -11.262615
       7A    -11.253117     8A    -11.250982     9A    -11.250089
      10A    -11.248574    11A    -11.244212    12A    -11.244063
      13A    -11.240908    14A    -11.239196    15A    -11.235427
      16A     -1.302858    17A     -1.230763    18A     -1.163385
      19A     -1.146708    20A     -1.069495    21A     -1.027072
      22A     -1.023484    23A     -1.005850    24A     -0.904864
      25A     -0.855367    26A     -0.837420    27A     -0.826157
      28A     -0.773094    29A     -0.721187    30A     -0.705318
      31A     -0.692618    32A     -0.670317    33A     -0.640064
      34A     -0.633782    35A     -0.615060    36A     -0.612929
      37A     -0.606431    38A     -0.596065    39A     -0.572000
      40A     -0.552164    41A     -0.533782    42A     -0.524315
      43A     -0.516647    44A     -0.507988    45A     -0.496980
      46A     -0.466654    47A     -0.457087    48A     -0.418670
      49A     -0.355307    50A     -0.344983    51A     -0.341603
      52A     -0.307354

  @DF-RHF Final Energy:  -628.18865846335825

   => Energetics <=

    Nuclear Repulsion Energy =            893.4693206922763693
    One-Electron Energy =               -2626.2630049047743341
    Two-Electron Energy =                1104.6050257491397133
    Total Energy =                       -628.1886584633582515
  Basis Set: (AUG-CC-PVTZ AUX)
    Blend: AUG-CC-PVTZ-RI
    Molecular point group: c1

    Geometry (in Angstrom), charge = 0, multiplicity = 1:

       Center              X                  Y                   Z               Mass
    ------------   -----------------  -----------------  -----------------  -----------------
         O           -0.043774489232     2.173754854813    -0.311425074156    15.994914619570
         N            2.478571510768     1.921019854813     0.746020925844    14.003074004430
         C            1.114059510768     0.092149854813    -0.145472074156    12.000000000000
         C           -1.443703489232     0.294837854813    -0.042833074156    12.000000000000
         C           -0.050665589232     0.833905254813    -0.073942374156    12.000000000000
         C            2.366289510768     0.631409854813     0.250366925844    12.000000000000
         C            1.052087510768    -1.232162145187    -0.619617074156    12.000000000000
         C            3.486099510768    -0.220248145187     0.253823925844    12.000000000000
         C           -1.657926489232    -0.804239145187     0.802541925844    12.000000000000
         C           -2.526917489232     0.878600854813    -0.714989074156    12.000000000000
         C            2.179166510768    -2.043935145187    -0.650618074156    12.000000000000
         C            3.401282510768    -1.527975145187    -0.207304074156    12.000000000000
         C           -2.946101489232    -1.317160145187     0.960858925844    12.000000000000
         C           -3.806476489232     0.347249854813    -0.570459074156    12.000000000000
         C           -4.019027489232    -0.751274145187     0.268255925844    12.000000000000
         H            0.100421510768    -1.617249145187    -0.975339074156     1.007825032230
         H            4.444332510768     0.177376854813     0.585005925844     1.007825032230
         H           -0.825048489232    -1.236363145187     1.351161925844     1.007825032230
         H           -2.346958489232     1.747644854813    -1.342533074156     1.007825032230
         H            2.113183510768    -3.059389145187    -1.031330074156     1.007825032230
         H            4.292807510768    -2.151319145187    -0.211529074156     1.007825032230
         H           -3.112951489232    -2.159881145187     1.627540925844     1.007825032230
         H           -4.641847489232     0.792596854813    -1.105510074156     1.007825032230
         H           -5.019598489232    -1.160433145187     0.386701925844     1.007825032230
         H            1.786368510768     2.563667854813     0.375204925844     1.007825032230
         H            3.422175510768     2.290066854813     0.744741925844     1.007825032230

  Basis Set: AUG-CC-PVTZ
    Blend: AUG-CC-PVTZ
  Basis Set: (AUG-CC-PVTZ AUX)
    Blend: AUG-CC-PVTZ-JKFIT
	 Reference Energy          =    -628.1886584633582515 [Eh]
	 Singles Energy            =      -0.0000000000000000 [Eh]
	 Same-Spin Energy          =      -0.6958392480556796 [Eh]
	 Opposite-Spin Energy      =      -2.1179840361673357 [Eh]
	 Correlation Energy        =      -2.8138232842230151 [Eh]
	 Total Energy              =    -631.0024817475812142 [Eh]

	 ================> DF-SCS-MP2 Energies <==================
	-----------------------------------------------------------
	 SCS Same-Spin Scale       =       0.3333333333333333 [-]
	 SCS Opposite-Spin Scale   =       1.2000000000000000 [-]
	 SCS Same-Spin Energy      =      -0.2319464160185599 [Eh]
	 SCS Opposite-Spin Energy  =      -2.5415808434008027 [Eh]
	 SCS Correlation Energy    =      -2.7735272594193625 [Eh]
	 SCS Total Energy          =    -630.9621857227775763 [Eh]
	-----------------------------------------------------------

  Dipole Moment: [D]
     X:     0.8927      Y:    -2.0963      Z:    -0.0192     Total:     2.2786

*** Psi4 exiting successfully. Buy a developer a beer!
