                               Psi4 1.3.2 release

  ==> Input File <==

--------------------------------------------------------------------------
#psi4
#
memory 32 gb

molecule  {
0 1
  O       -0.0417540     2.1858230    -0.3073980
  N        2.4338765     1.9402329     0.7396792
  C        1.1160800     0.1042180    -0.1414450
  C       -1.4416830     0.3069060    -0.0388060
  C       -0.1006150     0.9516510    -0.1728080
  C        2.3683100     0.6434780     0.2543940
  C        1.0541080    -1.2200940    -0.6155900
  C        3.4881200    -0.2081800     0.2578510
  C       -1.6559060    -0.7921710     0.8065690
  C       -2.5248970     0.8906690    -0.7109620
  C        2.1811870    -2.0318670    -0.6465910
  C        3.4033030    -1.5159070    -0.2032770
  C       -2.9440810    -1.3050920     0.9648860
  C       -3.8044560     0.3593180    -0.5664320
  C       -4.0170070    -0.7392060     0.2722830
  H        0.1024420    -1.6051810    -0.9713120
  H        4.4463530     0.1894450     0.5890330
  H       -0.8230280    -1.2242950     1.3551890
  H       -2.3449380     1.7597130    -1.3385060
  H        2.1152040    -3.0473210    -1.0273030
  H        4.2948280    -2.1392510    -0.2075020
  H       -3.1109310    -2.1478130     1.6315680
  H       -4.6398270     0.8046650    -1.1014830
  H       -5.0175780    -1.1483650     0.3907290
  H        1.7883890     2.5757360     0.3792320
  H        3.4241960     2.3021350     0.7487690
units angstrom
no_reorient  #important for SAPT in psi4, default
symmetry c1  #important for SAPT in psi4, default
}

set PROPERTIES_ORIGIN ["COM"]
properties('MP2/aug-cc-pvtz', properties = ['dipole'])
--------------------------------------------------------------------------

    Molecular point group: c1
  Charge       = 0
  Multiplicity = 1
  Basis Set: AUG-CC-PVTZ
    Blend: AUG-CC-PVTZ
  Basis Set: (AUG-CC-PVTZ AUX)
    Blend: AUG-CC-PVTZ-JKFIT

    Orbital Energies [Eh]
    ---------------------

    Doubly Occupied:

       1A    -20.540869     2A    -15.562685     3A    -11.340989
       4A    -11.299241     5A    -11.255192     6A    -11.254036
       7A    -11.252370     8A    -11.251258     9A    -11.249958
      10A    -11.247853    11A    -11.245649    12A    -11.244225
      13A    -11.240330    14A    -11.234809    15A    -11.230044
      16A     -1.373948    17A     -1.228852    18A     -1.164151
      19A     -1.138806    20A     -1.057422    21A     -1.026313
      22A     -1.020990    23A     -0.998421    24A     -0.893429
      25A     -0.849141    26A     -0.838570    27A     -0.820280
      28A     -0.771601    29A     -0.717871    30A     -0.700238
      31A     -0.692750    32A     -0.668265    33A     -0.647394
      34A     -0.635168    35A     -0.614549    36A     -0.610318
      37A     -0.606127    38A     -0.597034    39A     -0.586567
      40A     -0.555101    41A     -0.536494    42A     -0.526564
      43A     -0.519719    44A     -0.508495    45A     -0.502100
      46A     -0.490459    47A     -0.454435    48A     -0.421965
      49A     -0.352107    50A     -0.346080    51A     -0.344353
      52A     -0.302575

  @DF-RHF Final Energy:  -628.22250051045103

   => Energetics <=

    Nuclear Repulsion Energy =            893.6879134884844689
    One-Electron Energy =               -2626.6845127517099172
    Two-Electron Energy =                1104.7740987527745347
    Total Energy =                       -628.2225005104510274
  Basis Set: (AUG-CC-PVTZ AUX)
    Blend: AUG-CC-PVTZ-RI
    Molecular point group: c1

    Geometry (in Angstrom), charge = 0, multiplicity = 1:

       Center              X                  Y                   Z               Mass
    ------------   -----------------  -----------------  -----------------  -----------------
         O           -0.037290964497     2.166812732067    -0.304423455426    15.994914619570
         N            2.438339535503     1.921222632067     0.742653744574    14.003074004430
         C            1.120543035503     0.085207732067    -0.138470455426    12.000000000000
         C           -1.437219964497     0.287895732067    -0.035831455426    12.000000000000
         C           -0.096151964497     0.932640732067    -0.169833455426    12.000000000000
         C            2.372773035503     0.624467732067     0.257368544574    12.000000000000
         C            1.058571035503    -1.239104267933    -0.612615455426    12.000000000000
         C            3.492583035503    -0.227190267933     0.260825544574    12.000000000000
         C           -1.651442964497    -0.811181267933     0.809543544574    12.000000000000
         C           -2.520433964497     0.871658732067    -0.707987455426    12.000000000000
         C            2.185650035503    -2.050877267933    -0.643616455426    12.000000000000
         C            3.407766035503    -1.534917267933    -0.200302455426    12.000000000000
         C           -2.939617964497    -1.324102267933     0.967860544574    12.000000000000
         C           -3.799992964497     0.340307732067    -0.563457455426    12.000000000000
         C           -4.012543964497    -0.758216267933     0.275257544574    12.000000000000
         H            0.106905035503    -1.624191267933    -0.968337455426     1.007825032230
         H            4.450816035503     0.170434732067     0.592007544574     1.007825032230
         H           -0.818564964497    -1.243305267933     1.358163544574     1.007825032230
         H           -2.340474964497     1.740702732067    -1.335531455426     1.007825032230
         H            2.119667035503    -3.066331267933    -1.024328455426     1.007825032230
         H            4.299291035503    -2.158261267933    -0.204527455426     1.007825032230
         H           -3.106467964497    -2.166823267933     1.634542544574     1.007825032230
         H           -4.635363964497     0.785654732067    -1.098508455426     1.007825032230
         H           -5.013114964497    -1.167375267933     0.393703544574     1.007825032230
         H            1.792852035503     2.556725732067     0.382206544574     1.007825032230
         H            3.428659035503     2.283124732067     0.751743544574     1.007825032230

  Basis Set: AUG-CC-PVTZ
    Blend: AUG-CC-PVTZ
  Basis Set: (AUG-CC-PVTZ AUX)
    Blend: AUG-CC-PVTZ-JKFIT
	 Reference Energy          =    -628.2225005104510274 [Eh]
	 Singles Energy            =      -0.0000000000000000 [Eh]
	 Same-Spin Energy          =      -0.6916170194658716 [Eh]
	 Opposite-Spin Energy      =      -2.1098338359938777 [Eh]
	 Correlation Energy        =      -2.8014508554597493 [Eh]
	 Total Energy              =    -631.0239513659107615 [Eh]

	 ================> DF-SCS-MP2 Energies <==================
	-----------------------------------------------------------
	 SCS Same-Spin Scale       =       0.3333333333333333 [-]
	 SCS Opposite-Spin Scale   =       1.2000000000000000 [-]
	 SCS Same-Spin Energy      =      -0.2305390064886239 [Eh]
	 SCS Opposite-Spin Energy  =      -2.5318006031926532 [Eh]
	 SCS Correlation Energy    =      -2.7623396096812769 [Eh]
	 SCS Total Energy          =    -630.9848401201322758 [Eh]
	-----------------------------------------------------------

  Dipole Moment: [D]
     X:     0.4092      Y:    -1.6483      Z:    -0.0930     Total:     1.7009

*** Psi4 exiting successfully. Buy a developer a beer!
