                               Psi4 1.3.2 release

  ==> Input File <==

--------------------------------------------------------------------------
#psi4
#
memory 32 gb

molecule  {
0 1
  O       -0.0417540     2.1858230    -0.3073980
  N        2.4805920     1.9330880     0.7500480
  C        1.1160800     0.1042180    -0.1414450
  C       -1.4416830     0.3069060    -0.0388060
  C       -0.1006150     0.9516510    -0.1728080
  C        2.3570866     0.6648396     0.2600222
  C        1.0541080    -1.2200940    -0.6155900
  C        3.4881200    -0.2081800     0.2578510
  C       -1.6559060    -0.7921710     0.8065690
  C       -2.5248970     0.8906690    -0.7109620
  C        2.1811870    -2.0318670    -0.6465910
  C        3.4033030    -1.5159070    -0.2032770
  C       -2.9440810    -1.3050920     0.9648860
  C       -3.8044560     0.3593180    -0.5664320
  C       -4.0170070    -0.7392060     0.2722830
  H        0.1024420    -1.6051810    -0.9713120
  H        4.4463530     0.1894450     0.5890330
  H       -0.8230280    -1.2242950     1.3551890
  H       -2.3449380     1.7597130    -1.3385060
  H        2.1152040    -3.0473210    -1.0273030
  H        4.2948280    -2.1392510    -0.2075020
  H       -3.1109310    -2.1478130     1.6315680
  H       -4.6398270     0.8046650    -1.1014830
  H       -5.0175780    -1.1483650     0.3907290
  H        1.7883890     2.5757360     0.3792320
  H        3.4241960     2.3021350     0.7487690
units angstrom
no_reorient  #important for SAPT in psi4, default
symmetry c1  #important for SAPT in psi4, default
}

set PROPERTIES_ORIGIN ["COM"]
properties('MP2/aug-cc-pvtz', properties = ['dipole'])
--------------------------------------------------------------------------

    Molecular point group: c1
  Charge       = 0
  Multiplicity = 1
  Basis Set: AUG-CC-PVTZ
    Blend: AUG-CC-PVTZ
  Basis Set: (AUG-CC-PVTZ AUX)
    Blend: AUG-CC-PVTZ-JKFIT

    Orbital Energies [Eh]
    ---------------------

    Doubly Occupied:

       1A    -20.540961     2A    -15.565245     3A    -11.340605
       4A    -11.301268     5A    -11.253589     6A    -11.253567
       7A    -11.252206     8A    -11.251143     9A    -11.249642
      10A    -11.247698    11A    -11.245519    12A    -11.244103
      13A    -11.239950    14A    -11.234838    15A    -11.228495
      16A     -1.374118    17A     -1.236304    18A     -1.164006
      19A     -1.138208    20A     -1.056547    21A     -1.026032
      22A     -1.020285    23A     -0.995587    24A     -0.892075
      25A     -0.848596    26A     -0.838744    27A     -0.820395
      28A     -0.769928    29A     -0.717740    30A     -0.704987
      31A     -0.691277    32A     -0.671684    33A     -0.647307
      34A     -0.635292    35A     -0.616223    36A     -0.611808
      37A     -0.601987    38A     -0.596786    39A     -0.587375
      40A     -0.555413    41A     -0.535102    42A     -0.526944
      43A     -0.519002    44A     -0.509036    45A     -0.501923
      46A     -0.491358    47A     -0.456528    48A     -0.420714
      49A     -0.351510    50A     -0.346074    51A     -0.344195
      52A     -0.299332

  @DF-RHF Final Energy:  -628.22524840083975

   => Energetics <=

    Nuclear Repulsion Energy =            893.2119694068300078
    One-Electron Energy =               -2625.7359350549390911
    Two-Electron Energy =                1104.2987172472692237
    Total Energy =                       -628.2252484008397460
  Basis Set: (AUG-CC-PVTZ AUX)
    Blend: AUG-CC-PVTZ-RI
    Molecular point group: c1

    Geometry (in Angstrom), charge = 0, multiplicity = 1:

       Center              X                  Y                   Z               Mass
    ------------   -----------------  -----------------  -----------------  -----------------
         O           -0.039926793053     2.166019727126    -0.305502860171    15.994914619570
         N            2.482419206947     1.913284727126     0.751943139829    14.003074004430
         C            1.117907206947     0.084414727126    -0.139549860171    12.000000000000
         C           -1.439855793053     0.287102727126    -0.036910860171    12.000000000000
         C           -0.098787793053     0.931847727126    -0.170912860171    12.000000000000
         C            2.358913806947     0.645036327126     0.261917339829    12.000000000000
         C            1.055935206947    -1.239897272874    -0.613694860171    12.000000000000
         C            3.489947206947    -0.227983272874     0.259746139829    12.000000000000
         C           -1.654078793053    -0.811974272874     0.808464139829    12.000000000000
         C           -2.523069793053     0.870865727126    -0.709066860171    12.000000000000
         C            2.183014206947    -2.051670272874    -0.644695860171    12.000000000000
         C            3.405130206947    -1.535710272874    -0.201381860171    12.000000000000
         C           -2.942253793053    -1.324895272874     0.966781139829    12.000000000000
         C           -3.802628793053     0.339514727126    -0.564536860171    12.000000000000
         C           -4.015179793053    -0.759009272874     0.274178139829    12.000000000000
         H            0.104269206947    -1.624984272874    -0.969416860171     1.007825032230
         H            4.448180206947     0.169641727126     0.590928139829     1.007825032230
         H           -0.821200793053    -1.244098272874     1.357084139829     1.007825032230
         H           -2.343110793053     1.739909727126    -1.336610860171     1.007825032230
         H            2.117031206947    -3.067124272874    -1.025407860171     1.007825032230
         H            4.296655206947    -2.159054272874    -0.205606860171     1.007825032230
         H           -3.109103793053    -2.167616272874     1.633463139829     1.007825032230
         H           -4.637999793053     0.784861727126    -1.099587860171     1.007825032230
         H           -5.015750793053    -1.168168272874     0.392624139829     1.007825032230
         H            1.790216206947     2.555932727126     0.381127139829     1.007825032230
         H            3.426023206947     2.282331727126     0.750664139829     1.007825032230

  Basis Set: AUG-CC-PVTZ
    Blend: AUG-CC-PVTZ
  Basis Set: (AUG-CC-PVTZ AUX)
    Blend: AUG-CC-PVTZ-JKFIT
	 Reference Energy          =    -628.2252484008397460 [Eh]
	 Singles Energy            =      -0.0000000000000000 [Eh]
	 Same-Spin Energy          =      -0.6916132726293061 [Eh]
	 Opposite-Spin Energy      =      -2.1095950308491398 [Eh]
	 Correlation Energy        =      -2.8012083034784458 [Eh]
	 Total Energy              =    -631.0264567043182069 [Eh]

	 ================> DF-SCS-MP2 Energies <==================
	-----------------------------------------------------------
	 SCS Same-Spin Scale       =       0.3333333333333333 [-]
	 SCS Opposite-Spin Scale   =       1.2000000000000000 [-]
	 SCS Same-Spin Energy      =      -0.2305377575431020 [Eh]
	 SCS Opposite-Spin Energy  =      -2.5315140370189675 [Eh]
	 SCS Correlation Energy    =      -2.7620517945620695 [Eh]
	 SCS Total Energy          =    -630.9873001954018719 [Eh]
	-----------------------------------------------------------

  Dipole Moment: [D]
     X:     0.4059      Y:    -1.4984      Z:    -0.0452     Total:     1.5531

*** Psi4 exiting successfully. Buy a developer a beer!
