                               Psi4 1.3.2 release

  ==> Input File <==

--------------------------------------------------------------------------
#psi4
#
memory 32 gb

molecule  {
0 1
  O       -0.0634047     2.1867686    -0.3064475
  N        2.4805920     1.9330880     0.7500480
  C        1.1160800     0.1042180    -0.1414450
  C       -1.4416830     0.3069060    -0.0388060
  C       -0.1006150     0.9516510    -0.1728080
  C        2.3683100     0.6434780     0.2543940
  C        1.0541080    -1.2200940    -0.6155900
  C        3.4881200    -0.2081800     0.2578510
  C       -1.6559060    -0.7921710     0.8065690
  C       -2.5248970     0.8906690    -0.7109620
  C        2.1811870    -2.0318670    -0.6465910
  C        3.4033030    -1.5159070    -0.2032770
  C       -2.9440810    -1.3050920     0.9648860
  C       -3.8044560     0.3593180    -0.5664320
  C       -4.0170070    -0.7392060     0.2722830
  H        0.1024420    -1.6051810    -0.9713120
  H        4.4463530     0.1894450     0.5890330
  H       -0.8230280    -1.2242950     1.3551890
  H       -2.3449380     1.7597130    -1.3385060
  H        2.1152040    -3.0473210    -1.0273030
  H        4.2948280    -2.1392510    -0.2075020
  H       -3.1109310    -2.1478130     1.6315680
  H       -4.6398270     0.8046650    -1.1014830
  H       -5.0175780    -1.1483650     0.3907290
  H        1.7883890     2.5757360     0.3792320
  H        3.4241960     2.3021350     0.7487690
units angstrom
no_reorient  #important for SAPT in psi4, default
symmetry c1  #important for SAPT in psi4, default
}

set PROPERTIES_ORIGIN ["COM"]
properties('MP2/aug-cc-pvtz', properties = ['dipole'])
--------------------------------------------------------------------------

    Molecular point group: c1
  Charge       = 0
  Multiplicity = 1
  Basis Set: AUG-CC-PVTZ
    Blend: AUG-CC-PVTZ
  Basis Set: (AUG-CC-PVTZ AUX)
    Blend: AUG-CC-PVTZ-JKFIT

    Orbital Energies [Eh]
    ---------------------

    Doubly Occupied:

       1A    -20.541488     2A    -15.562886     3A    -11.341418
       4A    -11.299674     5A    -11.255065     6A    -11.254851
       7A    -11.251841     8A    -11.250806     9A    -11.249328
      10A    -11.247306    11A    -11.245269    12A    -11.243842
      13A    -11.241968    14A    -11.234065    15A    -11.230338
      16A     -1.374198    17A     -1.229426    18A     -1.163670
      19A     -1.139112    20A     -1.057447    21A     -1.025948
      22A     -1.020945    23A     -0.998340    24A     -0.893383
      25A     -0.849393    26A     -0.838490    27A     -0.820239
      28A     -0.770196    29A     -0.718207    30A     -0.702507
      31A     -0.689295    32A     -0.670551    33A     -0.646904
      34A     -0.634398    35A     -0.615740    36A     -0.611170
      37A     -0.605155    38A     -0.596682    39A     -0.588394
      40A     -0.554970    41A     -0.535909    42A     -0.526690
      43A     -0.519536    44A     -0.509897    45A     -0.501656
      46A     -0.490817    47A     -0.454654    48A     -0.422068
      49A     -0.352428    50A     -0.345782    51A     -0.343892
      52A     -0.302735

  @DF-RHF Final Energy:  -628.22598108710201

   => Energetics <=

    Nuclear Repulsion Energy =            893.1349644637695064
    One-Electron Energy =               -2625.5799549405155631
    Two-Electron Energy =                1104.2190093896442704
    Total Energy =                       -628.2259810871018999
  Basis Set: (AUG-CC-PVTZ AUX)
    Blend: AUG-CC-PVTZ-RI
    Molecular point group: c1

    Geometry (in Angstrom), charge = 0, multiplicity = 1:

       Center              X                  Y                   Z               Mass
    ------------   -----------------  -----------------  -----------------  -----------------
         O           -0.060503736536     2.168189243479    -0.304286812401    15.994914619570
         N            2.483492963464     1.914508643479     0.752208687599    14.003074004430
         C            1.118980963464     0.085638643479    -0.139284312401    12.000000000000
         C           -1.438782036536     0.288326643479    -0.036645312401    12.000000000000
         C           -0.097714036536     0.933071643479    -0.170647312401    12.000000000000
         C            2.371210963464     0.624898643479     0.256554687599    12.000000000000
         C            1.057008963464    -1.238673356521    -0.613429312401    12.000000000000
         C            3.491020963464    -0.226759356521     0.260011687599    12.000000000000
         C           -1.653005036536    -0.810750356521     0.808729687599    12.000000000000
         C           -2.521996036536     0.872089643479    -0.708801312401    12.000000000000
         C            2.184087963464    -2.050446356521    -0.644430312401    12.000000000000
         C            3.406203963464    -1.534486356521    -0.201116312401    12.000000000000
         C           -2.941180036536    -1.323671356521     0.967046687599    12.000000000000
         C           -3.801555036536     0.340738643479    -0.564271312401    12.000000000000
         C           -4.014106036536    -0.757785356521     0.274443687599    12.000000000000
         H            0.105342963464    -1.623760356521    -0.969151312401     1.007825032230
         H            4.449253963464     0.170865643479     0.591193687599     1.007825032230
         H           -0.820127036536    -1.242874356521     1.357349687599     1.007825032230
         H           -2.342037036536     1.741133643479    -1.336345312401     1.007825032230
         H            2.118104963464    -3.065900356521    -1.025142312401     1.007825032230
         H            4.297728963464    -2.157830356521    -0.205341312401     1.007825032230
         H           -3.108030036536    -2.166392356521     1.633728687599     1.007825032230
         H           -4.636926036536     0.786085643479    -1.099322312401     1.007825032230
         H           -5.014677036536    -1.166944356521     0.392889687599     1.007825032230
         H            1.791289963464     2.557156643479     0.381392687599     1.007825032230
         H            3.427096963464     2.283555643479     0.750929687599     1.007825032230

  Basis Set: AUG-CC-PVTZ
    Blend: AUG-CC-PVTZ
  Basis Set: (AUG-CC-PVTZ AUX)
    Blend: AUG-CC-PVTZ-JKFIT
	 Reference Energy          =    -628.2259810871020136 [Eh]
	 Singles Energy            =      -0.0000000000000000 [Eh]
	 Same-Spin Energy          =      -0.6915159825132295 [Eh]
	 Opposite-Spin Energy      =      -2.1095682565522100 [Eh]
	 Correlation Energy        =      -2.8010842390654398 [Eh]
	 Total Energy              =    -631.0270653261674170 [Eh]

	 ================> DF-SCS-MP2 Energies <==================
	-----------------------------------------------------------
	 SCS Same-Spin Scale       =       0.3333333333333333 [-]
	 SCS Opposite-Spin Scale   =       1.2000000000000000 [-]
	 SCS Same-Spin Energy      =      -0.2305053275044098 [Eh]
	 SCS Opposite-Spin Energy  =      -2.5314819078626520 [Eh]
	 SCS Correlation Energy    =      -2.7619872353670618 [Eh]
	 SCS Total Energy          =    -630.9879683224691007 [Eh]
	-----------------------------------------------------------

  Dipole Moment: [D]
     X:     0.4462      Y:    -1.6370      Z:    -0.1062     Total:     1.7000

*** Psi4 exiting successfully. Buy a developer a beer!
