                               Psi4 1.3.2 release

  ==> Input File <==

--------------------------------------------------------------------------
#psi4
#
memory 32 gb

molecule  {
0 1
  O       -0.0417540     2.1858230    -0.3073980
  N        2.5039020     1.9289257     0.7550067
  C        1.1160800     0.1042180    -0.1414450
  C       -1.4416830     0.3069060    -0.0388060
  C       -0.1006150     0.9516510    -0.1728080
  C        2.3683100     0.6434780     0.2543940
  C        1.0541080    -1.2200940    -0.6155900
  C        3.4881200    -0.2081800     0.2578510
  C       -1.6559060    -0.7921710     0.8065690
  C       -2.5248970     0.8906690    -0.7109620
  C        2.1811870    -2.0318670    -0.6465910
  C        3.4033030    -1.5159070    -0.2032770
  C       -2.9440810    -1.3050920     0.9648860
  C       -3.8044560     0.3593180    -0.5664320
  C       -4.0170070    -0.7392060     0.2722830
  H        0.1024420    -1.6051810    -0.9713120
  H        4.4463530     0.1894450     0.5890330
  H       -0.8230280    -1.2242950     1.3551890
  H       -2.3449380     1.7597130    -1.3385060
  H        2.1152040    -3.0473210    -1.0273030
  H        4.2948280    -2.1392510    -0.2075020
  H       -3.1109310    -2.1478130     1.6315680
  H       -4.6398270     0.8046650    -1.1014830
  H       -5.0175780    -1.1483650     0.3907290
  H        1.7883890     2.5757360     0.3792320
  H        3.4241960     2.3021350     0.7487690
units angstrom
no_reorient  #important for SAPT in psi4, default
symmetry c1  #important for SAPT in psi4, default
}

set PROPERTIES_ORIGIN ["COM"]
properties('MP2/aug-cc-pvtz', properties = ['dipole'])
--------------------------------------------------------------------------

    Molecular point group: c1
  Charge       = 0
  Multiplicity = 1
  Basis Set: AUG-CC-PVTZ
    Blend: AUG-CC-PVTZ
  Basis Set: (AUG-CC-PVTZ AUX)
    Blend: AUG-CC-PVTZ-JKFIT

    Orbital Energies [Eh]
    ---------------------

    Doubly Occupied:

       1A    -20.541888     2A    -15.561470     3A    -11.341872
       4A    -11.299053     5A    -11.254323     6A    -11.254162
       7A    -11.252752     8A    -11.251609     9A    -11.250325
      10A    -11.248248    11A    -11.245957    12A    -11.244543
      13A    -11.241621    14A    -11.232994    15A    -11.229778
      16A     -1.374620    17A     -1.228667    18A     -1.164492
      19A     -1.138593    20A     -1.057563    21A     -1.026631
      22A     -1.021194    23A     -0.997697    24A     -0.893420
      25A     -0.849365    26A     -0.839098    27A     -0.820335
      28A     -0.770029    29A     -0.718728    30A     -0.704985
      31A     -0.685438    32A     -0.671364    33A     -0.647913
      34A     -0.634398    35A     -0.617216    36A     -0.610976
      37A     -0.603876    38A     -0.597321    39A     -0.586969
      40A     -0.554807    41A     -0.535447    42A     -0.526984
      43A     -0.519572    44A     -0.510177    45A     -0.502440
      46A     -0.491216    47A     -0.453873    48A     -0.421971
      49A     -0.352039    50A     -0.346515    51A     -0.344666
      52A     -0.301896

  @DF-RHF Final Energy:  -628.22527878459528

   => Energetics <=

    Nuclear Repulsion Energy =            892.9796397380632698
    One-Electron Energy =               -2625.2636637473551673
    Two-Electron Energy =                1104.0587452246966222
    Total Energy =                       -628.2252787845952753
  Basis Set: (AUG-CC-PVTZ AUX)
    Blend: AUG-CC-PVTZ-RI
    Molecular point group: c1

    Geometry (in Angstrom), charge = 0, multiplicity = 1:

       Center              X                  Y                   Z               Mass
    ------------   -----------------  -----------------  -----------------  -----------------
         O           -0.042266365546     2.167616123043    -0.305512493842    15.994914619570
         N            2.503389634454     1.910718823043     0.756892206158    14.003074004430
         C            1.115567634454     0.086011123043    -0.139559493842    12.000000000000
         C           -1.442195365546     0.288699123043    -0.036920493842    12.000000000000
         C           -0.101127365546     0.933444123043    -0.170922493842    12.000000000000
         C            2.367797634454     0.625271123043     0.256279506158    12.000000000000
         C            1.053595634454    -1.238300876957    -0.613704493842    12.000000000000
         C            3.487607634454    -0.226386876957     0.259736506158    12.000000000000
         C           -1.656418365546    -0.810377876957     0.808454506158    12.000000000000
         C           -2.525409365546     0.872462123043    -0.709076493842    12.000000000000
         C            2.180674634454    -2.050073876957    -0.644705493842    12.000000000000
         C            3.402790634454    -1.534113876957    -0.201391493842    12.000000000000
         C           -2.944593365546    -1.323298876957     0.966771506158    12.000000000000
         C           -3.804968365546     0.341111123043    -0.564546493842    12.000000000000
         C           -4.017519365546    -0.757412876957     0.274168506158    12.000000000000
         H            0.101929634454    -1.623387876957    -0.969426493842     1.007825032230
         H            4.445840634454     0.171238123043     0.590918506158     1.007825032230
         H           -0.823540365546    -1.242501876957     1.357074506158     1.007825032230
         H           -2.345450365546     1.741506123043    -1.336620493842     1.007825032230
         H            2.114691634454    -3.065527876957    -1.025417493842     1.007825032230
         H            4.294315634454    -2.157457876957    -0.205616493842     1.007825032230
         H           -3.111443365546    -2.166019876957     1.633453506158     1.007825032230
         H           -4.640339365546     0.786458123043    -1.099597493842     1.007825032230
         H           -5.018090365546    -1.166571876957     0.392614506158     1.007825032230
         H            1.787876634454     2.557529123043     0.381117506158     1.007825032230
         H            3.423683634454     2.283928123043     0.750654506158     1.007825032230

  Basis Set: AUG-CC-PVTZ
    Blend: AUG-CC-PVTZ
  Basis Set: (AUG-CC-PVTZ AUX)
    Blend: AUG-CC-PVTZ-JKFIT
	 Reference Energy          =    -628.2252787845952753 [Eh]
	 Singles Energy            =      -0.0000000000000000 [Eh]
	 Same-Spin Energy          =      -0.6915629634696298 [Eh]
	 Opposite-Spin Energy      =      -2.1095912219771966 [Eh]
	 Correlation Energy        =      -2.8011541854468263 [Eh]
	 Total Energy              =    -631.0264329700421513 [Eh]

	 ================> DF-SCS-MP2 Energies <==================
	-----------------------------------------------------------
	 SCS Same-Spin Scale       =       0.3333333333333333 [-]
	 SCS Opposite-Spin Scale   =       1.2000000000000000 [-]
	 SCS Same-Spin Energy      =      -0.2305209878232099 [Eh]
	 SCS Opposite-Spin Energy  =      -2.5315094663726359 [Eh]
	 SCS Correlation Energy    =      -2.7620304541958456 [Eh]
	 SCS Total Energy          =    -630.9873092387911129 [Eh]
	-----------------------------------------------------------

  Dipole Moment: [D]
     X:     0.3200      Y:    -1.6334      Z:    -0.1081     Total:     1.6680

*** Psi4 exiting successfully. Buy a developer a beer!
