                               Psi4 1.3.2 release

  ==> Input File <==

--------------------------------------------------------------------------
#psi4
#
memory 32 gb

molecule  {
0 1
  O       -0.0417540     2.1858230    -0.3073980
  N        2.4805920     1.9330880     0.7500480
  C        1.1160800     0.1042180    -0.1414450
  C       -1.3470953     0.3034366    -0.0136752
  C       -0.1006150     0.9516510    -0.1728080
  C        2.3683100     0.6434780     0.2543940
  C        1.0541080    -1.2200940    -0.6155900
  C        3.4881200    -0.2081800     0.2578510
  C       -1.6559060    -0.7921710     0.8065690
  C       -2.5248970     0.8906690    -0.7109620
  C        2.1811870    -2.0318670    -0.6465910
  C        3.4033030    -1.5159070    -0.2032770
  C       -2.9440810    -1.3050920     0.9648860
  C       -3.8044560     0.3593180    -0.5664320
  C       -4.0170070    -0.7392060     0.2722830
  H        0.1024420    -1.6051810    -0.9713120
  H        4.4463530     0.1894450     0.5890330
  H       -0.8230280    -1.2242950     1.3551890
  H       -2.3449380     1.7597130    -1.3385060
  H        2.1152040    -3.0473210    -1.0273030
  H        4.2948280    -2.1392510    -0.2075020
  H       -3.1109310    -2.1478130     1.6315680
  H       -4.6398270     0.8046650    -1.1014830
  H       -5.0175780    -1.1483650     0.3907290
  H        1.7883890     2.5757360     0.3792320
  H        3.4241960     2.3021350     0.7487690
units angstrom
no_reorient  #important for SAPT in psi4, default
symmetry c1  #important for SAPT in psi4, default
}

set PROPERTIES_ORIGIN ["COM"]
properties('MP2/aug-cc-pvtz', properties = ['dipole'])
--------------------------------------------------------------------------

    Molecular point group: c1
  Charge       = 0
  Multiplicity = 1
  Basis Set: AUG-CC-PVTZ
    Blend: AUG-CC-PVTZ
  Basis Set: (AUG-CC-PVTZ AUX)
    Blend: AUG-CC-PVTZ-JKFIT

    Orbital Energies [Eh]
    ---------------------

    Doubly Occupied:

       1A    -20.538666     2A    -15.560726     3A    -11.335799
       4A    -11.297378     5A    -11.260279     6A    -11.258206
       7A    -11.257390     8A    -11.253316     9A    -11.252918
      10A    -11.252545    11A    -11.247553    12A    -11.245665
      13A    -11.238871    14A    -11.232442    15A    -11.228809
      16A     -1.374057    17A     -1.227306    18A     -1.160851
      19A     -1.137433    20A     -1.065406    21A     -1.022973
      22A     -1.020809    23A     -0.996470    24A     -0.903828
      25A     -0.851055    26A     -0.835825    27A     -0.820508
      28A     -0.770192    29A     -0.718014    30A     -0.702335
      31A     -0.687790    32A     -0.676185    33A     -0.650170
      34A     -0.633565    35A     -0.617943    36A     -0.610488
      37A     -0.603896    38A     -0.592492    39A     -0.586793
      40A     -0.554438    41A     -0.535571    42A     -0.530770
      43A     -0.520829    44A     -0.509148    45A     -0.494064
      46A     -0.485001    47A     -0.452967    48A     -0.425243
      49A     -0.353997    50A     -0.348260    51A     -0.338363
      52A     -0.300762

  @DF-RHF Final Energy:  -628.21247292884084

   => Energetics <=

    Nuclear Repulsion Energy =            893.6148457906411977
    One-Electron Energy =               -2626.5019163948213645
    Two-Electron Energy =                1104.6745976753393279
    Total Energy =                       -628.2124729288409526
  Basis Set: (AUG-CC-PVTZ AUX)
    Blend: AUG-CC-PVTZ-RI
    Molecular point group: c1

    Geometry (in Angstrom), charge = 0, multiplicity = 1:

       Center              X                  Y                   Z               Mass
    ------------   -----------------  -----------------  -----------------  -----------------
         O           -0.046369390056     2.167531630189    -0.306690329088    15.994914619570
         N            2.475976609944     1.914796630189     0.750755670912    14.003074004430
         C            1.111464609944     0.085926630189    -0.140737329088    12.000000000000
         C           -1.351710690056     0.285145230189    -0.012967529088    12.000000000000
         C           -0.105230390056     0.933359630189    -0.172100329088    12.000000000000
         C            2.363694609944     0.625186630189     0.255101670912    12.000000000000
         C            1.049492609944    -1.238385369811    -0.614882329088    12.000000000000
         C            3.483504609944    -0.226471369811     0.258558670912    12.000000000000
         C           -1.660521390056    -0.810462369811     0.807276670912    12.000000000000
         C           -2.529512390056     0.872377630189    -0.710254329088    12.000000000000
         C            2.176571609944    -2.050158369811    -0.645883329088    12.000000000000
         C            3.398687609944    -1.534198369811    -0.202569329088    12.000000000000
         C           -2.948696390056    -1.323383369811     0.965593670912    12.000000000000
         C           -3.809071390056     0.341026630189    -0.565724329088    12.000000000000
         C           -4.021622390056    -0.757497369811     0.272990670912    12.000000000000
         H            0.097826609944    -1.623472369811    -0.970604329088     1.007825032230
         H            4.441737609944     0.171153630189     0.589740670912     1.007825032230
         H           -0.827643390056    -1.242586369811     1.355896670912     1.007825032230
         H           -2.349553390056     1.741421630189    -1.337798329088     1.007825032230
         H            2.110588609944    -3.065612369811    -1.026595329088     1.007825032230
         H            4.290212609944    -2.157542369811    -0.206794329088     1.007825032230
         H           -3.115546390056    -2.166104369811     1.632275670912     1.007825032230
         H           -4.644442390056     0.786373630189    -1.100775329088     1.007825032230
         H           -5.022193390056    -1.166656369811     0.391436670912     1.007825032230
         H            1.783773609944     2.557444630189     0.379939670912     1.007825032230
         H            3.419580609944     2.283843630189     0.749476670912     1.007825032230

  Basis Set: AUG-CC-PVTZ
    Blend: AUG-CC-PVTZ
  Basis Set: (AUG-CC-PVTZ AUX)
    Blend: AUG-CC-PVTZ-JKFIT
	 Reference Energy          =    -628.2124729288408389 [Eh]
	 Singles Energy            =      -0.0000000000000000 [Eh]
	 Same-Spin Energy          =      -0.6926470593769417 [Eh]
	 Opposite-Spin Energy      =      -2.1117638238920704 [Eh]
	 Correlation Energy        =      -2.8044108832690120 [Eh]
	 Total Energy              =    -631.0168838121098815 [Eh]

	 ================> DF-SCS-MP2 Energies <==================
	-----------------------------------------------------------
	 SCS Same-Spin Scale       =       0.3333333333333333 [-]
	 SCS Opposite-Spin Scale   =       1.2000000000000000 [-]
	 SCS Same-Spin Energy      =      -0.2308823531256472 [Eh]
	 SCS Opposite-Spin Energy  =      -2.5341165886704844 [Eh]
	 SCS Correlation Energy    =      -2.7649989417961316 [Eh]
	 SCS Total Energy          =    -630.9774718706369185 [Eh]
	-----------------------------------------------------------

  Dipole Moment: [D]
     X:     0.0962      Y:    -1.7188      Z:    -0.0744     Total:     1.7231

*** Psi4 exiting successfully. Buy a developer a beer!
