                               Psi4 1.3.2 release

  ==> Input File <==

--------------------------------------------------------------------------
#psi4
#
memory 32 gb

molecule  {
0 1
  O       -0.0417540     2.1858230    -0.3073980
  N        2.4805920     1.9330880     0.7500480
  C        1.1160800     0.1042180    -0.1414450
  C       -1.4416830     0.3069060    -0.0388060
  C       -0.0720506     0.9916795    -0.1566365
  C        2.3683100     0.6434780     0.2543940
  C        1.0541080    -1.2200940    -0.6155900
  C        3.4881200    -0.2081800     0.2578510
  C       -1.6559060    -0.7921710     0.8065690
  C       -2.5248970     0.8906690    -0.7109620
  C        2.1811870    -2.0318670    -0.6465910
  C        3.4033030    -1.5159070    -0.2032770
  C       -2.9440810    -1.3050920     0.9648860
  C       -3.8044560     0.3593180    -0.5664320
  C       -4.0170070    -0.7392060     0.2722830
  H        0.1024420    -1.6051810    -0.9713120
  H        4.4463530     0.1894450     0.5890330
  H       -0.8230280    -1.2242950     1.3551890
  H       -2.3449380     1.7597130    -1.3385060
  H        2.1152040    -3.0473210    -1.0273030
  H        4.2948280    -2.1392510    -0.2075020
  H       -3.1109310    -2.1478130     1.6315680
  H       -4.6398270     0.8046650    -1.1014830
  H       -5.0175780    -1.1483650     0.3907290
  H        1.7883890     2.5757360     0.3792320
  H        3.4241960     2.3021350     0.7487690
units angstrom
no_reorient  #important for SAPT in psi4, default
symmetry c1  #important for SAPT in psi4, default
}

set PROPERTIES_ORIGIN ["COM"]
properties('MP2/aug-cc-pvtz', properties = ['dipole'])
--------------------------------------------------------------------------

    Molecular point group: c1
  Charge       = 0
  Multiplicity = 1
  Basis Set: AUG-CC-PVTZ
    Blend: AUG-CC-PVTZ
  Basis Set: (AUG-CC-PVTZ AUX)
    Blend: AUG-CC-PVTZ-JKFIT

    Orbital Energies [Eh]
    ---------------------

    Doubly Occupied:

       1A    -20.547252     2A    -15.563461     3A    -11.340873
       4A    -11.298371     5A    -11.254925     6A    -11.254524
       7A    -11.249526     8A    -11.248390     9A    -11.248290
      10A    -11.245115    11A    -11.243745    12A    -11.242449
      13A    -11.240551    14A    -11.233615    15A    -11.230366
      16A     -1.402367    17A     -1.230341    18A     -1.160837
      19A     -1.138667    20A     -1.053951    21A     -1.023461
      22A     -1.018766    23A     -0.998425    24A     -0.889340
      25A     -0.847882    26A     -0.836400    27A     -0.818572
      28A     -0.769721    29A     -0.717844    30A     -0.702620
      31A     -0.690486    32A     -0.671905    33A     -0.649926
      34A     -0.633668    35A     -0.616741    36A     -0.612028
      37A     -0.605528    38A     -0.595277    39A     -0.592523
      40A     -0.560716    41A     -0.538892    42A     -0.527710
      43A     -0.519236    44A     -0.510165    45A     -0.500438
      46A     -0.496426    47A     -0.455021    48A     -0.417248
      49A     -0.352158    50A     -0.344471    51A     -0.342563
      52A     -0.302856

  @DF-RHF Final Energy:  -628.22706492351006

   => Energetics <=

    Nuclear Repulsion Energy =            893.2591087997284376
    One-Electron Energy =               -2625.7990952316445146
    Two-Electron Energy =                1104.3129215084061343
    Total Energy =                       -628.2270649235099427
  Basis Set: (AUG-CC-PVTZ AUX)
    Blend: AUG-CC-PVTZ-RI
    Molecular point group: c1

    Geometry (in Angstrom), charge = 0, multiplicity = 1:

       Center              X                  Y                   Z               Mass
    ------------   -----------------  -----------------  -----------------  -----------------
         O           -0.042349381619     2.164883142080    -0.306144817706    15.994914619570
         N            2.479996618381     1.912148142080     0.751301182294    14.003074004430
         C            1.115484618381     0.083278142080    -0.140191817706    12.000000000000
         C           -1.442278381619     0.285966142080    -0.037552817706    12.000000000000
         C           -0.072645981619     0.970739642080    -0.155383317706    12.000000000000
         C            2.367714618381     0.622538142080     0.255647182294    12.000000000000
         C            1.053512618381    -1.241033857920    -0.614336817706    12.000000000000
         C            3.487524618381    -0.229119857920     0.259104182294    12.000000000000
         C           -1.656501381619    -0.813110857920     0.807822182294    12.000000000000
         C           -2.525492381619     0.869729142080    -0.709708817706    12.000000000000
         C            2.180591618381    -2.052806857920    -0.645337817706    12.000000000000
         C            3.402707618381    -1.536846857920    -0.202023817706    12.000000000000
         C           -2.944676381619    -1.326031857920     0.966139182294    12.000000000000
         C           -3.805051381619     0.338378142080    -0.565178817706    12.000000000000
         C           -4.017602381619    -0.760145857920     0.273536182294    12.000000000000
         H            0.101846618381    -1.626120857920    -0.970058817706     1.007825032230
         H            4.445757618381     0.168505142080     0.590286182294     1.007825032230
         H           -0.823623381619    -1.245234857920     1.356442182294     1.007825032230
         H           -2.345533381619     1.738773142080    -1.337252817706     1.007825032230
         H            2.114608618381    -3.068260857920    -1.026049817706     1.007825032230
         H            4.294232618381    -2.160190857920    -0.206248817706     1.007825032230
         H           -3.111526381619    -2.168752857920     1.632821182294     1.007825032230
         H           -4.640422381619     0.783725142080    -1.100229817706     1.007825032230
         H           -5.018173381619    -1.169304857920     0.391982182294     1.007825032230
         H            1.787793618381     2.554796142080     0.380485182294     1.007825032230
         H            3.423600618381     2.281195142080     0.750022182294     1.007825032230

  Basis Set: AUG-CC-PVTZ
    Blend: AUG-CC-PVTZ
  Basis Set: (AUG-CC-PVTZ AUX)
    Blend: AUG-CC-PVTZ-JKFIT
	 Reference Energy          =    -628.2270649235100564 [Eh]
	 Singles Energy            =      -0.0000000000000000 [Eh]
	 Same-Spin Energy          =      -0.6904177689378002 [Eh]
	 Opposite-Spin Energy      =      -2.1073399881323480 [Eh]
	 Correlation Energy        =      -2.7977577570701482 [Eh]
	 Total Energy              =    -631.0248226805802005 [Eh]

	 ================> DF-SCS-MP2 Energies <==================
	-----------------------------------------------------------
	 SCS Same-Spin Scale       =       0.3333333333333333 [-]
	 SCS Opposite-Spin Scale   =       1.2000000000000000 [-]
	 SCS Same-Spin Energy      =      -0.2301392563126000 [Eh]
	 SCS Opposite-Spin Energy  =      -2.5288079857588177 [Eh]
	 SCS Correlation Energy    =      -2.7589472420714176 [Eh]
	 SCS Total Energy          =    -630.9860121655814282 [Eh]
	-----------------------------------------------------------

  Dipole Moment: [D]
     X:     0.5774      Y:    -1.4531      Z:    -0.1271     Total:     1.5688

*** Psi4 exiting successfully. Buy a developer a beer!
