                               Psi4 1.3.2 release

  ==> Input File <==

--------------------------------------------------------------------------
#psi4
#
memory 32 gb

molecule  {
0 1
  O       -0.0417540     2.1858230    -0.3073980
  N        2.4805920     1.9330880     0.7500480
  C        1.1160800     0.1042180    -0.1414450
  C       -1.4416830     0.3069060    -0.0388060
  C       -0.0108530     0.9948058    -0.1817772
  C        2.3683100     0.6434780     0.2543940
  C        1.0541080    -1.2200940    -0.6155900
  C        3.4881200    -0.2081800     0.2578510
  C       -1.6559060    -0.7921710     0.8065690
  C       -2.5248970     0.8906690    -0.7109620
  C        2.1811870    -2.0318670    -0.6465910
  C        3.4033030    -1.5159070    -0.2032770
  C       -2.9440810    -1.3050920     0.9648860
  C       -3.8044560     0.3593180    -0.5664320
  C       -4.0170070    -0.7392060     0.2722830
  H        0.1024420    -1.6051810    -0.9713120
  H        4.4463530     0.1894450     0.5890330
  H       -0.8230280    -1.2242950     1.3551890
  H       -2.3449380     1.7597130    -1.3385060
  H        2.1152040    -3.0473210    -1.0273030
  H        4.2948280    -2.1392510    -0.2075020
  H       -3.1109310    -2.1478130     1.6315680
  H       -4.6398270     0.8046650    -1.1014830
  H       -5.0175780    -1.1483650     0.3907290
  H        1.7883890     2.5757360     0.3792320
  H        3.4241960     2.3021350     0.7487690
units angstrom
no_reorient  #important for SAPT in psi4, default
symmetry c1  #important for SAPT in psi4, default
}

set PROPERTIES_ORIGIN ["COM"]
properties('MP2/aug-cc-pvtz', properties = ['dipole'])
--------------------------------------------------------------------------

    Molecular point group: c1
  Charge       = 0
  Multiplicity = 1
  Basis Set: AUG-CC-PVTZ
    Blend: AUG-CC-PVTZ
  Basis Set: (AUG-CC-PVTZ AUX)
    Blend: AUG-CC-PVTZ-JKFIT

    Orbital Energies [Eh]
    ---------------------

    Doubly Occupied:

       1A    -20.547621     2A    -15.567461     3A    -11.340481
       4A    -11.302734     5A    -11.259682     6A    -11.259150
       7A    -11.247045     8A    -11.243523     9A    -11.243207
      10A    -11.240259    11A    -11.240228    12A    -11.240095
      13A    -11.238795    14A    -11.236540    15A    -11.233499
      16A     -1.406420    17A     -1.234892    18A     -1.155948
      19A     -1.142501    20A     -1.057271    21A     -1.018353
      22A     -1.015814    23A     -1.003042    24A     -0.892190
      25A     -0.847330    26A     -0.832108    27A     -0.818379
      28A     -0.770111    29A     -0.718126    30A     -0.703639
      31A     -0.693710    32A     -0.673911    33A     -0.645424
      34A     -0.631618    35A     -0.618348    36A     -0.611019
      37A     -0.608129    38A     -0.596866    39A     -0.591509
      40A     -0.563518    41A     -0.541083    42A     -0.526908
      43A     -0.519233    44A     -0.510750    45A     -0.497052
      46A     -0.495386    47A     -0.458448    48A     -0.411883
      49A     -0.356032    50A     -0.340513    51A     -0.337935
      52A     -0.306700

  @DF-RHF Final Energy:  -628.22028213127442

   => Energetics <=

    Nuclear Repulsion Energy =            893.3777516337098632
    One-Electron Energy =               -2626.0112314149523627
    Two-Electron Energy =                1104.4131976499679695
    Total Energy =                       -628.2202821312744163
  Basis Set: (AUG-CC-PVTZ AUX)
    Blend: AUG-CC-PVTZ-RI
    Molecular point group: c1

    Geometry (in Angstrom), charge = 0, multiplicity = 1:

       Center              X                  Y                   Z               Mass
    ------------   -----------------  -----------------  -----------------  -----------------
         O           -0.046075564169     2.164692788790    -0.304614057715    15.994914619570
         N            2.476270435831     1.911957788790     0.752831942285    14.003074004430
         C            1.111758435831     0.083087788790    -0.138661057715    12.000000000000
         C           -1.446004564169     0.285775788790    -0.036022057715    12.000000000000
         C           -0.015174564169     0.973675588790    -0.178993257715    12.000000000000
         C            2.363988435831     0.622347788790     0.257177942285    12.000000000000
         C            1.049786435831    -1.241224211210    -0.612806057715    12.000000000000
         C            3.483798435831    -0.229310211210     0.260634942285    12.000000000000
         C           -1.660227564169    -0.813301211210     0.809352942285    12.000000000000
         C           -2.529218564169     0.869538788790    -0.708178057715    12.000000000000
         C            2.176865435831    -2.052997211210    -0.643807057715    12.000000000000
         C            3.398981435831    -1.537037211210    -0.200493057715    12.000000000000
         C           -2.948402564169    -1.326222211210     0.967669942285    12.000000000000
         C           -3.808777564169     0.338187788790    -0.563648057715    12.000000000000
         C           -4.021328564169    -0.760336211210     0.275066942285    12.000000000000
         H            0.098120435831    -1.626311211210    -0.968528057715     1.007825032230
         H            4.442031435831     0.168314788790     0.591816942285     1.007825032230
         H           -0.827349564169    -1.245425211210     1.357972942285     1.007825032230
         H           -2.349259564169     1.738582788790    -1.335722057715     1.007825032230
         H            2.110882435831    -3.068451211210    -1.024519057715     1.007825032230
         H            4.290506435831    -2.160381211210    -0.204718057715     1.007825032230
         H           -3.115252564169    -2.168943211210     1.634351942285     1.007825032230
         H           -4.644148564169     0.783534788790    -1.098699057715     1.007825032230
         H           -5.021899564169    -1.169495211210     0.393512942285     1.007825032230
         H            1.784067435831     2.554605788790     0.382015942285     1.007825032230
         H            3.419874435831     2.281004788790     0.751552942285     1.007825032230

  Basis Set: AUG-CC-PVTZ
    Blend: AUG-CC-PVTZ
  Basis Set: (AUG-CC-PVTZ AUX)
    Blend: AUG-CC-PVTZ-JKFIT
	 Reference Energy          =    -628.2202821312744163 [Eh]
	 Singles Energy            =      -0.0000000000000000 [Eh]
	 Same-Spin Energy          =      -0.6905794981000632 [Eh]
	 Opposite-Spin Energy      =      -2.1075483812049525 [Eh]
	 Correlation Energy        =      -2.7981278793050155 [Eh]
	 Total Energy              =    -631.0184100105794869 [Eh]

	 ================> DF-SCS-MP2 Energies <==================
	-----------------------------------------------------------
	 SCS Same-Spin Scale       =       0.3333333333333333 [-]
	 SCS Opposite-Spin Scale   =       1.2000000000000000 [-]
	 SCS Same-Spin Energy      =      -0.2301931660333544 [Eh]
	 SCS Opposite-Spin Energy  =      -2.5290580574459427 [Eh]
	 SCS Correlation Energy    =      -2.7592512234792972 [Eh]
	 SCS Total Energy          =    -630.9795333547536984 [Eh]
	-----------------------------------------------------------

  Dipole Moment: [D]
     X:     1.2407      Y:    -1.4497      Z:    -0.1831     Total:     1.9169

*** Psi4 exiting successfully. Buy a developer a beer!
