                               Psi4 1.3.2 release

  ==> Input File <==

--------------------------------------------------------------------------
#psi4
#
memory 32 gb

molecule  {
0 1
  O       -0.0417540     2.1858230    -0.3073980
  N        2.4805920     1.9330880     0.7500480
  C        1.0920981     0.1067954    -0.1461461
  C       -1.4416830     0.3069060    -0.0388060
  C       -0.1006150     0.9516510    -0.1728080
  C        2.3683100     0.6434780     0.2543940
  C        1.0541080    -1.2200940    -0.6155900
  C        3.4881200    -0.2081800     0.2578510
  C       -1.6559060    -0.7921710     0.8065690
  C       -2.5248970     0.8906690    -0.7109620
  C        2.1811870    -2.0318670    -0.6465910
  C        3.4033030    -1.5159070    -0.2032770
  C       -2.9440810    -1.3050920     0.9648860
  C       -3.8044560     0.3593180    -0.5664320
  C       -4.0170070    -0.7392060     0.2722830
  H        0.1024420    -1.6051810    -0.9713120
  H        4.4463530     0.1894450     0.5890330
  H       -0.8230280    -1.2242950     1.3551890
  H       -2.3449380     1.7597130    -1.3385060
  H        2.1152040    -3.0473210    -1.0273030
  H        4.2948280    -2.1392510    -0.2075020
  H       -3.1109310    -2.1478130     1.6315680
  H       -4.6398270     0.8046650    -1.1014830
  H       -5.0175780    -1.1483650     0.3907290
  H        1.7883890     2.5757360     0.3792320
  H        3.4241960     2.3021350     0.7487690
units angstrom
no_reorient  #important for SAPT in psi4, default
symmetry c1  #important for SAPT in psi4, default
}

set PROPERTIES_ORIGIN ["COM"]
properties('MP2/aug-cc-pvtz', properties = ['dipole'])
--------------------------------------------------------------------------

    Molecular point group: c1
  Charge       = 0
  Multiplicity = 1
  Basis Set: AUG-CC-PVTZ
    Blend: AUG-CC-PVTZ
  Basis Set: (AUG-CC-PVTZ AUX)
    Blend: AUG-CC-PVTZ-JKFIT

    Orbital Energies [Eh]
    ---------------------

    Doubly Occupied:

       1A    -20.540196     2A    -15.563136     3A    -11.339660
       4A    -11.302610     5A    -11.256124     6A    -11.255462
       7A    -11.252063     8A    -11.250996     9A    -11.249377
      10A    -11.247463    11A    -11.245418    12A    -11.243974
      13A    -11.241531    14A    -11.233607    15A    -11.229945
      16A     -1.373814    17A     -1.228451    18A     -1.164001
      19A     -1.138407    20A     -1.059180    21A     -1.026139
      22A     -1.021064    23A     -0.996955    24A     -0.895245
      25A     -0.849059    26A     -0.838054    27A     -0.819885
      28A     -0.770858    29A     -0.718384    30A     -0.702581
      31A     -0.689761    32A     -0.671221    33A     -0.647512
      34A     -0.634190    35A     -0.615492    36A     -0.610629
      37A     -0.604861    38A     -0.596796    39A     -0.587491
      40A     -0.554543    41A     -0.537072    42A     -0.526228
      43A     -0.519474    44A     -0.507757    45A     -0.501916
      46A     -0.490207    47A     -0.454628    48A     -0.422877
      49A     -0.352666    50A     -0.346065    51A     -0.344144
      52A     -0.301203

  @DF-RHF Final Energy:  -628.22503925430624

   => Energetics <=

    Nuclear Repulsion Energy =            893.2374710569612262
    One-Electron Energy =               -2625.7842852684834725
    Two-Electron Energy =                1104.3217749572161210
    Total Energy =                       -628.2250392543062389
  Basis Set: (AUG-CC-PVTZ AUX)
    Blend: AUG-CC-PVTZ-RI
    Molecular point group: c1

    Geometry (in Angstrom), charge = 0, multiplicity = 1:

       Center              X                  Y                   Z               Mass
    ------------   -----------------  -----------------  -----------------  -----------------
         O           -0.039149957032     2.167163454303    -0.304873932608    15.994914619570
         N            2.483196042968     1.914428454303     0.752572067392    14.003074004430
         C            1.094702142968     0.088135854303    -0.143622032608    12.000000000000
         C           -1.439078957032     0.288246454303    -0.036281932608    12.000000000000
         C           -0.098010957032     0.932991454303    -0.170283932608    12.000000000000
         C            2.370914042968     0.624818454303     0.256918067392    12.000000000000
         C            1.056712042968    -1.238753545697    -0.613065932608    12.000000000000
         C            3.490724042968    -0.226839545697     0.260375067392    12.000000000000
         C           -1.653301957032    -0.810830545697     0.809093067392    12.000000000000
         C           -2.522292957032     0.872009454303    -0.708437932608    12.000000000000
         C            2.183791042968    -2.050526545697    -0.644066932608    12.000000000000
         C            3.405907042968    -1.534566545697    -0.200752932608    12.000000000000
         C           -2.941476957032    -1.323751545697     0.967410067392    12.000000000000
         C           -3.801851957032     0.340658454303    -0.563907932608    12.000000000000
         C           -4.014402957032    -0.757865545697     0.274807067392    12.000000000000
         H            0.105046042968    -1.623840545697    -0.968787932608     1.007825032230
         H            4.448957042968     0.170785454303     0.591557067392     1.007825032230
         H           -0.820423957032    -1.242954545697     1.357713067392     1.007825032230
         H           -2.342333957032     1.741053454303    -1.335981932608     1.007825032230
         H            2.117808042968    -3.065980545697    -1.024778932608     1.007825032230
         H            4.297432042968    -2.157910545697    -0.204977932608     1.007825032230
         H           -3.108326957032    -2.166472545697     1.634092067392     1.007825032230
         H           -4.637222957032     0.786005454303    -1.098958932608     1.007825032230
         H           -5.014973957032    -1.167024545697     0.393253067392     1.007825032230
         H            1.790993042968     2.557076454303     0.381756067392     1.007825032230
         H            3.426800042968     2.283475454303     0.751293067392     1.007825032230

  Basis Set: AUG-CC-PVTZ
    Blend: AUG-CC-PVTZ
  Basis Set: (AUG-CC-PVTZ AUX)
    Blend: AUG-CC-PVTZ-JKFIT
	 Reference Energy          =    -628.2250392543062389 [Eh]
	 Singles Energy            =      -0.0000000000000000 [Eh]
	 Same-Spin Energy          =      -0.6917097595931347 [Eh]
	 Opposite-Spin Energy      =      -2.1097825493642408 [Eh]
	 Correlation Energy        =      -2.8014923089573758 [Eh]
	 Total Energy              =    -631.0265315632635748 [Eh]

	 ================> DF-SCS-MP2 Energies <==================
	-----------------------------------------------------------
	 SCS Same-Spin Scale       =       0.3333333333333333 [-]
	 SCS Opposite-Spin Scale   =       1.2000000000000000 [-]
	 SCS Same-Spin Energy      =      -0.2305699198643782 [Eh]
	 SCS Opposite-Spin Energy  =      -2.5317390592370890 [Eh]
	 SCS Correlation Energy    =      -2.7623089791014674 [Eh]
	 SCS Total Energy          =    -630.9873482334077153 [Eh]
	-----------------------------------------------------------

  Dipole Moment: [D]
     X:     0.4449      Y:    -1.6444      Z:    -0.0887     Total:     1.7058

*** Psi4 exiting successfully. Buy a developer a beer!
