                               Psi4 1.3.2 release

  ==> Input File <==

--------------------------------------------------------------------------
#psi4
#
memory 32 gb

molecule  {
0 1
  O       -0.0417540     2.1858230    -0.3073980
  N        2.4805920     1.9330880     0.7500480
  C        1.1160800     0.1042180    -0.1414450
  C       -1.4893973     0.3066328    -0.0498338
  C       -0.1006150     0.9516510    -0.1728080
  C        2.3683100     0.6434780     0.2543940
  C        1.0541080    -1.2200940    -0.6155900
  C        3.4881200    -0.2081800     0.2578510
  C       -1.6559060    -0.7921710     0.8065690
  C       -2.5248970     0.8906690    -0.7109620
  C        2.1811870    -2.0318670    -0.6465910
  C        3.4033030    -1.5159070    -0.2032770
  C       -2.9440810    -1.3050920     0.9648860
  C       -3.8044560     0.3593180    -0.5664320
  C       -4.0170070    -0.7392060     0.2722830
  H        0.1024420    -1.6051810    -0.9713120
  H        4.4463530     0.1894450     0.5890330
  H       -0.8230280    -1.2242950     1.3551890
  H       -2.3449380     1.7597130    -1.3385060
  H        2.1152040    -3.0473210    -1.0273030
  H        4.2948280    -2.1392510    -0.2075020
  H       -3.1109310    -2.1478130     1.6315680
  H       -4.6398270     0.8046650    -1.1014830
  H       -5.0175780    -1.1483650     0.3907290
  H        1.7883890     2.5757360     0.3792320
  H        3.4241960     2.3021350     0.7487690
units angstrom
no_reorient  #important for SAPT in psi4, default
symmetry c1  #important for SAPT in psi4, default
}

set PROPERTIES_ORIGIN ["COM"]
properties('MP2/aug-cc-pvtz', properties = ['dipole'])
--------------------------------------------------------------------------

    Molecular point group: c1
  Charge       = 0
  Multiplicity = 1
  Basis Set: AUG-CC-PVTZ
    Blend: AUG-CC-PVTZ
  Basis Set: (AUG-CC-PVTZ AUX)
    Blend: AUG-CC-PVTZ-JKFIT

    Orbital Energies [Eh]
    ---------------------

    Doubly Occupied:

       1A    -20.542451     2A    -15.562300     3A    -11.343471
       4A    -11.299591     5A    -11.254902     6A    -11.254672
       7A    -11.250540     8A    -11.248982     9A    -11.248601
      10A    -11.245247    11A    -11.244347    12A    -11.242024
      13A    -11.241695    14A    -11.233962    15A    -11.230204
      16A     -1.374061    17A     -1.228969    18A     -1.167338
      19A     -1.138998    20A     -1.054388    21A     -1.030094
      22A     -1.020159    23A     -0.998222    24A     -0.889037
      25A     -0.847849    26A     -0.840847    27A     -0.819558
      28A     -0.770386    29A     -0.718378    30A     -0.702581
      31A     -0.688899    32A     -0.667763    33A     -0.646561
      34A     -0.635262    35A     -0.615126    36A     -0.611521
      37A     -0.605370    38A     -0.598773    39A     -0.587581
      40A     -0.554827    41A     -0.535920    42A     -0.526596
      43A     -0.518746    44A     -0.509956    45A     -0.505178
      46A     -0.492523    47A     -0.454382    48A     -0.418340
      49A     -0.352015    50A     -0.348853    51A     -0.343976
      52A     -0.302540

  @DF-RHF Final Energy:  -628.22415498326222

   => Energetics <=

    Nuclear Repulsion Energy =            893.0567019362952124
    One-Electron Energy =               -2625.4325843681485821
    Two-Electron Energy =                1104.1517274485911457
    Total Energy =                       -628.2241549832622241
  Basis Set: (AUG-CC-PVTZ AUX)
    Blend: AUG-CC-PVTZ-RI
    Molecular point group: c1

    Geometry (in Angstrom), charge = 0, multiplicity = 1:

       Center              X                  Y                   Z               Mass
    ------------   -----------------  -----------------  -----------------  -----------------
         O           -0.037704945222     2.167337020847    -0.304488714248    15.994914619570
         N            2.484641054778     1.914602020847     0.752957285752    14.003074004430
         C            1.120129054778     0.085732020847    -0.138535714248    12.000000000000
         C           -1.485348245222     0.288146820847    -0.046924514248    12.000000000000
         C           -0.096565945222     0.933165020847    -0.169898714248    12.000000000000
         C            2.372359054778     0.624992020847     0.257303285752    12.000000000000
         C            1.058157054778    -1.238579979153    -0.612680714248    12.000000000000
         C            3.492169054778    -0.226665979153     0.260760285752    12.000000000000
         C           -1.651856945222    -0.810656979153     0.809478285752    12.000000000000
         C           -2.520847945222     0.872183020847    -0.708052714248    12.000000000000
         C            2.185236054778    -2.050352979153    -0.643681714248    12.000000000000
         C            3.407352054778    -1.534392979153    -0.200367714248    12.000000000000
         C           -2.940031945222    -1.323577979153     0.967795285752    12.000000000000
         C           -3.800406945222     0.340832020847    -0.563522714248    12.000000000000
         C           -4.012957945222    -0.757691979153     0.275192285752    12.000000000000
         H            0.106491054778    -1.623666979153    -0.968402714248     1.007825032230
         H            4.450402054778     0.170959020847     0.591942285752     1.007825032230
         H           -0.818978945222    -1.242780979153     1.358098285752     1.007825032230
         H           -2.340888945222     1.741227020847    -1.335596714248     1.007825032230
         H            2.119253054778    -3.065806979153    -1.024393714248     1.007825032230
         H            4.298877054778    -2.157736979153    -0.204592714248     1.007825032230
         H           -3.106881945222    -2.166298979153     1.634477285752     1.007825032230
         H           -4.635777945222     0.786179020847    -1.098573714248     1.007825032230
         H           -5.013528945222    -1.166850979153     0.393638285752     1.007825032230
         H            1.792438054778     2.557250020847     0.382141285752     1.007825032230
         H            3.428245054778     2.283649020847     0.751678285752     1.007825032230

  Basis Set: AUG-CC-PVTZ
    Blend: AUG-CC-PVTZ
  Basis Set: (AUG-CC-PVTZ AUX)
    Blend: AUG-CC-PVTZ-JKFIT
	 Reference Energy          =    -628.2241549832622241 [Eh]
	 Singles Energy            =      -0.0000000000000000 [Eh]
	 Same-Spin Energy          =      -0.6912588087718303 [Eh]
	 Opposite-Spin Energy      =      -2.1091159362168210 [Eh]
	 Correlation Energy        =      -2.8003747449886514 [Eh]
	 Total Energy              =    -631.0245297282508545 [Eh]

	 ================> DF-SCS-MP2 Energies <==================
	-----------------------------------------------------------
	 SCS Same-Spin Scale       =       0.3333333333333333 [-]
	 SCS Opposite-Spin Scale   =       1.2000000000000000 [-]
	 SCS Same-Spin Energy      =      -0.2304196029239434 [Eh]
	 SCS Opposite-Spin Energy  =      -2.5309391234601852 [Eh]
	 SCS Correlation Energy    =      -2.7613587263841288 [Eh]
	 SCS Total Energy          =    -630.9855137096463977 [Eh]
	-----------------------------------------------------------

  Dipole Moment: [D]
     X:     0.4637      Y:    -1.5992      Z:    -0.1138     Total:     1.6689

*** Psi4 exiting successfully. Buy a developer a beer!
