                               Psi4 1.3.2 release

  ==> Input File <==

--------------------------------------------------------------------------
#psi4
#
memory 32 gb

molecule  {
0 1
  O       -0.0417540     2.1858230    -0.3073980
  N        2.4328211     1.9384485     0.7445610
  C        1.1160800     0.1042180    -0.1414450
  C       -1.4416830     0.3069060    -0.0388060
  C       -0.1006150     0.9516510    -0.1728080
  C        2.3683100     0.6434780     0.2543940
  C        1.0541080    -1.2200940    -0.6155900
  C        3.4881200    -0.2081800     0.2578510
  C       -1.6559060    -0.7921710     0.8065690
  C       -2.5248970     0.8906690    -0.7109620
  C        2.1811870    -2.0318670    -0.6465910
  C        3.4033030    -1.5159070    -0.2032770
  C       -2.9440810    -1.3050920     0.9648860
  C       -3.8044560     0.3593180    -0.5664320
  C       -4.0170070    -0.7392060     0.2722830
  H        0.1024420    -1.6051810    -0.9713120
  H        4.4463530     0.1894450     0.5890330
  H       -0.8230280    -1.2242950     1.3551890
  H       -2.3449380     1.7597130    -1.3385060
  H        2.1152040    -3.0473210    -1.0273030
  H        4.2948280    -2.1392510    -0.2075020
  H       -3.1109310    -2.1478130     1.6315680
  H       -4.6398270     0.8046650    -1.1014830
  H       -5.0175780    -1.1483650     0.3907290
  H        1.7883890     2.5757360     0.3792320
  H        3.4241960     2.3021350     0.7487690
units angstrom
no_reorient  #important for SAPT in psi4, default
symmetry c1  #important for SAPT in psi4, default
}

set PROPERTIES_ORIGIN ["COM"]
properties('MP2/aug-cc-pvtz', properties = ['dipole'])
--------------------------------------------------------------------------

    Molecular point group: c1
  Charge       = 0
  Multiplicity = 1
  Basis Set: AUG-CC-PVTZ
    Blend: AUG-CC-PVTZ
  Basis Set: (AUG-CC-PVTZ AUX)
    Blend: AUG-CC-PVTZ-JKFIT

    Orbital Energies [Eh]
    ---------------------

    Doubly Occupied:

       1A    -20.540915     2A    -15.562993     3A    -11.341032
       4A    -11.299130     5A    -11.255202     6A    -11.254059
       7A    -11.252389     8A    -11.251275     9A    -11.249978
      10A    -11.247873    11A    -11.245664    12A    -11.244240
      13A    -11.240396    14A    -11.234847    15A    -11.230133
      16A     -1.373982    17A     -1.228666    18A     -1.164165
      19A     -1.138741    20A     -1.057451    21A     -1.026331
      22A     -1.021012    23A     -0.998304    24A     -0.893428
      25A     -0.849125    26A     -0.838573    27A     -0.820195
      28A     -0.771509    29A     -0.717860    30A     -0.700086
      31A     -0.692151    32A     -0.668200    33A     -0.647358
      34A     -0.635164    35A     -0.614390    36A     -0.610254
      37A     -0.606143    38A     -0.597051    39A     -0.586266
      40A     -0.555108    41A     -0.536572    42A     -0.526553
      43A     -0.519711    44A     -0.508514    45A     -0.502118
      46A     -0.490449    47A     -0.454605    48A     -0.421964
      49A     -0.352121    50A     -0.346096    51A     -0.344369
      52A     -0.302766

  @DF-RHF Final Energy:  -628.22239921481275

   => Energetics <=

    Nuclear Repulsion Energy =            893.6763998765935639
    One-Electron Energy =               -2626.6626490119560913
    Two-Electron Energy =                1104.7638499205497737
    Total Energy =                       -628.2223992148126399
  Basis Set: (AUG-CC-PVTZ AUX)
    Blend: AUG-CC-PVTZ-RI
    Molecular point group: c1

    Geometry (in Angstrom), charge = 0, multiplicity = 1:

       Center              X                  Y                   Z               Mass
    ------------   -----------------  -----------------  -----------------  -----------------
         O           -0.037215976982     2.166939515962    -0.304770313540    15.994914619570
         N            2.437359123018     1.919565015962     0.747188686460    14.003074004430
         C            1.120618023018     0.085334515962    -0.138817313540    12.000000000000
         C           -1.437144976982     0.288022515962    -0.036178313540    12.000000000000
         C           -0.096076976982     0.932767515962    -0.170180313540    12.000000000000
         C            2.372848023018     0.624594515962     0.257021686460    12.000000000000
         C            1.058646023018    -1.238977484038    -0.612962313540    12.000000000000
         C            3.492658023018    -0.227063484038     0.260478686460    12.000000000000
         C           -1.651367976982    -0.811054484038     0.809196686460    12.000000000000
         C           -2.520358976982     0.871785515962    -0.708334313540    12.000000000000
         C            2.185725023018    -2.050750484038    -0.643963313540    12.000000000000
         C            3.407841023018    -1.534790484038    -0.200649313540    12.000000000000
         C           -2.939542976982    -1.323975484038     0.967513686460    12.000000000000
         C           -3.799917976982     0.340434515962    -0.563804313540    12.000000000000
         C           -4.012468976982    -0.758089484038     0.274910686460    12.000000000000
         H            0.106980023018    -1.624064484038    -0.968684313540     1.007825032230
         H            4.450891023018     0.170561515962     0.591660686460     1.007825032230
         H           -0.818489976982    -1.243178484038     1.357816686460     1.007825032230
         H           -2.340399976982     1.740829515962    -1.335878313540     1.007825032230
         H            2.119742023018    -3.066204484038    -1.024675313540     1.007825032230
         H            4.299366023018    -2.158134484038    -0.204874313540     1.007825032230
         H           -3.106392976982    -2.166696484038     1.634195686460     1.007825032230
         H           -4.635288976982     0.785781515962    -1.098855313540     1.007825032230
         H           -5.013039976982    -1.167248484038     0.393356686460     1.007825032230
         H            1.792927023018     2.556852515962     0.381859686460     1.007825032230
         H            3.428734023018     2.283251515962     0.751396686460     1.007825032230

  Basis Set: AUG-CC-PVTZ
    Blend: AUG-CC-PVTZ
  Basis Set: (AUG-CC-PVTZ AUX)
    Blend: AUG-CC-PVTZ-JKFIT
	 Reference Energy          =    -628.2223992148127536 [Eh]
	 Singles Energy            =      -0.0000000000000000 [Eh]
	 Same-Spin Energy          =      -0.6916438627487130 [Eh]
	 Opposite-Spin Energy      =      -2.1099114587146497 [Eh]
	 Correlation Energy        =      -2.8015553214633626 [Eh]
	 Total Energy              =    -631.0239545362761646 [Eh]

	 ================> DF-SCS-MP2 Energies <==================
	-----------------------------------------------------------
	 SCS Same-Spin Scale       =       0.3333333333333333 [-]
	 SCS Opposite-Spin Scale   =       1.2000000000000000 [-]
	 SCS Same-Spin Energy      =      -0.2305479542495710 [Eh]
	 SCS Opposite-Spin Energy  =      -2.5318937504575794 [Eh]
	 SCS Correlation Energy    =      -2.7624417047071503 [Eh]
	 SCS Total Energy          =    -630.9848409195199110 [Eh]
	-----------------------------------------------------------

  Dipole Moment: [D]
     X:     0.4063      Y:    -1.6534      Z:    -0.1053     Total:     1.7059

*** Psi4 exiting successfully. Buy a developer a beer!
