                               Psi4 1.4a3.dev225

  ==> Input File <==

--------------------------------------------------------------------------
#psi4
#
memory 32 gb

molecule  {
0 1
  O       -0.0417540     2.1858230    -0.3073980
  N        2.4805920     1.9330880     0.7500480
  C        1.1160800     0.1042180    -0.1414450
  C       -1.4416830     0.3069060    -0.0388060
  C       -0.0557340     0.9732284    -0.1772926
  C        2.3683100     0.6434780     0.2543940
  C        1.0541080    -1.2200940    -0.6155900
  C        3.4881200    -0.2081800     0.2578510
  C       -1.6559060    -0.7921710     0.8065690
  C       -2.5248970     0.8906690    -0.7109620
  C        2.1811870    -2.0318670    -0.6465910
  C        3.4033030    -1.5159070    -0.2032770
  C       -2.9440810    -1.3050920     0.9648860
  C       -3.8044560     0.3593180    -0.5664320
  C       -4.0170070    -0.7392060     0.2722830
  H        0.1024420    -1.6051810    -0.9713120
  H        4.4463530     0.1894450     0.5890330
  H       -0.8230280    -1.2242950     1.3551890
  H       -2.3449380     1.7597130    -1.3385060
  H        2.1152040    -3.0473210    -1.0273030
  H        4.2948280    -2.1392510    -0.2075020
  H       -3.1109310    -2.1478130     1.6315680
  H       -4.6398270     0.8046650    -1.1014830
  H       -5.0175780    -1.1483650     0.3907290
  H        1.7883890     2.5757360     0.3792320
  H        3.4241960     2.3021350     0.7487690
units angstrom
no_reorient  #important for SAPT in psi4, default
symmetry c1  #important for SAPT in psi4, default
}

set PROPERTIES_ORIGIN ["COM"]
properties('MP2/aug-cc-pvtz', properties = ['dipole'])
--------------------------------------------------------------------------

    Molecular point group: c1
  Charge       = 0
  Multiplicity = 1
  Basis Set: AUG-CC-PVTZ
    Blend: AUG-CC-PVTZ
  Basis Set: (AUG-CC-PVTZ AUX)
    Blend: AUG-CC-PVTZ-JKFIT

    Orbital Energies [Eh]
    ---------------------

    Doubly Occupied:

       1A    -20.544574     2A    -15.564646     3A    -11.340848
       4A    -11.300829     5A    -11.256915     6A    -11.256795
       7A    -11.249410     8A    -11.247770     9A    -11.247278
      10A    -11.244124    11A    -11.243023    12A    -11.241691
      13A    -11.240474    14A    -11.235022    15A    -11.231636
      16A     -1.390558    17A     -1.231645    18A     -1.159941
      19A     -1.140622    20A     -1.056300    21A     -1.022535
      22A     -1.018991    23A     -1.000389    24A     -0.891579
      25A     -0.848518    26A     -0.835766    27A     -0.819533
      28A     -0.770104    29A     -0.717971    30A     -0.702986
      31A     -0.691406    32A     -0.671238    33A     -0.646763
      34A     -0.633204    35A     -0.617003    36A     -0.611191
      37A     -0.606402    38A     -0.594506    39A     -0.592343
      40A     -0.558888    41A     -0.538619    42A     -0.526341
      43A     -0.518937    44A     -0.510438    45A     -0.499460
      46A     -0.494380    47A     -0.456215    48A     -0.418267
      49A     -0.353771    50A     -0.343578    51A     -0.341488
      52A     -0.304380

  @DF-RHF Final Energy:  -628.22589835821373

   => Energetics <=

    Nuclear Repulsion Energy =            893.2797856706768016
    One-Electron Energy =               -2625.8487912142422829
    Two-Electron Energy =                1104.3431071853517551
    Total Energy =                       -628.2258983582137262
  Basis Set: (AUG-CC-PVTZ AUX)
    Blend: AUG-CC-PVTZ-RI
    Molecular point group: c1

    Geometry (in Angstrom), charge = 0, multiplicity = 1:

       Center              X                  Y                   Z               Mass
    ------------   -----------------  -----------------  -----------------  -----------------
         O           -0.043342862249     2.166006587555    -0.304887114800    15.994914619570
         N            2.479003137751     1.913271587555     0.752558885200    14.003074004430
         C            1.114491137751     0.084401587555    -0.138934114800    12.000000000000
         C           -1.443271862249     0.287089587555    -0.036295114800    12.000000000000
         C           -0.057322862249     0.953411987555    -0.174781714800    12.000000000000
         C            2.366721137751     0.623661587555     0.256904885200    12.000000000000
         C            1.052519137751    -1.239910412445    -0.613079114800    12.000000000000
         C            3.486531137751    -0.227996412445     0.260361885200    12.000000000000
         C           -1.657494862249    -0.811987412445     0.809079885200    12.000000000000
         C           -2.526485862249     0.870852587555    -0.708451114800    12.000000000000
         C            2.179598137751    -2.051683412445    -0.644080114800    12.000000000000
         C            3.401714137751    -1.535723412445    -0.200766114800    12.000000000000
         C           -2.945669862249    -1.324908412445     0.967396885200    12.000000000000
         C           -3.806044862249     0.339501587555    -0.563921114800    12.000000000000
         C           -4.018595862249    -0.759022412445     0.274793885200    12.000000000000
         H            0.100853137751    -1.624997412445    -0.968801114800     1.007825032230
         H            4.444764137751     0.169628587555     0.591543885200     1.007825032230
         H           -0.824616862249    -1.244111412445     1.357699885200     1.007825032230
         H           -2.346526862249     1.739896587555    -1.335995114800     1.007825032230
         H            2.113615137751    -3.067137412445    -1.024792114800     1.007825032230
         H            4.293239137751    -2.159067412445    -0.204991114800     1.007825032230
         H           -3.112519862249    -2.167629412445     1.634078885200     1.007825032230
         H           -4.641415862249     0.784848587555    -1.098972114800     1.007825032230
         H           -5.019166862249    -1.168181412445     0.393239885200     1.007825032230
         H            1.786800137751     2.555919587555     0.381742885200     1.007825032230
         H            3.422607137751     2.282318587555     0.751279885200     1.007825032230

  Basis Set: AUG-CC-PVTZ
    Blend: AUG-CC-PVTZ
  Basis Set: (AUG-CC-PVTZ AUX)
    Blend: AUG-CC-PVTZ-JKFIT
	 Reference Energy          =    -628.2258983582137262 [Eh]
	 Singles Energy            =      -0.0000000000000000 [Eh]
	 Same-Spin Energy          =      -0.6909163903507585 [Eh]
	 Opposite-Spin Energy      =      -2.1083018988504154 [Eh]
	 Correlation Energy        =      -2.7992182892011739 [Eh]
	 Total Energy              =    -631.0251166474148476 [Eh]

	 ================> DF-SCS-MP2 Energies <==================
	-----------------------------------------------------------
	 SCS Same-Spin Scale       =       0.3333333333333333 [-]
	 SCS Opposite-Spin Scale   =       1.2000000000000000 [-]
	 SCS Same-Spin Energy      =      -0.2303054634502528 [Eh]
	 SCS Opposite-Spin Energy  =      -2.5299622786204985 [Eh]
	 SCS Correlation Energy    =      -2.7602677420707513 [Eh]
	 SCS Total Energy          =    -630.9861661002844357 [Eh]
	-----------------------------------------------------------

  Dipole Moment: [D]
     X:     0.7913      Y:    -1.5442      Z:    -0.1421     Total:     1.7409

*** Psi4 exiting successfully. Buy a developer a beer!
