                               Psi4 1.3.2 release

  ==> Input File <==

--------------------------------------------------------------------------
#psi4
#
memory 32 gb

molecule  {
0 1
  O       -0.0417540     2.1858230    -0.3073980
  N        2.4805920     1.9330880     0.7500480
  C        1.1160800     0.1042180    -0.1414450
  C       -1.4416830     0.3069060    -0.0388060
  C       -0.1006150     0.9516510    -0.1728080
  C        2.3791520     0.6219521     0.2486452
  C        1.0541080    -1.2200940    -0.6155900
  C        3.4881200    -0.2081800     0.2578510
  C       -1.6559060    -0.7921710     0.8065690
  C       -2.5248970     0.8906690    -0.7109620
  C        2.1811870    -2.0318670    -0.6465910
  C        3.4033030    -1.5159070    -0.2032770
  C       -2.9440810    -1.3050920     0.9648860
  C       -3.8044560     0.3593180    -0.5664320
  C       -4.0170070    -0.7392060     0.2722830
  H        0.1024420    -1.6051810    -0.9713120
  H        4.4463530     0.1894450     0.5890330
  H       -0.8230280    -1.2242950     1.3551890
  H       -2.3449380     1.7597130    -1.3385060
  H        2.1152040    -3.0473210    -1.0273030
  H        4.2948280    -2.1392510    -0.2075020
  H       -3.1109310    -2.1478130     1.6315680
  H       -4.6398270     0.8046650    -1.1014830
  H       -5.0175780    -1.1483650     0.3907290
  H        1.7883890     2.5757360     0.3792320
  H        3.4241960     2.3021350     0.7487690
units angstrom
no_reorient  #important for SAPT in psi4, default
symmetry c1  #important for SAPT in psi4, default
}

set PROPERTIES_ORIGIN ["COM"]
properties('MP2/aug-cc-pvtz', properties = ['dipole'])
--------------------------------------------------------------------------

    Molecular point group: c1
  Charge       = 0
  Multiplicity = 1
  Basis Set: AUG-CC-PVTZ
    Blend: AUG-CC-PVTZ
  Basis Set: (AUG-CC-PVTZ AUX)
    Blend: AUG-CC-PVTZ-JKFIT

    Orbital Energies [Eh]
    ---------------------

    Doubly Occupied:

       1A    -20.542045     2A    -15.558643     3A    -11.342485
       4A    -11.296733     5A    -11.255404     6A    -11.254860
       7A    -11.253005     8A    -11.251808     9A    -11.250721
      10A    -11.248494    11A    -11.246157    12A    -11.244740
      13A    -11.242366    14A    -11.232222    15A    -11.231148
      16A     -1.374599    17A     -1.221684    18A     -1.164683
      19A     -1.138542    20A     -1.058517    21A     -1.027041
      22A     -1.022013    23A     -0.999839    24A     -0.894622
      25A     -0.850055    26A     -0.839045    27A     -0.819732
      28A     -0.771181    29A     -0.718880    30A     -0.700182
      31A     -0.686124    32A     -0.669079    33A     -0.648182
      34A     -0.633857    35A     -0.616185    36A     -0.610229
      37A     -0.606625    38A     -0.597590    39A     -0.587673
      40A     -0.554555    41A     -0.536523    42A     -0.526832
      43A     -0.520369    44A     -0.509793    45A     -0.502675
      46A     -0.490614    47A     -0.451199    48A     -0.423156
      49A     -0.352647    50A     -0.346636    51A     -0.344903
      52A     -0.304839

  @DF-RHF Final Energy:  -628.22533525104336

   => Energetics <=

    Nuclear Repulsion Energy =            893.2102583255001491
    One-Electron Energy =               -2625.7277266341866380
    Two-Electron Energy =                1104.2921330576432410
    Total Energy =                       -628.2253352510433615
  Basis Set: (AUG-CC-PVTZ AUX)
    Blend: AUG-CC-PVTZ-RI
    Molecular point group: c1

    Geometry (in Angstrom), charge = 0, multiplicity = 1:

       Center              X                  Y                   Z               Mass
    ------------   -----------------  -----------------  -----------------  -----------------
         O           -0.041270305028     2.168631049369    -0.304810140540    15.994914619570
         N            2.481075694972     1.915896049369     0.752635859460    14.003074004430
         C            1.116563694972     0.087026049369    -0.138857140540    12.000000000000
         C           -1.441199305028     0.289714049369    -0.036218140540    12.000000000000
         C           -0.100131305028     0.934459049369    -0.170220140540    12.000000000000
         C            2.379635694972     0.604760149369     0.251233059460    12.000000000000
         C            1.054591694972    -1.237285950631    -0.613002140540    12.000000000000
         C            3.488603694972    -0.225371950631     0.260438859460    12.000000000000
         C           -1.655422305028    -0.809362950631     0.809156859460    12.000000000000
         C           -2.524413305028     0.873477049369    -0.708374140540    12.000000000000
         C            2.181670694972    -2.049058950631    -0.644003140540    12.000000000000
         C            3.403786694972    -1.533098950631    -0.200689140540    12.000000000000
         C           -2.943597305028    -1.322283950631     0.967473859460    12.000000000000
         C           -3.803972305028     0.342126049369    -0.563844140540    12.000000000000
         C           -4.016523305028    -0.756397950631     0.274870859460    12.000000000000
         H            0.102925694972    -1.622372950631    -0.968724140540     1.007825032230
         H            4.446836694972     0.172253049369     0.591620859460     1.007825032230
         H           -0.822544305028    -1.241486950631     1.357776859460     1.007825032230
         H           -2.344454305028     1.742521049369    -1.335918140540     1.007825032230
         H            2.115687694972    -3.064512950631    -1.024715140540     1.007825032230
         H            4.295311694972    -2.156442950631    -0.204914140540     1.007825032230
         H           -3.110447305028    -2.165004950631     1.634155859460     1.007825032230
         H           -4.639343305028     0.787473049369    -1.098895140540     1.007825032230
         H           -5.017094305028    -1.165556950631     0.393316859460     1.007825032230
         H            1.788872694972     2.558544049369     0.381819859460     1.007825032230
         H            3.424679694972     2.284943049369     0.751356859460     1.007825032230

  Basis Set: AUG-CC-PVTZ
    Blend: AUG-CC-PVTZ
  Basis Set: (AUG-CC-PVTZ AUX)
    Blend: AUG-CC-PVTZ-JKFIT
	 Reference Energy          =    -628.2253352510433615 [Eh]
	 Singles Energy            =      -0.0000000000000000 [Eh]
	 Same-Spin Energy          =      -0.6914998642781722 [Eh]
	 Opposite-Spin Energy      =      -2.1096398531009002 [Eh]
	 Correlation Energy        =      -2.8011397173790726 [Eh]
	 Total Energy              =    -631.0264749684224626 [Eh]

	 ================> DF-SCS-MP2 Energies <==================
	-----------------------------------------------------------
	 SCS Same-Spin Scale       =       0.3333333333333333 [-]
	 SCS Opposite-Spin Scale   =       1.2000000000000000 [-]
	 SCS Same-Spin Energy      =      -0.2304999547593907 [Eh]
	 SCS Opposite-Spin Energy  =      -2.5315678237210801 [Eh]
	 SCS Correlation Energy    =      -2.7620677784804708 [Eh]
	 SCS Total Energy          =    -630.9874030295238754 [Eh]
	-----------------------------------------------------------

  Dipole Moment: [D]
     X:     0.2993      Y:    -1.7726      Z:    -0.1578     Total:     1.8046

*** Psi4 exiting successfully. Buy a developer a beer!
