                               Psi4 1.3.2 release

  ==> Input File <==

--------------------------------------------------------------------------
#psi4
#
memory 32 gb

molecule  {
0 1
  O       -0.0417540     2.1858230    -0.3073980
  N        2.4805920     1.9330880     0.7500480
  C        1.1160800     0.1042180    -0.1414450
  C       -1.4416830     0.3069060    -0.0388060
  C       -0.1006150     0.9516510    -0.1728080
  C        2.3683100     0.6434780     0.2543940
  C        1.0541080    -1.2200940    -0.6155900
  C        3.4881200    -0.2081800     0.2578510
  C       -1.6406375    -0.7138356     0.7463159
  C       -2.5248970     0.8906690    -0.7109620
  C        2.1811870    -2.0318670    -0.6465910
  C        3.4033030    -1.5159070    -0.2032770
  C       -2.9440810    -1.3050920     0.9648860
  C       -3.8044560     0.3593180    -0.5664320
  C       -4.0170070    -0.7392060     0.2722830
  H        0.1024420    -1.6051810    -0.9713120
  H        4.4463530     0.1894450     0.5890330
  H       -0.8230280    -1.2242950     1.3551890
  H       -2.3449380     1.7597130    -1.3385060
  H        2.1152040    -3.0473210    -1.0273030
  H        4.2948280    -2.1392510    -0.2075020
  H       -3.1109310    -2.1478130     1.6315680
  H       -4.6398270     0.8046650    -1.1014830
  H       -5.0175780    -1.1483650     0.3907290
  H        1.7883890     2.5757360     0.3792320
  H        3.4241960     2.3021350     0.7487690
units angstrom
no_reorient  #important for SAPT in psi4, default
symmetry c1  #important for SAPT in psi4, default
}

set PROPERTIES_ORIGIN ["COM"]
properties('MP2/aug-cc-pvtz', properties = ['dipole'])
--------------------------------------------------------------------------

    Molecular point group: c1
  Charge       = 0
  Multiplicity = 1
  Basis Set: AUG-CC-PVTZ
    Blend: AUG-CC-PVTZ
  Basis Set: (AUG-CC-PVTZ AUX)
    Blend: AUG-CC-PVTZ-JKFIT

    Orbital Energies [Eh]
    ---------------------

    Doubly Occupied:

       1A    -20.543023     2A    -15.562153     3A    -11.342306
       4A    -11.299187     5A    -11.254592     6A    -11.254393
       7A    -11.250990     8A    -11.250281     9A    -11.249347
      10A    -11.247229    11A    -11.243014    12A    -11.241282
      13A    -11.239668    14A    -11.233589    15A    -11.229834
      16A     -1.375724    17A     -1.228768    18A     -1.172106
      19A     -1.138666    20A     -1.063335    21A     -1.028050
      22A     -1.016205    23A     -0.998006    24A     -0.891698
      25A     -0.846748    26A     -0.842178    27A     -0.822270
      28A     -0.772734    29A     -0.717764    30A     -0.700822
      31A     -0.688917    32A     -0.669352    33A     -0.648817
      34A     -0.634154    35A     -0.622077    36A     -0.610928
      37A     -0.605174    38A     -0.589005    39A     -0.587878
      40A     -0.554049    41A     -0.536473    42A     -0.526358
      43A     -0.518902    44A     -0.511241    45A     -0.500359
      46A     -0.491322    47A     -0.453760    48A     -0.421398
      49A     -0.360826    50A     -0.350154    51A     -0.336667
      52A     -0.302318

  @DF-RHF Final Energy:  -628.21344939975165

   => Energetics <=

    Nuclear Repulsion Energy =            894.7874603602452908
    One-Electron Energy =               -2628.8496424975696755
    Two-Electron Energy =                1105.8487327375726181
    Total Energy =                       -628.2134493997516529
  Basis Set: (AUG-CC-PVTZ AUX)
    Blend: AUG-CC-PVTZ-RI
    Molecular point group: c1

    Geometry (in Angstrom), charge = 0, multiplicity = 1:

       Center              X                  Y                   Z               Mass
    ------------   -----------------  -----------------  -----------------  -----------------
         O           -0.041539824536     2.162550722143    -0.301491497790    15.994914619570
         N            2.480806175464     1.909815722143     0.755954502210    14.003074004430
         C            1.116294175464     0.080945722143    -0.135538497790    12.000000000000
         C           -1.441468824536     0.283633722143    -0.032899497790    12.000000000000
         C           -0.100400824536     0.928378722143    -0.166901497790    12.000000000000
         C            2.368524175464     0.620205722143     0.260300502210    12.000000000000
         C            1.054322175464    -1.243366277857    -0.609683497790    12.000000000000
         C            3.488334175464    -0.231452277857     0.263757502210    12.000000000000
         C           -1.640423324536    -0.737107877857     0.752222402210    12.000000000000
         C           -2.524682824536     0.867396722143    -0.705055497790    12.000000000000
         C            2.181401175464    -2.055139277857    -0.640684497790    12.000000000000
         C            3.403517175464    -1.539179277857    -0.197370497790    12.000000000000
         C           -2.943866824536    -1.328364277857     0.970792502210    12.000000000000
         C           -3.804241824536     0.336045722143    -0.560525497790    12.000000000000
         C           -4.016792824536    -0.762478277857     0.278189502210    12.000000000000
         H            0.102656175464    -1.628453277857    -0.965405497790     1.007825032230
         H            4.446567175464     0.166172722143     0.594939502210     1.007825032230
         H           -0.822813824536    -1.247567277857     1.361095502210     1.007825032230
         H           -2.344723824536     1.736440722143    -1.332599497790     1.007825032230
         H            2.115418175464    -3.070593277857    -1.021396497790     1.007825032230
         H            4.295042175464    -2.162523277857    -0.201595497790     1.007825032230
         H           -3.110716824536    -2.171085277857     1.637474502210     1.007825032230
         H           -4.639612824536     0.781392722143    -1.095576497790     1.007825032230
         H           -5.017363824536    -1.171637277857     0.396635502210     1.007825032230
         H            1.788603175464     2.552463722143     0.385138502210     1.007825032230
         H            3.424410175464     2.278862722143     0.754675502210     1.007825032230

  Basis Set: AUG-CC-PVTZ
    Blend: AUG-CC-PVTZ
  Basis Set: (AUG-CC-PVTZ AUX)
    Blend: AUG-CC-PVTZ-JKFIT
	 Reference Energy          =    -628.2134493997516529 [Eh]
	 Singles Energy            =      -0.0000000000000000 [Eh]
	 Same-Spin Energy          =      -0.6912719480151488 [Eh]
	 Opposite-Spin Energy      =      -2.1098152889515625 [Eh]
	 Correlation Energy        =      -2.8010872369667110 [Eh]
	 Total Energy              =    -631.0145366367183897 [Eh]

	 ================> DF-SCS-MP2 Energies <==================
	-----------------------------------------------------------
	 SCS Same-Spin Scale       =       0.3333333333333333 [-]
	 SCS Opposite-Spin Scale   =       1.2000000000000000 [-]
	 SCS Same-Spin Energy      =      -0.2304239826717163 [Eh]
	 SCS Opposite-Spin Energy  =      -2.5317783467418749 [Eh]
	 SCS Correlation Energy    =      -2.7622023294135909 [Eh]
	 SCS Total Energy          =    -630.9756517291652926 [Eh]
	-----------------------------------------------------------

  Dipole Moment: [D]
     X:     0.3857      Y:    -1.6419      Z:    -0.0894     Total:     1.6890

*** Psi4 exiting successfully. Buy a developer a beer!
