                               Psi4 1.3.2 release

  ==> Input File <==

--------------------------------------------------------------------------
#psi4
#
memory 32 gb

molecule  {
0 1
  O       -0.0417540     2.1858230    -0.3073980
  N        2.4805920     1.9330880     0.7500480
  C        1.1160800     0.1042180    -0.1414450
  C       -1.4416830     0.3069060    -0.0388060
  C       -0.1053508     0.8523519    -0.1619791
  C        2.3683100     0.6434780     0.2543940
  C        1.0541080    -1.2200940    -0.6155900
  C        3.4881200    -0.2081800     0.2578510
  C       -1.6559060    -0.7921710     0.8065690
  C       -2.5248970     0.8906690    -0.7109620
  C        2.1811870    -2.0318670    -0.6465910
  C        3.4033030    -1.5159070    -0.2032770
  C       -2.9440810    -1.3050920     0.9648860
  C       -3.8044560     0.3593180    -0.5664320
  C       -4.0170070    -0.7392060     0.2722830
  H        0.1024420    -1.6051810    -0.9713120
  H        4.4463530     0.1894450     0.5890330
  H       -0.8230280    -1.2242950     1.3551890
  H       -2.3449380     1.7597130    -1.3385060
  H        2.1152040    -3.0473210    -1.0273030
  H        4.2948280    -2.1392510    -0.2075020
  H       -3.1109310    -2.1478130     1.6315680
  H       -4.6398270     0.8046650    -1.1014830
  H       -5.0175780    -1.1483650     0.3907290
  H        1.7883890     2.5757360     0.3792320
  H        3.4241960     2.3021350     0.7487690
units angstrom
no_reorient  #important for SAPT in psi4, default
symmetry c1  #important for SAPT in psi4, default
}

set PROPERTIES_ORIGIN ["COM"]
properties('MP2/aug-cc-pvtz', properties = ['dipole'])
--------------------------------------------------------------------------

    Molecular point group: c1
  Charge       = 0
  Multiplicity = 1
  Basis Set: AUG-CC-PVTZ
    Blend: AUG-CC-PVTZ
  Basis Set: (AUG-CC-PVTZ AUX)
    Blend: AUG-CC-PVTZ-JKFIT

    Orbital Energies [Eh]
    ---------------------

    Doubly Occupied:

       1A    -20.525070     2A    -15.562190     3A    -11.341780
       4A    -11.304884     5A    -11.259254     6A    -11.257746
       7A    -11.255104     8A    -11.254645     9A    -11.252187
      10A    -11.251032    11A    -11.247181    12A    -11.246163
      13A    -11.242507    14A    -11.236420    15A    -11.231998
      16A     -1.312197    17A     -1.227915    18A     -1.167306
      19A     -1.142763    20A     -1.066524    21A     -1.029988
      22A     -1.025664    23A     -1.001130    24A     -0.902899
      25A     -0.853832    26A     -0.841338    27A     -0.825222
      28A     -0.772359    29A     -0.721416    30A     -0.703843
      31A     -0.688616    32A     -0.672308    33A     -0.644059
      34A     -0.633353    35A     -0.614276    36A     -0.612188
      37A     -0.605314    38A     -0.598892    39A     -0.571623
      40A     -0.550841    41A     -0.530860    42A     -0.525063
      43A     -0.520722    44A     -0.509473    45A     -0.501127
      46A     -0.469680    47A     -0.454677    48A     -0.422223
      49A     -0.354133    50A     -0.346804    51A     -0.344687
      52A     -0.303995

  @DF-RHF Final Energy:  -628.20209588209559

   => Energetics <=

    Nuclear Repulsion Energy =            893.3640897150544333
    One-Electron Energy =               -2626.0574300256689639
    Two-Electron Energy =                1104.4912444285189395
    Total Energy =                       -628.2020958820955912
  Basis Set: (AUG-CC-PVTZ AUX)
    Blend: AUG-CC-PVTZ-RI
    Molecular point group: c1

    Geometry (in Angstrom), charge = 0, multiplicity = 1:

       Center              X                  Y                   Z               Mass
    ------------   -----------------  -----------------  -----------------  -----------------
         O           -0.040321808248     2.173366482469    -0.305819518955    15.994914619570
         N            2.482024191752     1.920631482469     0.751626481045    14.003074004430
         C            1.117512191752     0.091761482469    -0.139866518955    12.000000000000
         C           -1.440250808248     0.294449482469    -0.037227518955    12.000000000000
         C           -0.103918608248     0.839895382469    -0.160400618955    12.000000000000
         C            2.369742191752     0.631021482469     0.255972481045    12.000000000000
         C            1.055540191752    -1.232550517531    -0.614011518955    12.000000000000
         C            3.489552191752    -0.220636517531     0.259429481045    12.000000000000
         C           -1.654473808248    -0.804627517531     0.808147481045    12.000000000000
         C           -2.523464808248     0.878212482469    -0.709383518955    12.000000000000
         C            2.182619191752    -2.044323517531    -0.645012518955    12.000000000000
         C            3.404735191752    -1.528363517531    -0.201698518955    12.000000000000
         C           -2.942648808248    -1.317548517531     0.966464481045    12.000000000000
         C           -3.803023808248     0.346861482469    -0.564853518955    12.000000000000
         C           -4.015574808248    -0.751662517531     0.273861481045    12.000000000000
         H            0.103874191752    -1.617637517531    -0.969733518955     1.007825032230
         H            4.447785191752     0.176988482469     0.590611481045     1.007825032230
         H           -0.821595808248    -1.236751517531     1.356767481045     1.007825032230
         H           -2.343505808248     1.747256482469    -1.336927518955     1.007825032230
         H            2.116636191752    -3.059777517531    -1.025724518955     1.007825032230
         H            4.296260191752    -2.151707517531    -0.205923518955     1.007825032230
         H           -3.109498808248    -2.160269517531     1.633146481045     1.007825032230
         H           -4.638394808248     0.792208482469    -1.099904518955     1.007825032230
         H           -5.016145808248    -1.160821517531     0.392307481045     1.007825032230
         H            1.789821191752     2.563279482469     0.380810481045     1.007825032230
         H            3.425628191752     2.289678482469     0.750347481045     1.007825032230

  Basis Set: AUG-CC-PVTZ
    Blend: AUG-CC-PVTZ
  Basis Set: (AUG-CC-PVTZ AUX)
    Blend: AUG-CC-PVTZ-JKFIT
	 Reference Energy          =    -628.2020958820955912 [Eh]
	 Singles Energy            =      -0.0000000000000000 [Eh]
	 Same-Spin Energy          =      -0.6950664956392103 [Eh]
	 Opposite-Spin Energy      =      -2.1163129315548961 [Eh]
	 Correlation Energy        =      -2.8113794271941064 [Eh]
	 Total Energy              =    -631.0134753092896744 [Eh]

	 ================> DF-SCS-MP2 Energies <==================
	-----------------------------------------------------------
	 SCS Same-Spin Scale       =       0.3333333333333333 [-]
	 SCS Opposite-Spin Scale   =       1.2000000000000000 [-]
	 SCS Same-Spin Energy      =      -0.2316888318797368 [Eh]
	 SCS Opposite-Spin Energy  =      -2.5395755178658752 [Eh]
	 SCS Correlation Energy    =      -2.7712643497456120 [Eh]
	 SCS Total Energy          =    -630.9733602318411840 [Eh]
	-----------------------------------------------------------

  Dipole Moment: [D]
     X:     0.4358      Y:    -2.0386      Z:    -0.0403     Total:     2.0851

*** Psi4 exiting successfully. Buy a developer a beer!
