                               Psi4 1.4a3.dev225

  ==> Input File <==

--------------------------------------------------------------------------
#psi4
#
memory 32 gb

molecule  {
0 1
  O       -0.0417540     2.1858230    -0.3073980
  N        2.4805920     1.9330880     0.7500480
  C        1.1160800     0.1042180    -0.1414450
  C       -1.4416830     0.3069060    -0.0388060
  C       -0.1006150     0.9516510    -0.1728080
  C        2.3506693     0.6358812     0.2488177
  C        1.0541080    -1.2200940    -0.6155900
  C        3.4881200    -0.2081800     0.2578510
  C       -1.6559060    -0.7921710     0.8065690
  C       -2.5248970     0.8906690    -0.7109620
  C        2.1811870    -2.0318670    -0.6465910
  C        3.4033030    -1.5159070    -0.2032770
  C       -2.9440810    -1.3050920     0.9648860
  C       -3.8044560     0.3593180    -0.5664320
  C       -4.0170070    -0.7392060     0.2722830
  H        0.1024420    -1.6051810    -0.9713120
  H        4.4463530     0.1894450     0.5890330
  H       -0.8230280    -1.2242950     1.3551890
  H       -2.3449380     1.7597130    -1.3385060
  H        2.1152040    -3.0473210    -1.0273030
  H        4.2948280    -2.1392510    -0.2075020
  H       -3.1109310    -2.1478130     1.6315680
  H       -4.6398270     0.8046650    -1.1014830
  H       -5.0175780    -1.1483650     0.3907290
  H        1.7883890     2.5757360     0.3792320
  H        3.4241960     2.3021350     0.7487690
units angstrom
no_reorient  #important for SAPT in psi4, default
symmetry c1  #important for SAPT in psi4, default
}

set PROPERTIES_ORIGIN ["COM"]
properties('MP2/aug-cc-pvtz', properties = ['dipole'])
--------------------------------------------------------------------------

    Molecular point group: c1
  Charge       = 0
  Multiplicity = 1
  Basis Set: AUG-CC-PVTZ
    Blend: AUG-CC-PVTZ
  Basis Set: (AUG-CC-PVTZ AUX)
    Blend: AUG-CC-PVTZ-JKFIT

    Orbital Energies [Eh]
    ---------------------

    Doubly Occupied:

       1A    -20.542085     2A    -15.560538     3A    -11.341972
       4A    -11.298214     5A    -11.254121     6A    -11.254001
       7A    -11.252904     8A    -11.251704     9A    -11.250445
      10A    -11.248352    11A    -11.246074    12A    -11.244635
      13A    -11.239866    14A    -11.235230    15A    -11.230466
      16A     -1.374824    17A     -1.225098    18A     -1.164607
      19A     -1.138621    20A     -1.058085    21A     -1.026866
      22A     -1.021844    23A     -0.997866    24A     -0.893472
      25A     -0.849975    26A     -0.839570    27A     -0.820170
      28A     -0.770489    29A     -0.718812    30A     -0.701502
      31A     -0.686703    32A     -0.669586    33A     -0.648041
      34A     -0.634991    35A     -0.617370    36A     -0.611595
      37A     -0.603431    38A     -0.597423    39A     -0.587705
      40A     -0.555000    41A     -0.534529    42A     -0.526963
      43A     -0.519538    44A     -0.511599    45A     -0.502538
      46A     -0.490905    47A     -0.452501    48A     -0.422316
      49A     -0.352441    50A     -0.346699    51A     -0.344814
      52A     -0.303217

  @DF-RHF Final Energy:  -628.22567505725374

   => Energetics <=

    Nuclear Repulsion Energy =            893.4241729892490866
    One-Electron Energy =               -2626.1550657945135754
    Two-Electron Energy =                1104.5052177480106366
    Total Energy =                       -628.2256750572537385
  Basis Set: (AUG-CC-PVTZ AUX)
    Blend: AUG-CC-PVTZ-RI
    Molecular point group: c1

    Geometry (in Angstrom), charge = 0, multiplicity = 1:

       Center              X                  Y                   Z               Mass
    ------------   -----------------  -----------------  -----------------  -----------------
         O           -0.039536058264     2.167782938179    -0.304820643672    15.994914619570
         N            2.482809941736     1.915047938179     0.752625356328    14.003074004430
         C            1.118297941736     0.086177938179    -0.138867643672    12.000000000000
         C           -1.439465058264     0.288865938179    -0.036228643672    12.000000000000
         C           -0.098397058264     0.933610938179    -0.170230643672    12.000000000000
         C            2.352887241736     0.617841138179     0.251395056328    12.000000000000
         C            1.056325941736    -1.238134061821    -0.613012643672    12.000000000000
         C            3.490337941736    -0.226220061821     0.260428356328    12.000000000000
         C           -1.653688058264    -0.810211061821     0.809146356328    12.000000000000
         C           -2.522679058264     0.872628938179    -0.708384643672    12.000000000000
         C            2.183404941736    -2.049907061821    -0.644013643672    12.000000000000
         C            3.405520941736    -1.533947061821    -0.200699643672    12.000000000000
         C           -2.941863058264    -1.323132061821     0.967463356328    12.000000000000
         C           -3.802238058264     0.341277938179    -0.563854643672    12.000000000000
         C           -4.014789058264    -0.757246061821     0.274860356328    12.000000000000
         H            0.104659941736    -1.623221061821    -0.968734643672     1.007825032230
         H            4.448570941736     0.171404938179     0.591610356328     1.007825032230
         H           -0.820810058264    -1.242335061821     1.357766356328     1.007825032230
         H           -2.342720058264     1.741672938179    -1.335928643672     1.007825032230
         H            2.117421941736    -3.065361061821    -1.024725643672     1.007825032230
         H            4.297045941736    -2.157291061821    -0.204924643672     1.007825032230
         H           -3.108713058264    -2.165853061821     1.634145356328     1.007825032230
         H           -4.637609058264     0.786624938179    -1.098905643672     1.007825032230
         H           -5.015360058264    -1.166405061821     0.393306356328     1.007825032230
         H            1.790606941736     2.557695938179     0.381809356328     1.007825032230
         H            3.426413941736     2.284094938179     0.751346356328     1.007825032230

  Basis Set: AUG-CC-PVTZ
    Blend: AUG-CC-PVTZ
  Basis Set: (AUG-CC-PVTZ AUX)
    Blend: AUG-CC-PVTZ-JKFIT
	 Reference Energy          =    -628.2256750572537385 [Eh]
	 Singles Energy            =      -0.0000000000000000 [Eh]
	 Same-Spin Energy          =      -0.6914578291985441 [Eh]
	 Opposite-Spin Energy      =      -2.1096414482361410 [Eh]
	 Correlation Energy        =      -2.8010992774346852 [Eh]
	 Total Energy              =    -631.0267743346884117 [Eh]

	 ================> DF-SCS-MP2 Energies <==================
	-----------------------------------------------------------
	 SCS Same-Spin Scale       =       0.3333333333333333 [-]
	 SCS Opposite-Spin Scale   =       1.2000000000000000 [-]
	 SCS Same-Spin Energy      =      -0.2304859430661814 [Eh]
	 SCS Opposite-Spin Energy  =      -2.5315697378833693 [Eh]
	 SCS Correlation Energy    =      -2.7620556809495507 [Eh]
	 SCS Total Energy          =    -630.9877307382032541 [Eh]
	-----------------------------------------------------------

  Dipole Moment: [D]
     X:     0.3275      Y:    -1.6894      Z:    -0.1250     Total:     1.7254

*** Psi4 exiting successfully. Buy a developer a beer!
