                               Psi4 1.3.2 release

  ==> Input File <==

--------------------------------------------------------------------------
#psi4
#
memory 32 gb

molecule  {
0 1
  O       -0.0417540     2.1858230    -0.3073980
  N        2.4805920     1.9330880     0.7500480
  C        1.1160800     0.1042180    -0.1414450
  C       -1.5373144     0.3050208    -0.0598182
  C       -0.1006150     0.9516510    -0.1728080
  C        2.3683100     0.6434780     0.2543940
  C        1.0541080    -1.2200940    -0.6155900
  C        3.4881200    -0.2081800     0.2578510
  C       -1.6559060    -0.7921710     0.8065690
  C       -2.5248970     0.8906690    -0.7109620
  C        2.1811870    -2.0318670    -0.6465910
  C        3.4033030    -1.5159070    -0.2032770
  C       -2.9440810    -1.3050920     0.9648860
  C       -3.8044560     0.3593180    -0.5664320
  C       -4.0170070    -0.7392060     0.2722830
  H        0.1024420    -1.6051810    -0.9713120
  H        4.4463530     0.1894450     0.5890330
  H       -0.8230280    -1.2242950     1.3551890
  H       -2.3449380     1.7597130    -1.3385060
  H        2.1152040    -3.0473210    -1.0273030
  H        4.2948280    -2.1392510    -0.2075020
  H       -3.1109310    -2.1478130     1.6315680
  H       -4.6398270     0.8046650    -1.1014830
  H       -5.0175780    -1.1483650     0.3907290
  H        1.7883890     2.5757360     0.3792320
  H        3.4241960     2.3021350     0.7487690
units angstrom
no_reorient  #important for SAPT in psi4, default
symmetry c1  #important for SAPT in psi4, default
}

set PROPERTIES_ORIGIN ["COM"]
properties('MP2/aug-cc-pvtz', properties = ['dipole'])
--------------------------------------------------------------------------

    Molecular point group: c1
  Charge       = 0
  Multiplicity = 1
  Basis Set: AUG-CC-PVTZ
    Blend: AUG-CC-PVTZ
  Basis Set: (AUG-CC-PVTZ AUX)
    Blend: AUG-CC-PVTZ-JKFIT

    Orbital Energies [Eh]
    ---------------------

    Doubly Occupied:

       1A    -20.543058     2A    -15.562536     3A    -11.344625
       4A    -11.299976     5A    -11.255162     6A    -11.254980
       7A    -11.248935     8A    -11.247108     9A    -11.246856
      10A    -11.244816    11A    -11.244090    12A    -11.242663
      13A    -11.235588    14A    -11.234223    15A    -11.230449
      16A     -1.373463    17A     -1.229220    18A     -1.171215
      19A     -1.139275    20A     -1.051801    21A     -1.034246
      22A     -1.019065    23A     -0.998504    24A     -0.885395
      25A     -0.846623    26A     -0.842469    27A     -0.818783
      28A     -0.770145    29A     -0.718628    30A     -0.702840
      31A     -0.689029    32A     -0.665437    33A     -0.645840
      34A     -0.636022    35A     -0.615589    36A     -0.611161
      37A     -0.606081    38A     -0.599152    39A     -0.587328
      40A     -0.554588    41A     -0.535994    42A     -0.527322
      43A     -0.518562    44A     -0.511121    45A     -0.505407
      46A     -0.493721    47A     -0.454604    48A     -0.413145
      49A     -0.353287    50A     -0.351709    51A     -0.342199
      52A     -0.302828

  @DF-RHF Final Energy:  -628.21613930773594

   => Energetics <=

    Nuclear Repulsion Energy =            892.9505197973765007
    One-Electron Energy =               -2625.2195938973613920
    Two-Electron Energy =                1104.0529347922488341
    Total Energy =                       -628.2161393077360572
  Basis Set: (AUG-CC-PVTZ AUX)
    Blend: AUG-CC-PVTZ-RI
    Molecular point group: c1

    Geometry (in Angstrom), charge = 0, multiplicity = 1:

       Center              X                  Y                   Z               Mass
    ------------   -----------------  -----------------  -----------------  -----------------
         O           -0.034787382085     2.167435171858    -0.303880786861    15.994914619570
         N            2.487558617915     1.914700171858     0.753565213139    14.003074004430
         C            1.123046617915     0.085830171858    -0.137927786861    12.000000000000
         C           -1.530347782085     0.286632971858    -0.056300986861    12.000000000000
         C           -0.093648382085     0.933263171858    -0.169290786861    12.000000000000
         C            2.375276617915     0.625090171858     0.257911213139    12.000000000000
         C            1.061074617915    -1.238481828142    -0.612072786861    12.000000000000
         C            3.495086617915    -0.226567828142     0.261368213139    12.000000000000
         C           -1.648939382085    -0.810558828142     0.810086213139    12.000000000000
         C           -2.517930382085     0.872281171858    -0.707444786861    12.000000000000
         C            2.188153617915    -2.050254828142    -0.643073786861    12.000000000000
         C            3.410269617915    -1.534294828142    -0.199759786861    12.000000000000
         C           -2.937114382085    -1.323479828142     0.968403213139    12.000000000000
         C           -3.797489382085     0.340930171858    -0.562914786861    12.000000000000
         C           -4.010040382085    -0.757593828142     0.275800213139    12.000000000000
         H            0.109408617915    -1.623568828142    -0.967794786861     1.007825032230
         H            4.453319617915     0.171057171858     0.592550213139     1.007825032230
         H           -0.816061382085    -1.242682828142     1.358706213139     1.007825032230
         H           -2.337971382085     1.741325171858    -1.334988786861     1.007825032230
         H            2.122170617915    -3.065708828142    -1.023785786861     1.007825032230
         H            4.301794617915    -2.157638828142    -0.203984786861     1.007825032230
         H           -3.103964382085    -2.166200828142     1.635085213139     1.007825032230
         H           -4.632860382085     0.786277171858    -1.097965786861     1.007825032230
         H           -5.010611382085    -1.166752828142     0.394246213139     1.007825032230
         H            1.795355617915     2.557348171858     0.382749213139     1.007825032230
         H            3.431162617915     2.283747171858     0.752286213139     1.007825032230

  Basis Set: AUG-CC-PVTZ
    Blend: AUG-CC-PVTZ
  Basis Set: (AUG-CC-PVTZ AUX)
    Blend: AUG-CC-PVTZ-JKFIT
	 Reference Energy          =    -628.2161393077359435 [Eh]
	 Singles Energy            =      -0.0000000000000000 [Eh]
	 Same-Spin Energy          =      -0.6911422319293677 [Eh]
	 Opposite-Spin Energy      =      -2.1090696023966160 [Eh]
	 Correlation Energy        =      -2.8002118343259839 [Eh]
	 Total Energy              =    -631.0163511420619216 [Eh]

	 ================> DF-SCS-MP2 Energies <==================
	-----------------------------------------------------------
	 SCS Same-Spin Scale       =       0.3333333333333333 [-]
	 SCS Opposite-Spin Scale   =       1.2000000000000000 [-]
	 SCS Same-Spin Energy      =      -0.2303807439764559 [Eh]
	 SCS Opposite-Spin Energy  =      -2.5308835228759392 [Eh]
	 SCS Correlation Energy    =      -2.7612642668523950 [Eh]
	 SCS Total Energy          =    -630.9774035745883793 [Eh]
	-----------------------------------------------------------

  Dipole Moment: [D]
     X:     0.5605      Y:    -1.5666      Z:    -0.1241     Total:     1.6685

*** Psi4 exiting successfully. Buy a developer a beer!
