                               Psi4 1.3.2 release

  ==> Input File <==

--------------------------------------------------------------------------
#psi4
#
memory 32 gb

molecule  {
0 1
  O       -0.0417540     2.1858230    -0.3073980
  N        2.4805920     1.9330880     0.7500480
  C        1.1160800     0.1042180    -0.1414450
  C       -1.4416830     0.3069060    -0.0388060
  C       -0.1511385     0.8712636    -0.2140494
  C        2.3683100     0.6434780     0.2543940
  C        1.0541080    -1.2200940    -0.6155900
  C        3.4881200    -0.2081800     0.2578510
  C       -1.6559060    -0.7921710     0.8065690
  C       -2.5248970     0.8906690    -0.7109620
  C        2.1811870    -2.0318670    -0.6465910
  C        3.4033030    -1.5159070    -0.2032770
  C       -2.9440810    -1.3050920     0.9648860
  C       -3.8044560     0.3593180    -0.5664320
  C       -4.0170070    -0.7392060     0.2722830
  H        0.1024420    -1.6051810    -0.9713120
  H        4.4463530     0.1894450     0.5890330
  H       -0.8230280    -1.2242950     1.3551890
  H       -2.3449380     1.7597130    -1.3385060
  H        2.1152040    -3.0473210    -1.0273030
  H        4.2948280    -2.1392510    -0.2075020
  H       -3.1109310    -2.1478130     1.6315680
  H       -4.6398270     0.8046650    -1.1014830
  H       -5.0175780    -1.1483650     0.3907290
  H        1.7883890     2.5757360     0.3792320
  H        3.4241960     2.3021350     0.7487690
units angstrom
no_reorient  #important for SAPT in psi4, default
symmetry c1  #important for SAPT in psi4, default
}

set PROPERTIES_ORIGIN ["COM"]
properties('MP2/aug-cc-pvtz', properties = ['dipole'])
--------------------------------------------------------------------------

    Molecular point group: c1
  Charge       = 0
  Multiplicity = 1
  Basis Set: AUG-CC-PVTZ
    Blend: AUG-CC-PVTZ
  Basis Set: (AUG-CC-PVTZ AUX)
    Blend: AUG-CC-PVTZ-JKFIT

    Orbital Energies [Eh]
    ---------------------

    Doubly Occupied:

       1A    -20.529711     2A    -15.559431     3A    -11.342802
       4A    -11.300732     5A    -11.258673     6A    -11.257477
       7A    -11.254839     8A    -11.254124     9A    -11.253266
      10A    -11.250572    11A    -11.249496    12A    -11.247843
      13A    -11.243433    14A    -11.233796    15A    -11.229068
      16A     -1.324251    17A     -1.225343    18A     -1.170657
      19A     -1.138779    20A     -1.065810    21A     -1.031854
      22A     -1.024897    23A     -0.996901    24A     -0.902670
      25A     -0.851824    26A     -0.842535    27A     -0.823092
      28A     -0.772248    29A     -0.720212    30A     -0.702448
      31A     -0.685641    32A     -0.672367    33A     -0.647342
      34A     -0.633457    35A     -0.614924    36A     -0.610306
      37A     -0.603837    38A     -0.600816    39A     -0.572923
      40A     -0.549569    41A     -0.529163    42A     -0.526835
      43A     -0.523453    44A     -0.508661    45A     -0.504183
      46A     -0.474090    47A     -0.452324    48A     -0.422921
      49A     -0.353520    50A     -0.347681    51A     -0.346800
      52A     -0.300910

  @DF-RHF Final Energy:  -628.20512839390540

   => Energetics <=

    Nuclear Repulsion Energy =            893.1667042803589993
    One-Electron Energy =               -2625.6626513284172688
    Two-Electron Energy =                1104.2908186541528721
    Total Energy =                       -628.2051283939053974
  Basis Set: (AUG-CC-PVTZ AUX)
    Blend: AUG-CC-PVTZ-RI
    Molecular point group: c1

    Geometry (in Angstrom), charge = 0, multiplicity = 1:

       Center              X                  Y                   Z               Mass
    ------------   -----------------  -----------------  -----------------  -----------------
         O           -0.037533899429     2.172214992108    -0.302649076924    15.994914619570
         N            2.484812100571     1.919479992108     0.754796923076    14.003074004430
         C            1.120300100571     0.090609992108    -0.136696076924    12.000000000000
         C           -1.437462899429     0.293297992108    -0.034057076924    12.000000000000
         C           -0.146918399429     0.857655592108    -0.209300476924    12.000000000000
         C            2.372530100571     0.629869992108     0.259142923076    12.000000000000
         C            1.058328100571    -1.233702007892    -0.610841076924    12.000000000000
         C            3.492340100571    -0.221788007892     0.262599923076    12.000000000000
         C           -1.651685899429    -0.805779007892     0.811317923076    12.000000000000
         C           -2.520676899429     0.877060992108    -0.706213076924    12.000000000000
         C            2.185407100571    -2.045475007892    -0.641842076924    12.000000000000
         C            3.407523100571    -1.529515007892    -0.198528076924    12.000000000000
         C           -2.939860899429    -1.318700007892     0.969634923076    12.000000000000
         C           -3.800235899429     0.345709992108    -0.561683076924    12.000000000000
         C           -4.012786899429    -0.752814007892     0.277031923076    12.000000000000
         H            0.106662100571    -1.618789007892    -0.966563076924     1.007825032230
         H            4.450573100571     0.175836992108     0.593781923076     1.007825032230
         H           -0.818807899429    -1.237903007892     1.359937923076     1.007825032230
         H           -2.340717899429     1.746104992108    -1.333757076924     1.007825032230
         H            2.119424100571    -3.060929007892    -1.022554076924     1.007825032230
         H            4.299048100571    -2.152859007892    -0.202753076924     1.007825032230
         H           -3.106710899429    -2.161421007892     1.636316923076     1.007825032230
         H           -4.635606899429     0.791056992108    -1.096734076924     1.007825032230
         H           -5.013357899429    -1.161973007892     0.395477923076     1.007825032230
         H            1.792609100571     2.562127992108     0.383980923076     1.007825032230
         H            3.428416100571     2.288526992108     0.753517923076     1.007825032230

  Basis Set: AUG-CC-PVTZ
    Blend: AUG-CC-PVTZ
  Basis Set: (AUG-CC-PVTZ AUX)
    Blend: AUG-CC-PVTZ-JKFIT
	 Reference Energy          =    -628.2051283939053974 [Eh]
	 Singles Energy            =      -0.0000000000000000 [Eh]
	 Same-Spin Energy          =      -0.6945233026853979 [Eh]
	 Opposite-Spin Energy      =      -2.1153274446894752 [Eh]
	 Correlation Energy        =      -2.8098507473748731 [Eh]
	 Total Energy              =    -631.0149791412802642 [Eh]

	 ================> DF-SCS-MP2 Energies <==================
	-----------------------------------------------------------
	 SCS Same-Spin Scale       =       0.3333333333333333 [-]
	 SCS Opposite-Spin Scale   =       1.2000000000000000 [-]
	 SCS Same-Spin Energy      =      -0.2315077675617993 [Eh]
	 SCS Opposite-Spin Energy  =      -2.5383929336273701 [Eh]
	 SCS Correlation Energy    =      -2.7699007011891692 [Eh]
	 SCS Total Energy          =    -630.9750290950945555 [Eh]
	-----------------------------------------------------------

  Dipole Moment: [D]
     X:     0.0123      Y:    -1.9383      Z:    -0.0580     Total:     1.9392

*** Psi4 exiting successfully. Buy a developer a beer!
