                               Psi4 1.3.2 release

  ==> Input File <==

--------------------------------------------------------------------------
#psi4
#
memory 32 gb

molecule  {
0 1
  O       -0.0417540     2.1858230    -0.3073980
  N        2.4805920     1.9330880     0.7500480
  C        1.1160800     0.1042180    -0.1414450
  C       -1.4416830     0.3069060    -0.0388060
  C       -0.2646938     1.0659325    -0.1770375
  C        2.3683100     0.6434780     0.2543940
  C        1.0541080    -1.2200940    -0.6155900
  C        3.4881200    -0.2081800     0.2578510
  C       -1.6559060    -0.7921710     0.8065690
  C       -2.5248970     0.8906690    -0.7109620
  C        2.1811870    -2.0318670    -0.6465910
  C        3.4033030    -1.5159070    -0.2032770
  C       -2.9440810    -1.3050920     0.9648860
  C       -3.8044560     0.3593180    -0.5664320
  C       -4.0170070    -0.7392060     0.2722830
  H        0.1024420    -1.6051810    -0.9713120
  H        4.4463530     0.1894450     0.5890330
  H       -0.8230280    -1.2242950     1.3551890
  H       -2.3449380     1.7597130    -1.3385060
  H        2.1152040    -3.0473210    -1.0273030
  H        4.2948280    -2.1392510    -0.2075020
  H       -3.1109310    -2.1478130     1.6315680
  H       -4.6398270     0.8046650    -1.1014830
  H       -5.0175780    -1.1483650     0.3907290
  H        1.7883890     2.5757360     0.3792320
  H        3.4241960     2.3021350     0.7487690
units angstrom
no_reorient  #important for SAPT in psi4, default
symmetry c1  #important for SAPT in psi4, default
}

set PROPERTIES_ORIGIN ["COM"]
properties('MP2/aug-cc-pvtz', properties = ['dipole'])
--------------------------------------------------------------------------

    Molecular point group: c1
  Charge       = 0
  Multiplicity = 1
  Basis Set: AUG-CC-PVTZ
    Blend: AUG-CC-PVTZ
  Basis Set: (AUG-CC-PVTZ AUX)
    Blend: AUG-CC-PVTZ-JKFIT

    Orbital Energies [Eh]
    ---------------------

    Doubly Occupied:

       1A    -20.558327     2A    -15.552513     3A    -11.343495
       4A    -11.281646     5A    -11.264857     6A    -11.261774
       7A    -11.258080     8A    -11.253958     9A    -11.251437
      10A    -11.251104    11A    -11.237909    12A    -11.236968
      13A    -11.232058    14A    -11.222417    15A    -11.218589
      16A     -1.447067    17A     -1.217212    18A     -1.177013
      19A     -1.123139    20A     -1.065395    21A     -1.035330
      22A     -1.007408    23A     -0.981092    24A     -0.898836
      25A     -0.850884    26A     -0.829819    27A     -0.808272
      28A     -0.772954    29A     -0.719013    30A     -0.699993
      31A     -0.680651    32A     -0.675046    33A     -0.668923
      34A     -0.640401    35A     -0.624882    36A     -0.612082
      37A     -0.606348    38A     -0.593340    39A     -0.582082
      40A     -0.571946    41A     -0.536502    42A     -0.533054
      43A     -0.520270    44A     -0.512586    45A     -0.510793
      46A     -0.495380    47A     -0.443615    48A     -0.395796
      49A     -0.357516    50A     -0.354624    51A     -0.334809
      52A     -0.289136

  @DF-RHF Final Energy:  -628.19474040250452

   => Energetics <=

    Nuclear Repulsion Energy =            893.0099177105066701
    One-Electron Energy =               -2625.2126351536553557
    Two-Electron Energy =                1104.0079770406441639
    Total Energy =                       -628.1947404025045216
  Basis Set: (AUG-CC-PVTZ AUX)
    Blend: AUG-CC-PVTZ-RI
    Molecular point group: c1

    Geometry (in Angstrom), charge = 0, multiplicity = 1:

       Center              X                  Y                   Z               Mass
    ------------   -----------------  -----------------  -----------------  -----------------
         O           -0.030619775717     2.160362045944    -0.304902647259    15.994914619570
         N            2.491726224283     1.907627045944     0.752543352741    14.003074004430
         C            1.127214224283     0.078757045944    -0.138949647259    12.000000000000
         C           -1.430548775717     0.281445045944    -0.036310647259    12.000000000000
         C           -0.253559575717     1.040471545944    -0.174542147259    12.000000000000
         C            2.379444224283     0.618017045944     0.256889352741    12.000000000000
         C            1.065242224283    -1.245554954056    -0.613094647259    12.000000000000
         C            3.499254224283    -0.233640954056     0.260346352741    12.000000000000
         C           -1.644771775717    -0.817631954056     0.809064352741    12.000000000000
         C           -2.513762775717     0.865208045944    -0.708466647259    12.000000000000
         C            2.192321224283    -2.057327954056    -0.644095647259    12.000000000000
         C            3.414437224283    -1.541367954056    -0.200781647259    12.000000000000
         C           -2.932946775717    -1.330552954056     0.967381352741    12.000000000000
         C           -3.793321775717     0.333857045944    -0.563936647259    12.000000000000
         C           -4.005872775717    -0.764666954056     0.274778352741    12.000000000000
         H            0.113576224283    -1.630641954056    -0.968816647259     1.007825032230
         H            4.457487224283     0.163984045944     0.591528352741     1.007825032230
         H           -0.811893775717    -1.249755954056     1.357684352741     1.007825032230
         H           -2.333803775717     1.734252045944    -1.336010647259     1.007825032230
         H            2.126338224283    -3.072781954056    -1.024807647259     1.007825032230
         H            4.305962224283    -2.164711954056    -0.205006647259     1.007825032230
         H           -3.099796775717    -2.173273954056     1.634063352741     1.007825032230
         H           -4.628692775717     0.779204045944    -1.098987647259     1.007825032230
         H           -5.006443775717    -1.173825954056     0.393224352741     1.007825032230
         H            1.799523224283     2.550275045944     0.381727352741     1.007825032230
         H            3.435330224283     2.276674045944     0.751264352741     1.007825032230

  Basis Set: AUG-CC-PVTZ
    Blend: AUG-CC-PVTZ
  Basis Set: (AUG-CC-PVTZ AUX)
    Blend: AUG-CC-PVTZ-JKFIT
	 Reference Energy          =    -628.1947404025045216 [Eh]
	 Singles Energy            =      -0.0000000000000000 [Eh]
	 Same-Spin Energy          =      -0.6904902784008340 [Eh]
	 Opposite-Spin Energy      =      -2.1071524202619556 [Eh]
	 Correlation Energy        =      -2.7976426986627896 [Eh]
	 Total Energy              =    -630.9923831011673201 [Eh]

	 ================> DF-SCS-MP2 Energies <==================
	-----------------------------------------------------------
	 SCS Same-Spin Scale       =       0.3333333333333333 [-]
	 SCS Opposite-Spin Scale   =       1.2000000000000000 [-]
	 SCS Same-Spin Energy      =      -0.2301634261336113 [Eh]
	 SCS Opposite-Spin Energy  =      -2.5285829043143466 [Eh]
	 SCS Correlation Energy    =      -2.7587463304479578 [Eh]
	 SCS Total Energy          =    -630.9534867329524559 [Eh]
	-----------------------------------------------------------

  Dipole Moment: [D]
     X:    -1.4912      Y:    -1.0075      Z:    -0.0648     Total:     1.8008

*** Psi4 exiting successfully. Buy a developer a beer!
