                               Psi4 1.3.2 release

  ==> Input File <==

--------------------------------------------------------------------------
#psi4
#
memory 32 gb

molecule  {
0 1
  O       -0.0417540     2.1858230    -0.3073980
  N        2.3849717     1.9422313     0.7384769
  C        1.1160800     0.1042180    -0.1414450
  C       -1.4416830     0.3069060    -0.0388060
  C       -0.1006150     0.9516510    -0.1728080
  C        2.3683100     0.6434780     0.2543940
  C        1.0541080    -1.2200940    -0.6155900
  C        3.4881200    -0.2081800     0.2578510
  C       -1.6559060    -0.7921710     0.8065690
  C       -2.5248970     0.8906690    -0.7109620
  C        2.1811870    -2.0318670    -0.6465910
  C        3.4033030    -1.5159070    -0.2032770
  C       -2.9440810    -1.3050920     0.9648860
  C       -3.8044560     0.3593180    -0.5664320
  C       -4.0170070    -0.7392060     0.2722830
  H        0.1024420    -1.6051810    -0.9713120
  H        4.4463530     0.1894450     0.5890330
  H       -0.8230280    -1.2242950     1.3551890
  H       -2.3449380     1.7597130    -1.3385060
  H        2.1152040    -3.0473210    -1.0273030
  H        4.2948280    -2.1392510    -0.2075020
  H       -3.1109310    -2.1478130     1.6315680
  H       -4.6398270     0.8046650    -1.1014830
  H       -5.0175780    -1.1483650     0.3907290
  H        1.7883890     2.5757360     0.3792320
  H        3.4241960     2.3021350     0.7487690
units angstrom
no_reorient  #important for SAPT in psi4, default
symmetry c1  #important for SAPT in psi4, default
}

set PROPERTIES_ORIGIN ["COM"]
properties('MP2/aug-cc-pvtz', properties = ['dipole'])
--------------------------------------------------------------------------

    Molecular point group: c1
  Charge       = 0
  Multiplicity = 1
  Basis Set: AUG-CC-PVTZ
    Blend: AUG-CC-PVTZ
  Basis Set: (AUG-CC-PVTZ AUX)
    Blend: AUG-CC-PVTZ-JKFIT

    Orbital Energies [Eh]
    ---------------------

    Doubly Occupied:

       1A    -20.540425     2A    -15.563971     3A    -11.340588
       4A    -11.299630     5A    -11.255936     6A    -11.253963
       7A    -11.252215     8A    -11.251111     9A    -11.249820
      10A    -11.247689    11A    -11.245524    12A    -11.244094
      13A    -11.239793    14A    -11.236239    15A    -11.230540
      16A     -1.373743    17A     -1.229443    18A     -1.164029
      19A     -1.139254    20A     -1.057470    21A     -1.026202
      22A     -1.020987    23A     -0.999416    24A     -0.893737
      25A     -0.848954    26A     -0.838460    27A     -0.821369
      28A     -0.772596    29A     -0.718209    30A     -0.704910
      31A     -0.689790    32A     -0.665932    33A     -0.646804
      34A     -0.636056    35A     -0.615252    36A     -0.607989
      37A     -0.606689    38A     -0.596927    39A     -0.582010
      40A     -0.555527    41A     -0.537265    42A     -0.526328
      43A     -0.519613    44A     -0.507062    45A     -0.501959
      46A     -0.489966    47A     -0.455324    48A     -0.421868
      49A     -0.352267    50A     -0.345890    51A     -0.344230
      52A     -0.303579

  @DF-RHF Final Energy:  -628.21216837866723

   => Energetics <=

    Nuclear Repulsion Energy =            894.1952858920615199
    One-Electron Energy =               -2627.6776210686689410
    Two-Electron Energy =                1105.2701667979401918
    Total Energy =                       -628.2121683786672293
  Basis Set: (AUG-CC-PVTZ AUX)
    Blend: AUG-CC-PVTZ-RI
    Molecular point group: c1

    Geometry (in Angstrom), charge = 0, multiplicity = 1:

       Center              X                  Y                   Z               Mass
    ------------   -----------------  -----------------  -----------------  -----------------
         O           -0.033816216109     2.166670743200    -0.304338030478    15.994914619570
         N            2.392909483891     1.923079043200     0.741536869522    14.003074004430
         C            1.124017783891     0.085065743200    -0.138385030478    12.000000000000
         C           -1.433745216109     0.287753743200    -0.035746030478    12.000000000000
         C           -0.092677216109     0.932498743200    -0.169748030478    12.000000000000
         C            2.376247783891     0.624325743200     0.257453969522    12.000000000000
         C            1.062045783891    -1.239246256800    -0.612530030478    12.000000000000
         C            3.496057783891    -0.227332256800     0.260910969522    12.000000000000
         C           -1.647968216109    -0.811323256800     0.809628969522    12.000000000000
         C           -2.516959216109     0.871516743200    -0.707902030478    12.000000000000
         C            2.189124783891    -2.051019256800    -0.643531030478    12.000000000000
         C            3.411240783891    -1.535059256800    -0.200217030478    12.000000000000
         C           -2.936143216109    -1.324244256800     0.967945969522    12.000000000000
         C           -3.796518216109     0.340165743200    -0.563372030478    12.000000000000
         C           -4.009069216109    -0.758358256800     0.275342969522    12.000000000000
         H            0.110379783891    -1.624333256800    -0.968252030478     1.007825032230
         H            4.454290783891     0.170292743200     0.592092969522     1.007825032230
         H           -0.815090216109    -1.243447256800     1.358248969522     1.007825032230
         H           -2.337000216109     1.740560743200    -1.335446030478     1.007825032230
         H            2.123141783891    -3.066473256800    -1.024243030478     1.007825032230
         H            4.302765783891    -2.158403256800    -0.204442030478     1.007825032230
         H           -3.102993216109    -2.166965256800     1.634627969522     1.007825032230
         H           -4.631889216109     0.785512743200    -1.098423030478     1.007825032230
         H           -5.009640216109    -1.167517256800     0.393788969522     1.007825032230
         H            1.796326783891     2.556583743200     0.382291969522     1.007825032230
         H            3.432133783891     2.282982743200     0.751828969522     1.007825032230

  Basis Set: AUG-CC-PVTZ
    Blend: AUG-CC-PVTZ
  Basis Set: (AUG-CC-PVTZ AUX)
    Blend: AUG-CC-PVTZ-JKFIT
	 Reference Energy          =    -628.2121683786672293 [Eh]
	 Singles Energy            =      -0.0000000000000000 [Eh]
	 Same-Spin Energy          =      -0.6918415834813659 [Eh]
	 Opposite-Spin Energy      =      -2.1105640343982115 [Eh]
	 Correlation Energy        =      -2.8024056178795775 [Eh]
	 Total Energy              =    -631.0145739965468010 [Eh]

	 ================> DF-SCS-MP2 Energies <==================
	-----------------------------------------------------------
	 SCS Same-Spin Scale       =       0.3333333333333333 [-]
	 SCS Opposite-Spin Scale   =       1.2000000000000000 [-]
	 SCS Same-Spin Energy      =      -0.2306138611604553 [Eh]
	 SCS Opposite-Spin Energy  =      -2.5326768412778535 [Eh]
	 SCS Correlation Energy    =      -2.7632907024383089 [Eh]
	 SCS Total Energy          =    -630.9754590811055550 [Eh]
	-----------------------------------------------------------

  Dipole Moment: [D]
     X:     0.4516      Y:    -1.6813      Z:    -0.1140     Total:     1.7446

*** Psi4 exiting successfully. Buy a developer a beer!
