                               Psi4 1.3.2 release

  ==> Input File <==

--------------------------------------------------------------------------
#psi4
#
memory 32 gb

molecule  {
0 1
  O       -0.0417540     2.1858230    -0.3073980
  N        2.4805920     1.9330880     0.7500480
  C        1.1160800     0.1042180    -0.1414450
  C       -1.4416830     0.3069060    -0.0388060
  C       -0.1006150     0.9516510    -0.1728080
  C        2.3683100     0.6434780     0.2543940
  C        1.0541080    -1.2200940    -0.6155900
  C        3.4881200    -0.2081800     0.2578510
  C       -1.6798156    -0.7912419     0.8013634
  C       -2.5248970     0.8906690    -0.7109620
  C        2.1811870    -2.0318670    -0.6465910
  C        3.4033030    -1.5159070    -0.2032770
  C       -2.9440810    -1.3050920     0.9648860
  C       -3.8044560     0.3593180    -0.5664320
  C       -4.0170070    -0.7392060     0.2722830
  H        0.1024420    -1.6051810    -0.9713120
  H        4.4463530     0.1894450     0.5890330
  H       -0.8230280    -1.2242950     1.3551890
  H       -2.3449380     1.7597130    -1.3385060
  H        2.1152040    -3.0473210    -1.0273030
  H        4.2948280    -2.1392510    -0.2075020
  H       -3.1109310    -2.1478130     1.6315680
  H       -4.6398270     0.8046650    -1.1014830
  H       -5.0175780    -1.1483650     0.3907290
  H        1.7883890     2.5757360     0.3792320
  H        3.4241960     2.3021350     0.7487690
units angstrom
no_reorient  #important for SAPT in psi4, default
symmetry c1  #important for SAPT in psi4, default
}

set PROPERTIES_ORIGIN ["COM"]
properties('MP2/aug-cc-pvtz', properties = ['dipole'])
--------------------------------------------------------------------------

    Molecular point group: c1
  Charge       = 0
  Multiplicity = 1
  Basis Set: AUG-CC-PVTZ
    Blend: AUG-CC-PVTZ
  Basis Set: (AUG-CC-PVTZ AUX)
    Blend: AUG-CC-PVTZ-JKFIT

    Orbital Energies [Eh]
    ---------------------

    Doubly Occupied:

       1A    -20.541840     2A    -15.561939     3A    -11.342180
       4A    -11.299019     5A    -11.254487     6A    -11.254245
       7A    -11.251773     8A    -11.251638     9A    -11.249742
      10A    -11.248161    11A    -11.243995    12A    -11.243318
      13A    -11.241175    14A    -11.233546    15A    -11.229814
      16A     -1.374625    17A     -1.228573    18A     -1.166226
      19A     -1.138666    20A     -1.057153    21A     -1.028587
      22A     -1.021054    23A     -0.997768    24A     -0.893897
      25A     -0.849515    26A     -0.837150    27A     -0.820318
      28A     -0.771323    29A     -0.717984    30A     -0.702147
      31A     -0.688670    32A     -0.670478    33A     -0.646763
      34A     -0.635019    35A     -0.616214    36A     -0.610411
      37A     -0.604763    38A     -0.596559    39A     -0.587687
      40A     -0.554872    41A     -0.535875    42A     -0.527459
      43A     -0.520587    44A     -0.510051    45A     -0.499301
      46A     -0.491225    47A     -0.453964    48A     -0.422691
      49A     -0.352314    50A     -0.346779    51A     -0.345316
      52A     -0.302079

  @DF-RHF Final Energy:  -628.22553435250506

   => Energetics <=

    Nuclear Repulsion Energy =            893.3150572870052883
    One-Electron Energy =               -2625.9393069595134875
    Two-Electron Energy =                1104.3987153200030207
    Total Energy =                       -628.2255343525050648
  Basis Set: (AUG-CC-PVTZ AUX)
    Blend: AUG-CC-PVTZ-RI
    Molecular point group: c1

    Geometry (in Angstrom), charge = 0, multiplicity = 1:

       Center              X                  Y                   Z               Mass
    ------------   -----------------  -----------------  -----------------  -----------------
         O           -0.039154359214     2.167263815537    -0.304843214752    15.994914619570
         N            2.483191640786     1.914528815537     0.752602785248    14.003074004430
         C            1.118679640786     0.085658815537    -0.138890214752    12.000000000000
         C           -1.439083359214     0.288346815537    -0.036251214752    12.000000000000
         C           -0.098015359214     0.933091815537    -0.170253214752    12.000000000000
         C            2.370909640786     0.624918815537     0.256948785248    12.000000000000
         C            1.056707640786    -1.238653184463    -0.613035214752    12.000000000000
         C            3.490719640786    -0.226739184463     0.260405785248    12.000000000000
         C           -1.677215959214    -0.809801084463     0.803918185248    12.000000000000
         C           -2.522297359214     0.872109815537    -0.708407214752    12.000000000000
         C            2.183786640786    -2.050426184463    -0.644036214752    12.000000000000
         C            3.405902640786    -1.534466184463    -0.200722214752    12.000000000000
         C           -2.941481359214    -1.323651184463     0.967440785248    12.000000000000
         C           -3.801856359214     0.340758815537    -0.563877214752    12.000000000000
         C           -4.014407359214    -0.757765184463     0.274837785248    12.000000000000
         H            0.105041640786    -1.623740184463    -0.968757214752     1.007825032230
         H            4.448952640786     0.170885815537     0.591587785248     1.007825032230
         H           -0.820428359214    -1.242854184463     1.357743785248     1.007825032230
         H           -2.342338359214     1.741153815537    -1.335951214752     1.007825032230
         H            2.117803640786    -3.065880184463    -1.024748214752     1.007825032230
         H            4.297427640786    -2.157810184463    -0.204947214752     1.007825032230
         H           -3.108331359214    -2.166372184463     1.634122785248     1.007825032230
         H           -4.637227359214     0.786105815537    -1.098928214752     1.007825032230
         H           -5.014978359214    -1.166924184463     0.393283785248     1.007825032230
         H            1.790988640786     2.557176815537     0.381786785248     1.007825032230
         H            3.426795640786     2.283575815537     0.751323785248     1.007825032230

  Basis Set: AUG-CC-PVTZ
    Blend: AUG-CC-PVTZ
  Basis Set: (AUG-CC-PVTZ AUX)
    Blend: AUG-CC-PVTZ-JKFIT
	 Reference Energy          =    -628.2255343525050648 [Eh]
	 Singles Energy            =      -0.0000000000000000 [Eh]
	 Same-Spin Energy          =      -0.6915575263701208 [Eh]
	 Opposite-Spin Energy      =      -2.1094963296651290 [Eh]
	 Correlation Energy        =      -2.8010538560352498 [Eh]
	 Total Energy              =    -631.0265882085402609 [Eh]

	 ================> DF-SCS-MP2 Energies <==================
	-----------------------------------------------------------
	 SCS Same-Spin Scale       =       0.3333333333333333 [-]
	 SCS Opposite-Spin Scale   =       1.2000000000000000 [-]
	 SCS Same-Spin Energy      =      -0.2305191754567069 [Eh]
	 SCS Opposite-Spin Energy  =      -2.5313955955981546 [Eh]
	 SCS Correlation Energy    =      -2.7619147710548617 [Eh]
	 SCS Total Energy          =    -630.9874491235599407 [Eh]
	-----------------------------------------------------------

  Dipole Moment: [D]
     X:     0.3558      Y:    -1.6316      Z:    -0.1062     Total:     1.6733

*** Psi4 exiting successfully. Buy a developer a beer!
