                               Psi4 1.3.2 release

  ==> Input File <==

--------------------------------------------------------------------------
#psi4
#
memory 32 gb

molecule  {
0 1
  O       -0.0417540     2.1858230    -0.3073980
  N        2.4805920     1.9330880     0.7500480
  C        1.1160800     0.1042180    -0.1414450
  C       -1.4416830     0.3069060    -0.0388060
  C       -0.0138003     1.0643740    -0.1107224
  C        2.3683100     0.6434780     0.2543940
  C        1.0541080    -1.2200940    -0.6155900
  C        3.4881200    -0.2081800     0.2578510
  C       -1.6559060    -0.7921710     0.8065690
  C       -2.5248970     0.8906690    -0.7109620
  C        2.1811870    -2.0318670    -0.6465910
  C        3.4033030    -1.5159070    -0.2032770
  C       -2.9440810    -1.3050920     0.9648860
  C       -3.8044560     0.3593180    -0.5664320
  C       -4.0170070    -0.7392060     0.2722830
  H        0.1024420    -1.6051810    -0.9713120
  H        4.4463530     0.1894450     0.5890330
  H       -0.8230280    -1.2242950     1.3551890
  H       -2.3449380     1.7597130    -1.3385060
  H        2.1152040    -3.0473210    -1.0273030
  H        4.2948280    -2.1392510    -0.2075020
  H       -3.1109310    -2.1478130     1.6315680
  H       -4.6398270     0.8046650    -1.1014830
  H       -5.0175780    -1.1483650     0.3907290
  H        1.7883890     2.5757360     0.3792320
  H        3.4241960     2.3021350     0.7487690
units angstrom
no_reorient  #important for SAPT in psi4, default
symmetry c1  #important for SAPT in psi4, default
}

set PROPERTIES_ORIGIN ["COM"]
properties('MP2/aug-cc-pvtz', properties = ['dipole'])
--------------------------------------------------------------------------

    Molecular point group: c1
  Charge       = 0
  Multiplicity = 1
  Basis Set: AUG-CC-PVTZ
    Blend: AUG-CC-PVTZ
  Basis Set: (AUG-CC-PVTZ AUX)
    Blend: AUG-CC-PVTZ-JKFIT

    Orbital Energies [Eh]
    ---------------------

    Doubly Occupied:

       1A    -20.558064     2A    -15.566950     3A    -11.340968
       4A    -11.297689     5A    -11.256899     6A    -11.255011
       7A    -11.243473     8A    -11.242342     9A    -11.241780
      10A    -11.241244    11A    -11.239447    12A    -11.239179
      13A    -11.238162    14A    -11.234121    15A    -11.231804
      16A     -1.454903    17A     -1.234297    18A     -1.154045
      19A     -1.139241    20A     -1.049439    21A     -1.017314
      22A     -1.013256    23A     -1.000163    24A     -0.884900
      25A     -0.844529    26A     -0.830809    27A     -0.815796
      28A     -0.768833    29A     -0.719475    30A     -0.704564
      31A     -0.693385    32A     -0.681940    33A     -0.651709
      34A     -0.630981    35A     -0.619618    36A     -0.614091
      37A     -0.607551    38A     -0.598577    39A     -0.592098
      40A     -0.577564    41A     -0.542367    42A     -0.531528
      43A     -0.519512    44A     -0.511212    45A     -0.498856
      46A     -0.495048    47A     -0.457322    48A     -0.401401
      49A     -0.353177    50A     -0.339437    51A     -0.337852
      52A     -0.304704

  @DF-RHF Final Energy:  -628.20884733808577

   => Energetics <=

    Nuclear Repulsion Energy =            893.4179644120056309
    One-Electron Energy =               -2626.0163734450084121
    Two-Electron Energy =                1104.3895616949171199
    Total Energy =                       -628.2088473380856612
  Basis Set: (AUG-CC-PVTZ AUX)
    Blend: AUG-CC-PVTZ-RI
    Molecular point group: c1

    Geometry (in Angstrom), charge = 0, multiplicity = 1:

       Center              X                  Y                   Z               Mass
    ------------   -----------------  -----------------  -----------------  -----------------
         O           -0.045896109781     2.160456939462    -0.308940422733    15.994914619570
         N            2.476449890219     1.907721939462     0.748505577267    14.003074004430
         C            1.111937890219     0.078851939462    -0.142987422733    12.000000000000
         C           -1.445825109781     0.281539939462    -0.040348422733    12.000000000000
         C           -0.017942409781     1.039007939462    -0.112264822733    12.000000000000
         C            2.364167890219     0.618111939462     0.252851577267    12.000000000000
         C            1.049965890219    -1.245460060538    -0.617132422733    12.000000000000
         C            3.483977890219    -0.233546060538     0.256308577267    12.000000000000
         C           -1.660048109781    -0.817537060538     0.805026577267    12.000000000000
         C           -2.529039109781     0.865302939462    -0.712504422733    12.000000000000
         C            2.177044890219    -2.057233060538    -0.648133422733    12.000000000000
         C            3.399160890219    -1.541273060538    -0.204819422733    12.000000000000
         C           -2.948223109781    -1.330458060538     0.963343577267    12.000000000000
         C           -3.808598109781     0.333951939462    -0.567974422733    12.000000000000
         C           -4.021149109781    -0.764572060538     0.270740577267    12.000000000000
         H            0.098299890219    -1.630547060538    -0.972854422733     1.007825032230
         H            4.442210890219     0.164078939462     0.587490577267     1.007825032230
         H           -0.827170109781    -1.249661060538     1.353646577267     1.007825032230
         H           -2.349080109781     1.734346939462    -1.340048422733     1.007825032230
         H            2.111061890219    -3.072687060538    -1.028845422733     1.007825032230
         H            4.290685890219    -2.164617060538    -0.209044422733     1.007825032230
         H           -3.115073109781    -2.173179060538     1.630025577267     1.007825032230
         H           -4.643969109781     0.779298939462    -1.103025422733     1.007825032230
         H           -5.021720109781    -1.173731060538     0.389186577267     1.007825032230
         H            1.784246890219     2.550369939462     0.377689577267     1.007825032230
         H            3.420053890219     2.276768939462     0.747226577267     1.007825032230

  Basis Set: AUG-CC-PVTZ
    Blend: AUG-CC-PVTZ
  Basis Set: (AUG-CC-PVTZ AUX)
    Blend: AUG-CC-PVTZ-JKFIT
	 Reference Energy          =    -628.2088473380857749 [Eh]
	 Singles Energy            =      -0.0000000000000000 [Eh]
	 Same-Spin Energy          =      -0.6892037839887468 [Eh]
	 Opposite-Spin Energy      =      -2.1048703604373817 [Eh]
	 Correlation Energy        =      -2.7940741444261286 [Eh]
	 Total Energy              =    -631.0029214825118515 [Eh]

	 ================> DF-SCS-MP2 Energies <==================
	-----------------------------------------------------------
	 SCS Same-Spin Scale       =       0.3333333333333333 [-]
	 SCS Opposite-Spin Scale   =       1.2000000000000000 [-]
	 SCS Same-Spin Energy      =      -0.2297345946629156 [Eh]
	 SCS Opposite-Spin Energy  =      -2.5258444325248579 [Eh]
	 SCS Correlation Energy    =      -2.7555790271877734 [Eh]
	 SCS Total Energy          =    -630.9644263652735390 [Eh]
	-----------------------------------------------------------

  Dipole Moment: [D]
     X:     1.0788      Y:    -1.0803      Z:    -0.1603     Total:     1.5352

*** Psi4 exiting successfully. Buy a developer a beer!
