                               Psi4 1.4a3.dev225

  ==> Input File <==

--------------------------------------------------------------------------
#psi4
#
memory 32 gb

molecule  {
0 1
  O       -0.0417540     2.1858230    -0.3073980
  N        2.4805920     1.9330880     0.7500480
  C        1.1160800     0.1042180    -0.1414450
  C       -1.4416830     0.3069060    -0.0388060
  C       -0.1015622     0.9317912    -0.1706422
  C        2.3683100     0.6434780     0.2543940
  C        1.0541080    -1.2200940    -0.6155900
  C        3.4881200    -0.2081800     0.2578510
  C       -1.6559060    -0.7921710     0.8065690
  C       -2.5248970     0.8906690    -0.7109620
  C        2.1811870    -2.0318670    -0.6465910
  C        3.4033030    -1.5159070    -0.2032770
  C       -2.9440810    -1.3050920     0.9648860
  C       -3.8044560     0.3593180    -0.5664320
  C       -4.0170070    -0.7392060     0.2722830
  H        0.1024420    -1.6051810    -0.9713120
  H        4.4463530     0.1894450     0.5890330
  H       -0.8230280    -1.2242950     1.3551890
  H       -2.3449380     1.7597130    -1.3385060
  H        2.1152040    -3.0473210    -1.0273030
  H        4.2948280    -2.1392510    -0.2075020
  H       -3.1109310    -2.1478130     1.6315680
  H       -4.6398270     0.8046650    -1.1014830
  H       -5.0175780    -1.1483650     0.3907290
  H        1.7883890     2.5757360     0.3792320
  H        3.4241960     2.3021350     0.7487690
units angstrom
no_reorient  #important for SAPT in psi4, default
symmetry c1  #important for SAPT in psi4, default
}

set PROPERTIES_ORIGIN ["COM"]
properties('MP2/aug-cc-pvtz', properties = ['dipole'])
--------------------------------------------------------------------------

    Molecular point group: c1
  Charge       = 0
  Multiplicity = 1
  Basis Set: AUG-CC-PVTZ
    Blend: AUG-CC-PVTZ
  Basis Set: (AUG-CC-PVTZ AUX)
    Blend: AUG-CC-PVTZ-JKFIT

    Orbital Energies [Eh]
    ---------------------

    Doubly Occupied:

       1A    -20.538408     2A    -15.561915     3A    -11.341773
       4A    -11.300161     5A    -11.255416     6A    -11.254915
       7A    -11.253152     8A    -11.252137     9A    -11.250624
      10A    -11.248778    11A    -11.246146    12A    -11.244804
      13A    -11.241475    14A    -11.234128    15A    -11.230268
      16A     -1.360743    17A     -1.228523    18A     -1.165055
      19A     -1.139388    20A     -1.059383    21A     -1.027102
      22A     -1.022134    23A     -0.998457    24A     -0.895413
      25A     -0.850142    26A     -0.839407    27A     -0.821047
      28A     -0.770876    29A     -0.718679    30A     -0.702525
      31A     -0.688577    32A     -0.670416    33A     -0.646135
      34A     -0.634347    35A     -0.615355    36A     -0.611036
      37A     -0.604831    38A     -0.597557    39A     -0.585234
      40A     -0.553469    41A     -0.534586    42A     -0.526271
      43A     -0.519745    44A     -0.509525    45A     -0.502433
      46A     -0.487129    47A     -0.454212    48A     -0.423208
      49A     -0.352525    50A     -0.346456    51A     -0.344837
      52A     -0.302481

  @DF-RHF Final Energy:  -628.22327468581659

   => Energetics <=

    Nuclear Repulsion Energy =            893.2201932279953098
    One-Electron Energy =               -2625.7602632232237738
    Two-Electron Energy =                1104.3167953094118729
    Total Energy =                       -628.2232746858164774
  Basis Set: (AUG-CC-PVTZ AUX)
    Blend: AUG-CC-PVTZ-RI
    Molecular point group: c1

    Geometry (in Angstrom), charge = 0, multiplicity = 1:

       Center              X                  Y                   Z               Mass
    ------------   -----------------  -----------------  -----------------  -----------------
         O           -0.040552487477     2.168529604333    -0.305292042517    15.994914619570
         N            2.481793512523     1.915794604333     0.752153957483    14.003074004430
         C            1.117281512523     0.086924604333    -0.139339042517    12.000000000000
         C           -1.440481487477     0.289612604333    -0.036700042517    12.000000000000
         C           -0.100360687477     0.914497804333    -0.168536242517    12.000000000000
         C            2.369511512523     0.626184604333     0.256499957483    12.000000000000
         C            1.055309512523    -1.237387395667    -0.613484042517    12.000000000000
         C            3.489321512523    -0.225473395667     0.259956957483    12.000000000000
         C           -1.654704487477    -0.809464395667     0.808674957483    12.000000000000
         C           -2.523695487477     0.873375604333    -0.708856042517    12.000000000000
         C            2.182388512523    -2.049160395667    -0.644485042517    12.000000000000
         C            3.404504512523    -1.533200395667    -0.201171042517    12.000000000000
         C           -2.942879487477    -1.322385395667     0.966991957483    12.000000000000
         C           -3.803254487477     0.342024604333    -0.564326042517    12.000000000000
         C           -4.015805487477    -0.756499395667     0.274388957483    12.000000000000
         H            0.103643512523    -1.622474395667    -0.969206042517     1.007825032230
         H            4.447554512523     0.172151604333     0.591138957483     1.007825032230
         H           -0.821826487477    -1.241588395667     1.357294957483     1.007825032230
         H           -2.343736487477     1.742419604333    -1.336400042517     1.007825032230
         H            2.116405512523    -3.064614395667    -1.025197042517     1.007825032230
         H            4.296029512523    -2.156544395667    -0.205396042517     1.007825032230
         H           -3.109729487477    -2.165106395667     1.633673957483     1.007825032230
         H           -4.638625487477     0.787371604333    -1.099377042517     1.007825032230
         H           -5.016376487477    -1.165658395667     0.392834957483     1.007825032230
         H            1.789590512523     2.558442604333     0.381337957483     1.007825032230
         H            3.425397512523     2.284841604333     0.750874957483     1.007825032230

  Basis Set: AUG-CC-PVTZ
    Blend: AUG-CC-PVTZ
  Basis Set: (AUG-CC-PVTZ AUX)
    Blend: AUG-CC-PVTZ-JKFIT
	 Reference Energy          =    -628.2232746858165910 [Eh]
	 Singles Energy            =      -0.0000000000000000 [Eh]
	 Same-Spin Energy          =      -0.6922031041049018 [Eh]
	 Opposite-Spin Energy      =      -2.1108490041933350 [Eh]
	 Correlation Energy        =      -2.8030521082982367 [Eh]
	 Total Energy              =    -631.0263267941148797 [Eh]

	 ================> DF-SCS-MP2 Energies <==================
	-----------------------------------------------------------
	 SCS Same-Spin Scale       =       0.3333333333333333 [-]
	 SCS Opposite-Spin Scale   =       1.2000000000000000 [-]
	 SCS Same-Spin Energy      =      -0.2307343680349673 [Eh]
	 SCS Opposite-Spin Energy  =      -2.5330188050320017 [Eh]
	 SCS Correlation Energy    =      -2.7637531730669691 [Eh]
	 SCS Total Energy          =    -630.9870278588836072 [Eh]
	-----------------------------------------------------------

  Dipole Moment: [D]
     X:     0.3653      Y:    -1.7266      Z:    -0.0886     Total:     1.7670

*** Psi4 exiting successfully. Buy a developer a beer!
