                               Psi4 1.3.2 release

  ==> Input File <==

--------------------------------------------------------------------------
#psi4
#
memory 32 gb

molecule  {
0 1
  O       -0.0417540     2.1858230    -0.3073980
  N        2.4805920     1.9330880     0.7500480
  C        1.1160800     0.1042180    -0.1414450
  C       -1.4416830     0.3069060    -0.0388060
  C       -0.1006150     0.9516510    -0.1728080
  C        2.3764104     0.7365143     0.2901520
  C        1.0541080    -1.2200940    -0.6155900
  C        3.4881200    -0.2081800     0.2578510
  C       -1.6559060    -0.7921710     0.8065690
  C       -2.5248970     0.8906690    -0.7109620
  C        2.1811870    -2.0318670    -0.6465910
  C        3.4033030    -1.5159070    -0.2032770
  C       -2.9440810    -1.3050920     0.9648860
  C       -3.8044560     0.3593180    -0.5664320
  C       -4.0170070    -0.7392060     0.2722830
  H        0.1024420    -1.6051810    -0.9713120
  H        4.4463530     0.1894450     0.5890330
  H       -0.8230280    -1.2242950     1.3551890
  H       -2.3449380     1.7597130    -1.3385060
  H        2.1152040    -3.0473210    -1.0273030
  H        4.2948280    -2.1392510    -0.2075020
  H       -3.1109310    -2.1478130     1.6315680
  H       -4.6398270     0.8046650    -1.1014830
  H       -5.0175780    -1.1483650     0.3907290
  H        1.7883890     2.5757360     0.3792320
  H        3.4241960     2.3021350     0.7487690
units angstrom
no_reorient  #important for SAPT in psi4, default
symmetry c1  #important for SAPT in psi4, default
}

set PROPERTIES_ORIGIN ["COM"]
properties('MP2/aug-cc-pvtz', properties = ['dipole'])
--------------------------------------------------------------------------

    Molecular point group: c1
  Charge       = 0
  Multiplicity = 1
  Basis Set: AUG-CC-PVTZ
    Blend: AUG-CC-PVTZ
  Basis Set: (AUG-CC-PVTZ AUX)
    Blend: AUG-CC-PVTZ-JKFIT

    Orbital Energies [Eh]
    ---------------------

    Doubly Occupied:

       1A    -20.537940     2A    -15.578285     3A    -11.337081
       4A    -11.308988     5A    -11.252598     6A    -11.252150
       7A    -11.250328     8A    -11.249629     9A    -11.247546
      10A    -11.245942    11A    -11.244017    12A    -11.242673
      13A    -11.239823    14A    -11.233536    15A    -11.222648
      16A     -1.372311    17A     -1.272982    18A     -1.162228
      19A     -1.134239    20A     -1.052832    21A     -1.024101
      22A     -1.016051    23A     -0.989077    24A     -0.888586
      25A     -0.845933    26A     -0.836851    27A     -0.822513
      28A     -0.769718    29A     -0.722216    30A     -0.711598
      31A     -0.704268    32A     -0.674598    33A     -0.645419
      34A     -0.635736    35A     -0.614226    36A     -0.611949
      37A     -0.596255    38A     -0.594234    39A     -0.585263
      40A     -0.560376    41A     -0.535588    42A     -0.528692
      43A     -0.518093    44A     -0.501119    45A     -0.499128
      46A     -0.492013    47A     -0.462919    48A     -0.415921
      49A     -0.349283    50A     -0.344458    51A     -0.342524
      52A     -0.289122

  @DF-RHF Final Energy:  -628.21156030529676

   => Energetics <=

    Nuclear Repulsion Energy =            892.7332459175520398
    One-Electron Energy =               -2624.7584049106208113
    Two-Electron Energy =                1103.8135986877719006
    Total Energy =                       -628.2115603052968709
  Basis Set: (AUG-CC-PVTZ AUX)
    Blend: AUG-CC-PVTZ-RI
    Molecular point group: c1

    Geometry (in Angstrom), charge = 0, multiplicity = 1:

       Center              X                  Y                   Z               Mass
    ------------   -----------------  -----------------  -----------------  -----------------
         O           -0.041103375245     2.161655617808    -0.307337395103    15.994914619570
         N            2.481242624755     1.908920617808     0.750108604897    14.003074004430
         C            1.116730624755     0.080050617808    -0.141384395103    12.000000000000
         C           -1.441032375245     0.282738617808    -0.038745395103    12.000000000000
         C           -0.099964375245     0.927483617808    -0.172747395103    12.000000000000
         C            2.377061024755     0.712346917808     0.290212604897    12.000000000000
         C            1.054758624755    -1.244261382192    -0.615529395103    12.000000000000
         C            3.488770624755    -0.232347382192     0.257911604897    12.000000000000
         C           -1.655255375245    -0.816338382192     0.806629604897    12.000000000000
         C           -2.524246375245     0.866501617808    -0.710901395103    12.000000000000
         C            2.181837624755    -2.056034382192    -0.646530395103    12.000000000000
         C            3.403953624755    -1.540074382192    -0.203216395103    12.000000000000
         C           -2.943430375245    -1.329259382192     0.964946604897    12.000000000000
         C           -3.803805375245     0.335150617808    -0.566371395103    12.000000000000
         C           -4.016356375245    -0.763373382192     0.272343604897    12.000000000000
         H            0.103092624755    -1.629348382192    -0.971251395103     1.007825032230
         H            4.447003624755     0.165277617808     0.589093604897     1.007825032230
         H           -0.822377375245    -1.248462382192     1.355249604897     1.007825032230
         H           -2.344287375245     1.735545617808    -1.338445395103     1.007825032230
         H            2.115854624755    -3.071488382192    -1.027242395103     1.007825032230
         H            4.295478624755    -2.163418382192    -0.207441395103     1.007825032230
         H           -3.110280375245    -2.171980382192     1.631628604897     1.007825032230
         H           -4.639176375245     0.780497617808    -1.101422395103     1.007825032230
         H           -5.016927375245    -1.172532382192     0.390789604897     1.007825032230
         H            1.789039624755     2.551568617808     0.379292604897     1.007825032230
         H            3.424846624755     2.277967617808     0.748829604897     1.007825032230

  Basis Set: AUG-CC-PVTZ
    Blend: AUG-CC-PVTZ
  Basis Set: (AUG-CC-PVTZ AUX)
    Blend: AUG-CC-PVTZ-JKFIT
	 Reference Energy          =    -628.2115603052967572 [Eh]
	 Singles Energy            =      -0.0000000000000000 [Eh]
	 Same-Spin Energy          =      -0.6921143965781258 [Eh]
	 Opposite-Spin Energy      =      -2.1097825210615850 [Eh]
	 Correlation Energy        =      -2.8018969176397110 [Eh]
	 Total Energy              =    -631.0134572229364949 [Eh]

	 ================> DF-SCS-MP2 Energies <==================
	-----------------------------------------------------------
	 SCS Same-Spin Scale       =       0.3333333333333333 [-]
	 SCS Opposite-Spin Scale   =       1.2000000000000000 [-]
	 SCS Same-Spin Energy      =      -0.2307047988593753 [Eh]
	 SCS Opposite-Spin Energy  =      -2.5317390252739020 [Eh]
	 SCS Correlation Energy    =      -2.7624438241332774 [Eh]
	 SCS Total Energy          =    -630.9740041294299999 [Eh]
	-----------------------------------------------------------

  Dipole Moment: [D]
     X:     0.6129      Y:    -0.9867      Z:     0.1696     Total:     1.1739

*** Psi4 exiting successfully. Buy a developer a beer!
