                               Psi4 1.3.2 release

  ==> Input File <==

--------------------------------------------------------------------------
#psi4
#
memory 32 gb

molecule  {
0 1
  O       -0.0417540     2.1858230    -0.3073980
  N        2.4805920     1.9330880     0.7500480
  C        1.1160800     0.1042180    -0.1414450
  C       -1.4416830     0.3069060    -0.0388060
  C       -0.1006150     0.9516510    -0.1728080
  C        2.3683100     0.6434780     0.2543940
  C        1.0541080    -1.2200940    -0.6155900
  C        3.4881200    -0.2081800     0.2578510
  C       -1.7981307    -0.7815882     0.7715310
  C       -2.5248970     0.8906690    -0.7109620
  C        2.1811870    -2.0318670    -0.6465910
  C        3.4033030    -1.5159070    -0.2032770
  C       -2.9440810    -1.3050920     0.9648860
  C       -3.8044560     0.3593180    -0.5664320
  C       -4.0170070    -0.7392060     0.2722830
  H        0.1024420    -1.6051810    -0.9713120
  H        4.4463530     0.1894450     0.5890330
  H       -0.8230280    -1.2242950     1.3551890
  H       -2.3449380     1.7597130    -1.3385060
  H        2.1152040    -3.0473210    -1.0273030
  H        4.2948280    -2.1392510    -0.2075020
  H       -3.1109310    -2.1478130     1.6315680
  H       -4.6398270     0.8046650    -1.1014830
  H       -5.0175780    -1.1483650     0.3907290
  H        1.7883890     2.5757360     0.3792320
  H        3.4241960     2.3021350     0.7487690
units angstrom
no_reorient  #important for SAPT in psi4, default
symmetry c1  #important for SAPT in psi4, default
}

set PROPERTIES_ORIGIN ["COM"]
properties('MP2/aug-cc-pvtz', properties = ['dipole'])
--------------------------------------------------------------------------

    Molecular point group: c1
  Charge       = 0
  Multiplicity = 1
  Basis Set: AUG-CC-PVTZ
    Blend: AUG-CC-PVTZ
  Basis Set: (AUG-CC-PVTZ AUX)
    Blend: AUG-CC-PVTZ-JKFIT

    Orbital Energies [Eh]
    ---------------------

    Doubly Occupied:

       1A    -20.543353     2A    -15.561945     3A    -11.345346
       4A    -11.298885     5A    -11.254282     6A    -11.254241
       7A    -11.253152     8A    -11.249900     9A    -11.248681
      10A    -11.247545    11A    -11.242267    12A    -11.241142
      13A    -11.233263    14A    -11.230680    15A    -11.229492
      16A     -1.375904    17A     -1.228521    18A     -1.178555
      19A     -1.138852    20A     -1.057371    21A     -1.040155
      22A     -1.019855    23A     -0.997550    24A     -0.896557
      25A     -0.851476    26A     -0.829718    27A     -0.821125
      28A     -0.776110    29A     -0.717835    30A     -0.701998
      31A     -0.688713    32A     -0.673083    33A     -0.646310
      34A     -0.636988    35A     -0.620418    36A     -0.609370
      37A     -0.604558    38A     -0.588962    39A     -0.586057
      40A     -0.554099    41A     -0.536463    42A     -0.531147
      43A     -0.526310    44A     -0.511483    45A     -0.497119
      46A     -0.471661    47A     -0.452619    48A     -0.425435
      49A     -0.360899    50A     -0.349667    51A     -0.342626
      52A     -0.301858

  @DF-RHF Final Energy:  -628.19802250037435

   => Energetics <=

    Nuclear Repulsion Energy =            894.0526960444618680
    One-Electron Energy =               -2627.3382321845833758
    Two-Electron Energy =                1105.0875136397471579
    Total Energy =                       -628.1980225003744636
  Basis Set: (AUG-CC-PVTZ AUX)
    Blend: AUG-CC-PVTZ-RI
    Molecular point group: c1

    Geometry (in Angstrom), charge = 0, multiplicity = 1:

       Center              X                  Y                   Z               Mass
    ------------   -----------------  -----------------  -----------------  -----------------
         O           -0.031950422116     2.166676023721    -0.303026787828    15.994914619570
         N            2.490395577884     1.913941023721     0.754419212172    14.003074004430
         C            1.125883577884     0.085071023721    -0.137073787828    12.000000000000
         C           -1.431879422116     0.287759023721    -0.034434787828    12.000000000000
         C           -0.090811422116     0.932504023721    -0.168436787828    12.000000000000
         C            2.378113577884     0.624331023721     0.258765212172    12.000000000000
         C            1.063911577884    -1.239240976279    -0.611218787828    12.000000000000
         C            3.497923577884    -0.227326976279     0.262222212172    12.000000000000
         C           -1.788327122116    -0.800735176279     0.775902212172    12.000000000000
         C           -2.515093422116     0.871522023721    -0.706590787828    12.000000000000
         C            2.190990577884    -2.051013976279    -0.642219787828    12.000000000000
         C            3.413106577884    -1.535053976279    -0.198905787828    12.000000000000
         C           -2.934277422116    -1.324238976279     0.969257212172    12.000000000000
         C           -3.794652422116     0.340171023721    -0.562060787828    12.000000000000
         C           -4.007203422116    -0.758352976279     0.276654212172    12.000000000000
         H            0.112245577884    -1.624327976279    -0.966940787828     1.007825032230
         H            4.456156577884     0.170298023721     0.593404212172     1.007825032230
         H           -0.813224422116    -1.243441976279     1.359560212172     1.007825032230
         H           -2.335134422116     1.740566023721    -1.334134787828     1.007825032230
         H            2.125007577884    -3.066467976279    -1.022931787828     1.007825032230
         H            4.304631577884    -2.158397976279    -0.203130787828     1.007825032230
         H           -3.101127422116    -2.166959976279     1.635939212172     1.007825032230
         H           -4.630023422116     0.785518023721    -1.097111787828     1.007825032230
         H           -5.007774422116    -1.167511976279     0.395100212172     1.007825032230
         H            1.798192577884     2.556589023721     0.383603212172     1.007825032230
         H            3.433999577884     2.282988023721     0.753140212172     1.007825032230

  Basis Set: AUG-CC-PVTZ
    Blend: AUG-CC-PVTZ
  Basis Set: (AUG-CC-PVTZ AUX)
    Blend: AUG-CC-PVTZ-JKFIT
	 Reference Energy          =    -628.1980225003743499 [Eh]
	 Singles Energy            =      -0.0000000000000000 [Eh]
	 Same-Spin Energy          =      -0.6918954645287430 [Eh]
	 Opposite-Spin Energy      =      -2.1103185514697000 [Eh]
	 Correlation Energy        =      -2.8022140159984428 [Eh]
	 Total Energy              =    -631.0002365163727518 [Eh]

	 ================> DF-SCS-MP2 Energies <==================
	-----------------------------------------------------------
	 SCS Same-Spin Scale       =       0.3333333333333333 [-]
	 SCS Opposite-Spin Scale   =       1.2000000000000000 [-]
	 SCS Same-Spin Energy      =      -0.2306318215095810 [Eh]
	 SCS Opposite-Spin Energy  =      -2.5323822617636398 [Eh]
	 SCS Correlation Energy    =      -2.7630140832732208 [Eh]
	 SCS Total Energy          =    -630.9610365836475694 [Eh]
	-----------------------------------------------------------

  Dipole Moment: [D]
     X:     0.3411      Y:    -1.5941      Z:    -0.1520     Total:     1.6373

*** Psi4 exiting successfully. Buy a developer a beer!
