                               Psi4 1.3.2 release

  ==> Input File <==

--------------------------------------------------------------------------
#psi4
#
memory 32 gb

molecule  {
0 1
  O       -0.0417540     2.1858230    -0.3073980
  N        2.4805920     1.9330880     0.7500480
  C        1.1381492     0.0604100    -0.1484782
  C       -1.4416830     0.3069060    -0.0388060
  C       -0.1006150     0.9516510    -0.1728080
  C        2.3683100     0.6434780     0.2543940
  C        1.0541080    -1.2200940    -0.6155900
  C        3.4881200    -0.2081800     0.2578510
  C       -1.6559060    -0.7921710     0.8065690
  C       -2.5248970     0.8906690    -0.7109620
  C        2.1811870    -2.0318670    -0.6465910
  C        3.4033030    -1.5159070    -0.2032770
  C       -2.9440810    -1.3050920     0.9648860
  C       -3.8044560     0.3593180    -0.5664320
  C       -4.0170070    -0.7392060     0.2722830
  H        0.1024420    -1.6051810    -0.9713120
  H        4.4463530     0.1894450     0.5890330
  H       -0.8230280    -1.2242950     1.3551890
  H       -2.3449380     1.7597130    -1.3385060
  H        2.1152040    -3.0473210    -1.0273030
  H        4.2948280    -2.1392510    -0.2075020
  H       -3.1109310    -2.1478130     1.6315680
  H       -4.6398270     0.8046650    -1.1014830
  H       -5.0175780    -1.1483650     0.3907290
  H        1.7883890     2.5757360     0.3792320
  H        3.4241960     2.3021350     0.7487690
units angstrom
no_reorient  #important for SAPT in psi4, default
symmetry c1  #important for SAPT in psi4, default
}

set PROPERTIES_ORIGIN ["COM"]
properties('MP2/aug-cc-pvtz', properties = ['dipole'])
--------------------------------------------------------------------------

    Molecular point group: c1
  Charge       = 0
  Multiplicity = 1
  Basis Set: AUG-CC-PVTZ
    Blend: AUG-CC-PVTZ
  Basis Set: (AUG-CC-PVTZ AUX)
    Blend: AUG-CC-PVTZ-JKFIT

    Orbital Energies [Eh]
    ---------------------

    Doubly Occupied:

       1A    -20.545371     2A    -15.562311     3A    -11.345472
       4A    -11.297014     5A    -11.253243     6A    -11.252064
       7A    -11.251367     8A    -11.250669     9A    -11.248766
      10A    -11.248320    11A    -11.246378    12A    -11.244972
      13A    -11.241637    14A    -11.231767    15A    -11.228315
      16A     -1.375872    17A     -1.228225    18A     -1.165058
      19A     -1.142057    20A     -1.056341    21A     -1.027346
      22A     -1.022501    23A     -0.996550    24A     -0.890334
      25A     -0.846776    26A     -0.839458    27A     -0.822040
      28A     -0.770588    29A     -0.717706    30A     -0.702107
      31A     -0.689488    32A     -0.668582    33A     -0.648418
      34A     -0.634430    35A     -0.615756    36A     -0.609978
      37A     -0.605355    38A     -0.597912    39A     -0.590807
      40A     -0.554829    41A     -0.534911    42A     -0.527902
      43A     -0.519737    44A     -0.510386    45A     -0.502782
      46A     -0.492639    47A     -0.455400    48A     -0.418956
      49A     -0.354917    50A     -0.347196    51A     -0.345361
      52A     -0.300002

  @DF-RHF Final Energy:  -628.22361150751340

   => Energetics <=

    Nuclear Repulsion Energy =            893.1589788477197089
    One-Electron Energy =               -2625.6124435881415593
    Two-Electron Energy =                1104.2298532329084537
    Total Energy =                       -628.2236115075133966
  Basis Set: (AUG-CC-PVTZ AUX)
    Blend: AUG-CC-PVTZ-RI
    Molecular point group: c1

    Geometry (in Angstrom), charge = 0, multiplicity = 1:

       Center              X                  Y                   Z               Mass
    ------------   -----------------  -----------------  -----------------  -----------------
         O           -0.041953903677     2.169987755714    -0.304731936348    15.994914619570
         N            2.480392096323     1.917252755714     0.752714063652    14.003074004430
         C            1.137949296323     0.044574755714    -0.145812136348    12.000000000000
         C           -1.441882903677     0.291070755714    -0.036139936348    12.000000000000
         C           -0.100814903677     0.935815755714    -0.170141936348    12.000000000000
         C            2.368110096323     0.627642755714     0.257060063652    12.000000000000
         C            1.053908096323    -1.235929244286    -0.612923936348    12.000000000000
         C            3.487920096323    -0.224015244286     0.260517063652    12.000000000000
         C           -1.656105903677    -0.808006244286     0.809235063652    12.000000000000
         C           -2.525096903677     0.874833755714    -0.708295936348    12.000000000000
         C            2.180987096323    -2.047702244286    -0.643924936348    12.000000000000
         C            3.403103096323    -1.531742244286    -0.200610936348    12.000000000000
         C           -2.944280903677    -1.320927244286     0.967552063652    12.000000000000
         C           -3.804655903677     0.343482755714    -0.563765936348    12.000000000000
         C           -4.017206903677    -0.755041244286     0.274949063652    12.000000000000
         H            0.102242096323    -1.621016244286    -0.968645936348     1.007825032230
         H            4.446153096323     0.173609755714     0.591699063652     1.007825032230
         H           -0.823227903677    -1.240130244286     1.357855063652     1.007825032230
         H           -2.345137903677     1.743877755714    -1.335839936348     1.007825032230
         H            2.115004096323    -3.063156244286    -1.024636936348     1.007825032230
         H            4.294628096323    -2.155086244286    -0.204835936348     1.007825032230
         H           -3.111130903677    -2.163648244286     1.634234063652     1.007825032230
         H           -4.640026903677     0.788829755714    -1.098816936348     1.007825032230
         H           -5.017777903677    -1.164200244286     0.393395063652     1.007825032230
         H            1.788189096323     2.559900755714     0.381898063652     1.007825032230
         H            3.423996096323     2.286299755714     0.751435063652     1.007825032230

  Basis Set: AUG-CC-PVTZ
    Blend: AUG-CC-PVTZ
  Basis Set: (AUG-CC-PVTZ AUX)
    Blend: AUG-CC-PVTZ-JKFIT
	 Reference Energy          =    -628.2236115075133966 [Eh]
	 Singles Energy            =      -0.0000000000000000 [Eh]
	 Same-Spin Energy          =      -0.6914512338299595 [Eh]
	 Opposite-Spin Energy      =      -2.1093772295508115 [Eh]
	 Correlation Energy        =      -2.8008284633807712 [Eh]
	 Total Energy              =    -631.0244399708941501 [Eh]

	 ================> DF-SCS-MP2 Energies <==================
	-----------------------------------------------------------
	 SCS Same-Spin Scale       =       0.3333333333333333 [-]
	 SCS Opposite-Spin Scale   =       1.2000000000000000 [-]
	 SCS Same-Spin Energy      =      -0.2304837446099865 [Eh]
	 SCS Opposite-Spin Energy  =      -2.5312526754609737 [Eh]
	 SCS Correlation Energy    =      -2.7617364200709602 [Eh]
	 SCS Total Energy          =    -630.9853479275843711 [Eh]
	-----------------------------------------------------------

  Dipole Moment: [D]
     X:     0.1861      Y:    -1.5463      Z:    -0.1114     Total:     1.5615

*** Psi4 exiting successfully. Buy a developer a beer!
