                               Psi4 1.4a3.dev225

  ==> Input File <==

--------------------------------------------------------------------------
#psi4
#
memory 32 gb

molecule  {
0 1
  O       -0.0417540     2.1858230    -0.3073980
  N        2.4805920     1.9330880     0.7500480
  C        1.1160800     0.1042180    -0.1414450
  C       -1.4416830     0.3069060    -0.0388060
  C       -0.0842071     0.9402228    -0.1723851
  C        2.3683100     0.6434780     0.2543940
  C        1.0541080    -1.2200940    -0.6155900
  C        3.4881200    -0.2081800     0.2578510
  C       -1.6559060    -0.7921710     0.8065690
  C       -2.5248970     0.8906690    -0.7109620
  C        2.1811870    -2.0318670    -0.6465910
  C        3.4033030    -1.5159070    -0.2032770
  C       -2.9440810    -1.3050920     0.9648860
  C       -3.8044560     0.3593180    -0.5664320
  C       -4.0170070    -0.7392060     0.2722830
  H        0.1024420    -1.6051810    -0.9713120
  H        4.4463530     0.1894450     0.5890330
  H       -0.8230280    -1.2242950     1.3551890
  H       -2.3449380     1.7597130    -1.3385060
  H        2.1152040    -3.0473210    -1.0273030
  H        4.2948280    -2.1392510    -0.2075020
  H       -3.1109310    -2.1478130     1.6315680
  H       -4.6398270     0.8046650    -1.1014830
  H       -5.0175780    -1.1483650     0.3907290
  H        1.7883890     2.5757360     0.3792320
  H        3.4241960     2.3021350     0.7487690
units angstrom
no_reorient  #important for SAPT in psi4, default
symmetry c1  #important for SAPT in psi4, default
}

set PROPERTIES_ORIGIN ["COM"]
properties('MP2/aug-cc-pvtz', properties = ['dipole'])
--------------------------------------------------------------------------

    Molecular point group: c1
  Charge       = 0
  Multiplicity = 1
  Basis Set: AUG-CC-PVTZ
    Blend: AUG-CC-PVTZ
  Basis Set: (AUG-CC-PVTZ AUX)
    Blend: AUG-CC-PVTZ-JKFIT

    Orbital Energies [Eh]
    ---------------------

    Doubly Occupied:

       1A    -20.539620     2A    -15.562969     3A    -11.341477
       4A    -11.300864     5A    -11.256314     6A    -11.255958
       7A    -11.251581     8A    -11.250475     9A    -11.250199
      10A    -11.247252    11A    -11.245066    12A    -11.243756
      13A    -11.241085    14A    -11.234688    15A    -11.230961
      16A     -1.366821    17A     -1.229713    18A     -1.163307
      19A     -1.140195    20A     -1.058664    21A     -1.025614
      22A     -1.021408    23A     -0.999465    24A     -0.894425
      25A     -0.849931    26A     -0.838254    27A     -0.820894
      28A     -0.770684    29A     -0.718479    30A     -0.702773
      31A     -0.689679    32A     -0.670225    33A     -0.645567
      34A     -0.634076    35A     -0.615745    36A     -0.611115
      37A     -0.605395    38A     -0.596459    39A     -0.587380
      40A     -0.554704    41A     -0.535765    42A     -0.525831
      43A     -0.519141    44A     -0.509925    45A     -0.501399
      46A     -0.488939    47A     -0.455060    48A     -0.422351
      49A     -0.353051    50A     -0.345576    51A     -0.343684
      52A     -0.303370

  @DF-RHF Final Energy:  -628.22443134237710

   => Energetics <=

    Nuclear Repulsion Energy =            893.2423607048353915
    One-Electron Energy =               -2625.7989256299410954
    Two-Electron Energy =                1104.3321335827286021
    Total Energy =                       -628.2244313423771018
  Basis Set: (AUG-CC-PVTZ AUX)
    Blend: AUG-CC-PVTZ-RI
    Molecular point group: c1

    Geometry (in Angstrom), charge = 0, multiplicity = 1:

       Center              X                  Y                   Z               Mass
    ------------   -----------------  -----------------  -----------------  -----------------
         O           -0.041609200008     2.168016223403    -0.305185921303    15.994914619570
         N            2.480736799992     1.915281223403     0.752260078697    14.003074004430
         C            1.116224799992     0.086411223403    -0.139232921303    12.000000000000
         C           -1.441538200008     0.289099223403    -0.036593921303    12.000000000000
         C           -0.084062300008     0.922416023403    -0.170173021303    12.000000000000
         C            2.368454799992     0.625671223403     0.256606078697    12.000000000000
         C            1.054252799992    -1.237900776597    -0.613377921303    12.000000000000
         C            3.488264799992    -0.225986776597     0.260063078697    12.000000000000
         C           -1.655761200008    -0.809977776597     0.808781078697    12.000000000000
         C           -2.524752200008     0.872862223403    -0.708749921303    12.000000000000
         C            2.181331799992    -2.049673776597    -0.644378921303    12.000000000000
         C            3.403447799992    -1.533713776597    -0.201064921303    12.000000000000
         C           -2.943936200008    -1.322898776597     0.967098078697    12.000000000000
         C           -3.804311200008     0.341511223403    -0.564219921303    12.000000000000
         C           -4.016862200008    -0.757012776597     0.274495078697    12.000000000000
         H            0.102586799992    -1.622987776597    -0.969099921303     1.007825032230
         H            4.446497799992     0.171638223403     0.591245078697     1.007825032230
         H           -0.822883200008    -1.242101776597     1.357401078697     1.007825032230
         H           -2.344793200008     1.741906223403    -1.336293921303     1.007825032230
         H            2.115348799992    -3.065127776597    -1.025090921303     1.007825032230
         H            4.294972799992    -2.157057776597    -0.205289921303     1.007825032230
         H           -3.110786200008    -2.165619776597     1.633780078697     1.007825032230
         H           -4.639682200008     0.786858223403    -1.099270921303     1.007825032230
         H           -5.017433200008    -1.166171776597     0.392941078697     1.007825032230
         H            1.788533799992     2.557929223403     0.381444078697     1.007825032230
         H            3.424340799992     2.284328223403     0.750981078697     1.007825032230

  Basis Set: AUG-CC-PVTZ
    Blend: AUG-CC-PVTZ
  Basis Set: (AUG-CC-PVTZ AUX)
    Blend: AUG-CC-PVTZ-JKFIT
	 Reference Energy          =    -628.2244313423771018 [Eh]
	 Singles Energy            =      -0.0000000000000000 [Eh]
	 Same-Spin Energy          =      -0.6919002004471986 [Eh]
	 Opposite-Spin Energy      =      -2.1102546655819552 [Eh]
	 Correlation Energy        =      -2.8021548660291540 [Eh]
	 Total Energy              =    -631.0265862084062292 [Eh]

	 ================> DF-SCS-MP2 Energies <==================
	-----------------------------------------------------------
	 SCS Same-Spin Scale       =       0.3333333333333333 [-]
	 SCS Opposite-Spin Scale   =       1.2000000000000000 [-]
	 SCS Same-Spin Energy      =      -0.2306334001490662 [Eh]
	 SCS Opposite-Spin Energy  =      -2.5323055986983460 [Eh]
	 SCS Correlation Energy    =      -2.7629389988474120 [Eh]
	 SCS Total Energy          =    -630.9873703412245050 [Eh]
	-----------------------------------------------------------

  Dipole Moment: [D]
     X:     0.5332      Y:    -1.6935      Z:    -0.1037     Total:     1.7784

*** Psi4 exiting successfully. Buy a developer a beer!
