                               Psi4 1.4a3.dev225

  ==> Input File <==

--------------------------------------------------------------------------
#psi4
#
memory 32 gb

molecule  {
0 1
  O       -0.0417540     2.1858230    -0.3073980
  N        2.4805920     1.9330880     0.7500480
  C        1.1160800     0.1042180    -0.1414450
  C       -1.4416830     0.3069060    -0.0388060
  C       -0.1029829     0.9020015    -0.1673936
  C        2.3683100     0.6434780     0.2543940
  C        1.0541080    -1.2200940    -0.6155900
  C        3.4881200    -0.2081800     0.2578510
  C       -1.6559060    -0.7921710     0.8065690
  C       -2.5248970     0.8906690    -0.7109620
  C        2.1811870    -2.0318670    -0.6465910
  C        3.4033030    -1.5159070    -0.2032770
  C       -2.9440810    -1.3050920     0.9648860
  C       -3.8044560     0.3593180    -0.5664320
  C       -4.0170070    -0.7392060     0.2722830
  H        0.1024420    -1.6051810    -0.9713120
  H        4.4463530     0.1894450     0.5890330
  H       -0.8230280    -1.2242950     1.3551890
  H       -2.3449380     1.7597130    -1.3385060
  H        2.1152040    -3.0473210    -1.0273030
  H        4.2948280    -2.1392510    -0.2075020
  H       -3.1109310    -2.1478130     1.6315680
  H       -4.6398270     0.8046650    -1.1014830
  H       -5.0175780    -1.1483650     0.3907290
  H        1.7883890     2.5757360     0.3792320
  H        3.4241960     2.3021350     0.7487690
units angstrom
no_reorient  #important for SAPT in psi4, default
symmetry c1  #important for SAPT in psi4, default
}

set PROPERTIES_ORIGIN ["COM"]
properties('MP2/aug-cc-pvtz', properties = ['dipole'])
--------------------------------------------------------------------------

    Molecular point group: c1
  Charge       = 0
  Multiplicity = 1
  Basis Set: AUG-CC-PVTZ
    Blend: AUG-CC-PVTZ
  Basis Set: (AUG-CC-PVTZ AUX)
    Blend: AUG-CC-PVTZ-JKFIT

    Orbital Energies [Eh]
    ---------------------

    Doubly Occupied:

       1A    -20.533582     2A    -15.561969     3A    -11.341943
       4A    -11.301904     5A    -11.256824     6A    -11.255969
       7A    -11.253919     8A    -11.253098     9A    -11.251209
      10A    -11.249729    11A    -11.246564    12A    -11.245339
      13A    -11.241899    14A    -11.234977    15A    -11.230913
      16A     -1.341392    17A     -1.228411    18A     -1.166008
      19A     -1.140632    20A     -1.062144    21A     -1.028053
      22A     -1.023593    23A     -0.999464    24A     -0.898360
      25A     -0.851473    26A     -0.840161    27A     -0.822571
      28A     -0.771448    29A     -0.719554    30A     -0.702921
      31A     -0.688538    32A     -0.670853    33A     -0.644662
      34A     -0.633911    35A     -0.614676    36A     -0.611256
      37A     -0.604962    38A     -0.598070    39A     -0.580726
      40A     -0.552164    41A     -0.532998    42A     -0.525654
      43A     -0.520002    44A     -0.509357    45A     -0.502393
      46A     -0.480681    47A     -0.454462    48A     -0.423929
      49A     -0.353190    50A     -0.346533    51A     -0.345090
      52A     -0.303057

  @DF-RHF Final Energy:  -628.21705821189744

   => Energetics <=

    Nuclear Repulsion Energy =            893.2604060593591839
    One-Electron Energy =               -2625.8485514894919106
    Two-Electron Energy =                1104.3710872182352887
    Total Energy =                       -628.2170582118974380
  Basis Set: (AUG-CC-PVTZ AUX)
    Blend: AUG-CC-PVTZ-RI
    Molecular point group: c1

    Geometry (in Angstrom), charge = 0, multiplicity = 1:

       Center              X                  Y                   Z               Mass
    ------------   -----------------  -----------------  -----------------  -----------------
         O           -0.040465984288     2.170343431351    -0.305489842375    15.994914619570
         N            2.481880015712     1.917608431351     0.751956157625    14.003074004430
         C            1.117368015712     0.088738431351    -0.139536842375    12.000000000000
         C           -1.440394984288     0.291426431351    -0.036897842375    12.000000000000
         C           -0.101694884288     0.886521931351    -0.165485442375    12.000000000000
         C            2.369598015712     0.627998431351     0.256302157625    12.000000000000
         C            1.055396015712    -1.235573568649    -0.613681842375    12.000000000000
         C            3.489408015712    -0.223659568649     0.259759157625    12.000000000000
         C           -1.654617984288    -0.807650568649     0.808477157625    12.000000000000
         C           -2.523608984288     0.875189431351    -0.709053842375    12.000000000000
         C            2.182475015712    -2.047346568649    -0.644682842375    12.000000000000
         C            3.404591015712    -1.531386568649    -0.201368842375    12.000000000000
         C           -2.942792984288    -1.320571568649     0.966794157625    12.000000000000
         C           -3.803167984288     0.343838431351    -0.564523842375    12.000000000000
         C           -4.015718984288    -0.754685568649     0.274191157625    12.000000000000
         H            0.103730015712    -1.620660568649    -0.969403842375     1.007825032230
         H            4.447641015712     0.173965431351     0.590941157625     1.007825032230
         H           -0.821739984288    -1.239774568649     1.357097157625     1.007825032230
         H           -2.343649984288     1.744233431351    -1.336597842375     1.007825032230
         H            2.116492015712    -3.062800568649    -1.025394842375     1.007825032230
         H            4.296116015712    -2.154730568649    -0.205593842375     1.007825032230
         H           -3.109642984288    -2.163292568649     1.633476157625     1.007825032230
         H           -4.638538984288     0.789185431351    -1.099574842375     1.007825032230
         H           -5.016289984288    -1.163844568649     0.392637157625     1.007825032230
         H            1.789677015712     2.560256431351     0.381140157625     1.007825032230
         H            3.425484015712     2.286655431351     0.750677157625     1.007825032230

  Basis Set: AUG-CC-PVTZ
    Blend: AUG-CC-PVTZ
  Basis Set: (AUG-CC-PVTZ AUX)
    Blend: AUG-CC-PVTZ-JKFIT
	 Reference Energy          =    -628.2170582118974380 [Eh]
	 Singles Energy            =      -0.0000000000000000 [Eh]
	 Same-Spin Energy          =      -0.6932327255762272 [Eh]
	 Opposite-Spin Energy      =      -2.1128295151015308 [Eh]
	 Correlation Energy        =      -2.8060622406777580 [Eh]
	 Total Energy              =    -631.0231204525751991 [Eh]

	 ================> DF-SCS-MP2 Energies <==================
	-----------------------------------------------------------
	 SCS Same-Spin Scale       =       0.3333333333333333 [-]
	 SCS Opposite-Spin Scale   =       1.2000000000000000 [-]
	 SCS Same-Spin Energy      =      -0.2310775751920757 [Eh]
	 SCS Opposite-Spin Energy  =      -2.5353954181218370 [Eh]
	 SCS Correlation Energy    =      -2.7664729933139127 [Eh]
	 SCS Total Energy          =    -630.9835312052113068 [Eh]
	-----------------------------------------------------------

  Dipole Moment: [D]
     X:     0.3889      Y:    -1.8527      Z:    -0.0698     Total:     1.8944

*** Psi4 exiting successfully. Buy a developer a beer!
