                               Psi4 1.3.2 release

  ==> Input File <==

--------------------------------------------------------------------------
#psi4
#
memory 32 gb

molecule  {
0 1
  O       -0.0417540     2.1858230    -0.3073980
  N        2.4805920     1.9330880     0.7500480
  C        1.1720595     0.1904711    -0.1533744
  C       -1.4416830     0.3069060    -0.0388060
  C       -0.1006150     0.9516510    -0.1728080
  C        2.3683100     0.6434780     0.2543940
  C        1.0541080    -1.2200940    -0.6155900
  C        3.4881200    -0.2081800     0.2578510
  C       -1.6559060    -0.7921710     0.8065690
  C       -2.5248970     0.8906690    -0.7109620
  C        2.1811870    -2.0318670    -0.6465910
  C        3.4033030    -1.5159070    -0.2032770
  C       -2.9440810    -1.3050920     0.9648860
  C       -3.8044560     0.3593180    -0.5664320
  C       -4.0170070    -0.7392060     0.2722830
  H        0.1024420    -1.6051810    -0.9713120
  H        4.4463530     0.1894450     0.5890330
  H       -0.8230280    -1.2242950     1.3551890
  H       -2.3449380     1.7597130    -1.3385060
  H        2.1152040    -3.0473210    -1.0273030
  H        4.2948280    -2.1392510    -0.2075020
  H       -3.1109310    -2.1478130     1.6315680
  H       -4.6398270     0.8046650    -1.1014830
  H       -5.0175780    -1.1483650     0.3907290
  H        1.7883890     2.5757360     0.3792320
  H        3.4241960     2.3021350     0.7487690
units angstrom
no_reorient  #important for SAPT in psi4, default
symmetry c1  #important for SAPT in psi4, default
}

set PROPERTIES_ORIGIN ["COM"]
properties('MP2/aug-cc-pvtz', properties = ['dipole'])
--------------------------------------------------------------------------

    Molecular point group: c1
  Charge       = 0
  Multiplicity = 1
  Basis Set: AUG-CC-PVTZ
    Blend: AUG-CC-PVTZ
  Basis Set: (AUG-CC-PVTZ AUX)
    Blend: AUG-CC-PVTZ-JKFIT

    Orbital Energies [Eh]
    ---------------------

    Doubly Occupied:

       1A    -20.538896     2A    -15.556222     3A    -11.340869
       4A    -11.288448     5A    -11.258947     6A    -11.254261
       7A    -11.254052     8A    -11.252847     9A    -11.252433
      10A    -11.249610    11A    -11.246708    12A    -11.245384
      13A    -11.238408    14A    -11.236649    15A    -11.232258
      16A     -1.373973    17A     -1.230254    18A     -1.164918
      19A     -1.133830    20A     -1.054370    21A     -1.027156
      22A     -1.020159    23A     -1.001960    24A     -0.892807
      25A     -0.855068    26A     -0.840621    27A     -0.818088
      28A     -0.768710    29A     -0.719645    30A     -0.702644
      31A     -0.682883    32A     -0.670792    33A     -0.647699
      34A     -0.637019    35A     -0.619356    36A     -0.614226
      37A     -0.603492    38A     -0.597721    39A     -0.578981
      40A     -0.557193    41A     -0.532483    42A     -0.527230
      43A     -0.521585    44A     -0.511727    45A     -0.502829
      46A     -0.489244    47A     -0.449595    48A     -0.421305
      49A     -0.349206    50A     -0.346107    51A     -0.341159
      52A     -0.309518

  @DF-RHF Final Energy:  -628.21543675762211

   => Energetics <=

    Nuclear Repulsion Energy =            893.1975067189022184
    One-Electron Energy =               -2625.7027953520391748
    Two-Electron Energy =                1104.2898518755146142
    Total Energy =                       -628.2154367576222285
  Basis Set: (AUG-CC-PVTZ AUX)
    Blend: AUG-CC-PVTZ-RI
    Molecular point group: c1

    Geometry (in Angstrom), charge = 0, multiplicity = 1:

       Center              X                  Y                   Z               Mass
    ------------   -----------------  -----------------  -----------------  -----------------
         O           -0.044018624648     2.162068631415    -0.304433817876    15.994914619570
         N            2.478327375352     1.909333631415     0.753012182124    14.003074004430
         C            1.169794875352     0.166716731415    -0.150410217876    12.000000000000
         C           -1.443947624648     0.283151631415    -0.035841817876    12.000000000000
         C           -0.102879624648     0.927896631415    -0.169843817876    12.000000000000
         C            2.366045375352     0.619723631415     0.257358182124    12.000000000000
         C            1.051843375352    -1.243848368585    -0.612625817876    12.000000000000
         C            3.485855375352    -0.231934368585     0.260815182124    12.000000000000
         C           -1.658170624648    -0.815925368585     0.809533182124    12.000000000000
         C           -2.527161624648     0.866914631415    -0.707997817876    12.000000000000
         C            2.178922375352    -2.055621368585    -0.643626817876    12.000000000000
         C            3.401038375352    -1.539661368585    -0.200312817876    12.000000000000
         C           -2.946345624648    -1.328846368585     0.967850182124    12.000000000000
         C           -3.806720624648     0.335563631415    -0.563467817876    12.000000000000
         C           -4.019271624648    -0.762960368585     0.275247182124    12.000000000000
         H            0.100177375352    -1.628935368585    -0.968347817876     1.007825032230
         H            4.444088375352     0.165690631415     0.591997182124     1.007825032230
         H           -0.825292624648    -1.248049368585     1.358153182124     1.007825032230
         H           -2.347202624648     1.735958631415    -1.335541817876     1.007825032230
         H            2.112939375352    -3.071075368585    -1.024338817876     1.007825032230
         H            4.292563375352    -2.163005368585    -0.204537817876     1.007825032230
         H           -3.113195624648    -2.171567368585     1.634532182124     1.007825032230
         H           -4.642091624648     0.780910631415    -1.098518817876     1.007825032230
         H           -5.019842624648    -1.172119368585     0.393693182124     1.007825032230
         H            1.786124375352     2.551981631415     0.382196182124     1.007825032230
         H            3.421931375352     2.278380631415     0.751733182124     1.007825032230

  Basis Set: AUG-CC-PVTZ
    Blend: AUG-CC-PVTZ
  Basis Set: (AUG-CC-PVTZ AUX)
    Blend: AUG-CC-PVTZ-JKFIT
	 Reference Energy          =    -628.2154367576221148 [Eh]
	 Singles Energy            =      -0.0000000000000000 [Eh]
	 Same-Spin Energy          =      -0.6912067432591439 [Eh]
	 Opposite-Spin Energy      =      -2.1102277464515686 [Eh]
	 Correlation Energy        =      -2.8014344897107124 [Eh]
	 Total Energy              =    -631.0168712473328014 [Eh]

	 ================> DF-SCS-MP2 Energies <==================
	-----------------------------------------------------------
	 SCS Same-Spin Scale       =       0.3333333333333333 [-]
	 SCS Opposite-Spin Scale   =       1.2000000000000000 [-]
	 SCS Same-Spin Energy      =      -0.2304022477530480 [Eh]
	 SCS Opposite-Spin Energy  =      -2.5322732957418821 [Eh]
	 SCS Correlation Energy    =      -2.7626755434949302 [Eh]
	 SCS Total Energy          =    -630.9781123011169939 [Eh]
	-----------------------------------------------------------

  Dipole Moment: [D]
     X:     0.2808      Y:    -1.7873      Z:    -0.1319     Total:     1.8141

*** Psi4 exiting successfully. Buy a developer a beer!
