                               Psi4 1.4a3.dev225

  ==> Input File <==

--------------------------------------------------------------------------
#psi4
#
memory 32 gb

molecule  {
0 1
  O       -0.0417540     2.1858230    -0.3073980
  N        2.4805920     1.9330880     0.7500480
  C        1.1160800     0.1042180    -0.1414450
  C       -1.4416830     0.3069060    -0.0388060
  C       -0.1006150     0.9516510    -0.1728080
  C        2.3859507     0.6510748     0.2599703
  C        1.0541080    -1.2200940    -0.6155900
  C        3.4881200    -0.2081800     0.2578510
  C       -1.6559060    -0.7921710     0.8065690
  C       -2.5248970     0.8906690    -0.7109620
  C        2.1811870    -2.0318670    -0.6465910
  C        3.4033030    -1.5159070    -0.2032770
  C       -2.9440810    -1.3050920     0.9648860
  C       -3.8044560     0.3593180    -0.5664320
  C       -4.0170070    -0.7392060     0.2722830
  H        0.1024420    -1.6051810    -0.9713120
  H        4.4463530     0.1894450     0.5890330
  H       -0.8230280    -1.2242950     1.3551890
  H       -2.3449380     1.7597130    -1.3385060
  H        2.1152040    -3.0473210    -1.0273030
  H        4.2948280    -2.1392510    -0.2075020
  H       -3.1109310    -2.1478130     1.6315680
  H       -4.6398270     0.8046650    -1.1014830
  H       -5.0175780    -1.1483650     0.3907290
  H        1.7883890     2.5757360     0.3792320
  H        3.4241960     2.3021350     0.7487690
units angstrom
no_reorient  #important for SAPT in psi4, default
symmetry c1  #important for SAPT in psi4, default
}

set PROPERTIES_ORIGIN ["COM"]
properties('MP2/aug-cc-pvtz', properties = ['dipole'])
--------------------------------------------------------------------------

    Molecular point group: c1
  Charge       = 0
  Multiplicity = 1
  Basis Set: AUG-CC-PVTZ
    Blend: AUG-CC-PVTZ
  Basis Set: (AUG-CC-PVTZ AUX)
    Blend: AUG-CC-PVTZ-JKFIT

    Orbital Energies [Eh]
    ---------------------

    Doubly Occupied:

       1A    -20.540990     2A    -15.563266     3A    -11.341168
       4A    -11.299727     5A    -11.254981     6A    -11.254298
       7A    -11.252333     8A    -11.251269     9A    -11.249947
      10A    -11.247870    11A    -11.245624    12A    -11.244229
      13A    -11.242348    14A    -11.231913    15A    -11.229245
      16A     -1.373931    17A     -1.232190    18A     -1.164124
      19A     -1.138465    20A     -1.056982    21A     -1.026220
      22A     -1.020533    23A     -0.997577    24A     -0.893304
      25A     -0.848743    26A     -0.838145    27A     -0.819869
      28A     -0.770466    29A     -0.717662    30A     -0.703331
      31A     -0.690600    32A     -0.671209    33A     -0.647536
      34A     -0.634281    35A     -0.614786    36A     -0.610905
      37A     -0.605223    38A     -0.596998    39A     -0.587357
      40A     -0.554837    41A     -0.536982    42A     -0.526818
      43A     -0.519785    44A     -0.507559    45A     -0.502099
      46A     -0.490934    47A     -0.455434    48A     -0.421619
      49A     -0.351761    50A     -0.346049    51A     -0.344309
      52A     -0.300949

  @DF-RHF Final Energy:  -628.22548831004804

   => Energetics <=

    Nuclear Repulsion Energy =            892.9888094592531615
    One-Electron Energy =               -2625.2910385713935284
    Two-Electron Energy =                1104.0767408020922176
    Total Energy =                       -628.2254883100481493
  Basis Set: (AUG-CC-PVTZ AUX)
    Blend: AUG-CC-PVTZ-RI
    Molecular point group: c1

    Geometry (in Angstrom), charge = 0, multiplicity = 1:

       Center              X                  Y                   Z               Mass
    ------------   -----------------  -----------------  -----------------  -----------------
         O           -0.041684262394     2.166857834463    -0.305499700098    15.994914619570
         N            2.480661737606     1.914122834463     0.751946299902    14.003074004430
         C            1.116149737606     0.085252834463    -0.139546700098    12.000000000000
         C           -1.441613262394     0.287940834463    -0.036907700098    12.000000000000
         C           -0.100545262394     0.932685834463    -0.170909700098    12.000000000000
         C            2.386020437606     0.632109634463     0.261868599902    12.000000000000
         C            1.054177737606    -1.239059165537    -0.613691700098    12.000000000000
         C            3.488189737606    -0.227145165537     0.259749299902    12.000000000000
         C           -1.655836262394    -0.811136165537     0.808467299902    12.000000000000
         C           -2.524827262394     0.871703834463    -0.709063700098    12.000000000000
         C            2.181256737606    -2.050832165537    -0.644692700098    12.000000000000
         C            3.403372737606    -1.534872165537    -0.201378700098    12.000000000000
         C           -2.944011262394    -1.324057165537     0.966784299902    12.000000000000
         C           -3.804386262394     0.340352834463    -0.564533700098    12.000000000000
         C           -4.016937262394    -0.758171165537     0.274181299902    12.000000000000
         H            0.102511737606    -1.624146165537    -0.969413700098     1.007825032230
         H            4.446422737606     0.170479834463     0.590931299902     1.007825032230
         H           -0.822958262394    -1.243260165537     1.357087299902     1.007825032230
         H           -2.344868262394     1.740747834463    -1.336607700098     1.007825032230
         H            2.115273737606    -3.066286165537    -1.025404700098     1.007825032230
         H            4.294897737606    -2.158216165537    -0.205603700098     1.007825032230
         H           -3.110861262394    -2.166778165537     1.633466299902     1.007825032230
         H           -4.639757262394     0.785699834463    -1.099584700098     1.007825032230
         H           -5.017508262394    -1.167330165537     0.392627299902     1.007825032230
         H            1.788458737606     2.556770834463     0.381130299902     1.007825032230
         H            3.424265737606     2.283169834463     0.750667299902     1.007825032230

  Basis Set: AUG-CC-PVTZ
    Blend: AUG-CC-PVTZ
  Basis Set: (AUG-CC-PVTZ AUX)
    Blend: AUG-CC-PVTZ-JKFIT
	 Reference Energy          =    -628.2254883100480356 [Eh]
	 Singles Energy            =      -0.0000000000000000 [Eh]
	 Same-Spin Energy          =      -0.6916440592890339 [Eh]
	 Opposite-Spin Energy      =      -2.1095832801478305 [Eh]
	 Correlation Energy        =      -2.8012273394368643 [Eh]
	 Total Energy              =    -631.0267156494849132 [Eh]

	 ================> DF-SCS-MP2 Energies <==================
	-----------------------------------------------------------
	 SCS Same-Spin Scale       =       0.3333333333333333 [-]
	 SCS Opposite-Spin Scale   =       1.2000000000000000 [-]
	 SCS Same-Spin Energy      =      -0.2305480197630113 [Eh]
	 SCS Opposite-Spin Energy  =      -2.5314999361773967 [Eh]
	 SCS Correlation Energy    =      -2.7620479559404081 [Eh]
	 SCS Total Energy          =    -630.9875362659884104 [Eh]
	-----------------------------------------------------------

  Dipole Moment: [D]
     X:     0.3740      Y:    -1.5830      Z:    -0.0792     Total:     1.6285

*** Psi4 exiting successfully. Buy a developer a beer!
