                               Psi4 1.3.2 release

  ==> Input File <==

--------------------------------------------------------------------------
#psi4
#
memory 32 gb

molecule  {
0 1
  O       -0.0417540     2.1858230    -0.3073980
  N        2.4805920     1.9330880     0.7500480
  C        1.1160800     0.1042180    -0.1414450
  C       -1.4416830     0.3069060    -0.0388060
  C       -0.1740993     0.8296433    -0.2345500
  C        2.3683100     0.6434780     0.2543940
  C        1.0541080    -1.2200940    -0.6155900
  C        3.4881200    -0.2081800     0.2578510
  C       -1.6559060    -0.7921710     0.8065690
  C       -2.5248970     0.8906690    -0.7109620
  C        2.1811870    -2.0318670    -0.6465910
  C        3.4033030    -1.5159070    -0.2032770
  C       -2.9440810    -1.3050920     0.9648860
  C       -3.8044560     0.3593180    -0.5664320
  C       -4.0170070    -0.7392060     0.2722830
  H        0.1024420    -1.6051810    -0.9713120
  H        4.4463530     0.1894450     0.5890330
  H       -0.8230280    -1.2242950     1.3551890
  H       -2.3449380     1.7597130    -1.3385060
  H        2.1152040    -3.0473210    -1.0273030
  H        4.2948280    -2.1392510    -0.2075020
  H       -3.1109310    -2.1478130     1.6315680
  H       -4.6398270     0.8046650    -1.1014830
  H       -5.0175780    -1.1483650     0.3907290
  H        1.7883890     2.5757360     0.3792320
  H        3.4241960     2.3021350     0.7487690
units angstrom
no_reorient  #important for SAPT in psi4, default
symmetry c1  #important for SAPT in psi4, default
}

set PROPERTIES_ORIGIN ["COM"]
properties('MP2/aug-cc-pvtz', properties = ['dipole'])
--------------------------------------------------------------------------

    Molecular point group: c1
  Charge       = 0
  Multiplicity = 1
  Basis Set: AUG-CC-PVTZ
    Blend: AUG-CC-PVTZ
  Basis Set: (AUG-CC-PVTZ AUX)
    Blend: AUG-CC-PVTZ-JKFIT

    Orbital Energies [Eh]
    ---------------------

    Doubly Occupied:

       1A    -20.523109     2A    -15.558311     3A    -11.343004
       4A    -11.301662     5A    -11.261628     6A    -11.260590
       7A    -11.257039     8A    -11.255100     9A    -11.252945
      10A    -11.251231    11A    -11.250158    12A    -11.249494
      13A    -11.244986    14A    -11.233979    15A    -11.228745
      16A     -1.301707    17A     -1.223591    18A     -1.173366
      19A     -1.138984    20A     -1.070341    21A     -1.034330
      22A     -1.026608    23A     -0.996562    24A     -0.907608
      25A     -0.853340    26A     -0.843720    27A     -0.824692
      28A     -0.773207    29A     -0.721489    30A     -0.702692
      31A     -0.684879    32A     -0.673691    33A     -0.648990
      34A     -0.632725    35A     -0.615052    36A     -0.610059
      37A     -0.604014    38A     -0.601989    39A     -0.564613
      40A     -0.548303    41A     -0.528042    42A     -0.525991
      43A     -0.525134    44A     -0.508736    45A     -0.502646
      46A     -0.465350    47A     -0.451317    48A     -0.419614
      49A     -0.354729    50A     -0.348630    51A     -0.345937
      52A     -0.300359

  @DF-RHF Final Energy:  -628.18611659083035

   => Energetics <=

    Nuclear Repulsion Energy =            893.1824786456264746
    One-Electron Energy =               -2625.6871476658047868
    Two-Electron Energy =                1104.3185524293480739
    Total Energy =                       -628.1861165908303519
  Basis Set: (AUG-CC-PVTZ AUX)
    Blend: AUG-CC-PVTZ-RI
    Molecular point group: c1

    Geometry (in Angstrom), charge = 0, multiplicity = 1:

       Center              X                  Y                   Z               Mass
    ------------   -----------------  -----------------  -----------------  -----------------
         O           -0.036135868587     2.174749157428    -0.301400842059    15.994914619570
         N            2.486210131413     1.922014157428     0.756045157941    14.003074004430
         C            1.121698131413     0.093144157428    -0.135447842059    12.000000000000
         C           -1.436064868587     0.295832157428    -0.032808842059    12.000000000000
         C           -0.168481168587     0.818569457428    -0.228552842059    12.000000000000
         C            2.373928131413     0.632404157428     0.260391157941    12.000000000000
         C            1.059726131413    -1.231167842572    -0.609592842059    12.000000000000
         C            3.493738131413    -0.219253842572     0.263848157941    12.000000000000
         C           -1.650287868587    -0.803244842572     0.812566157941    12.000000000000
         C           -2.519278868587     0.879595157428    -0.704964842059    12.000000000000
         C            2.186805131413    -2.042940842572    -0.640593842059    12.000000000000
         C            3.408921131413    -1.526980842572    -0.197279842059    12.000000000000
         C           -2.938462868587    -1.316165842572     0.970883157941    12.000000000000
         C           -3.798837868587     0.348244157428    -0.560434842059    12.000000000000
         C           -4.011388868587    -0.750279842572     0.278280157941    12.000000000000
         H            0.108060131413    -1.616254842572    -0.965314842059     1.007825032230
         H            4.451971131413     0.178371157428     0.595030157941     1.007825032230
         H           -0.817409868587    -1.235368842572     1.361186157941     1.007825032230
         H           -2.339319868587     1.748639157428    -1.332508842059     1.007825032230
         H            2.120822131413    -3.058394842572    -1.021305842059     1.007825032230
         H            4.300446131413    -2.150324842572    -0.201504842059     1.007825032230
         H           -3.105312868587    -2.158886842572     1.637565157941     1.007825032230
         H           -4.634208868587     0.793591157428    -1.095485842059     1.007825032230
         H           -5.011959868587    -1.159438842572     0.396726157941     1.007825032230
         H            1.794007131413     2.564662157428     0.385229157941     1.007825032230
         H            3.429814131413     2.291061157428     0.754766157941     1.007825032230

  Basis Set: AUG-CC-PVTZ
    Blend: AUG-CC-PVTZ
  Basis Set: (AUG-CC-PVTZ AUX)
    Blend: AUG-CC-PVTZ-JKFIT
	 Reference Energy          =    -628.1861165908303519 [Eh]
	 Singles Energy            =      -0.0000000000000000 [Eh]
	 Same-Spin Energy          =      -0.6963366385370117 [Eh]
	 Opposite-Spin Energy      =      -2.1187742234048521 [Eh]
	 Correlation Energy        =      -2.8151108619418639 [Eh]
	 Total Energy              =    -631.0012274527722411 [Eh]

	 ================> DF-SCS-MP2 Energies <==================
	-----------------------------------------------------------
	 SCS Same-Spin Scale       =       0.3333333333333333 [-]
	 SCS Opposite-Spin Scale   =       1.2000000000000000 [-]
	 SCS Same-Spin Energy      =      -0.2321122128456705 [Eh]
	 SCS Opposite-Spin Energy  =      -2.5425290680858224 [Eh]
	 SCS Correlation Energy    =      -2.7746412809314931 [Eh]
	 SCS Total Energy          =    -630.9607578717618708 [Eh]
	-----------------------------------------------------------

  Dipole Moment: [D]
     X:    -0.1185      Y:    -2.0633      Z:    -0.0340     Total:     2.0670

*** Psi4 exiting successfully. Buy a developer a beer!
