                               Psi4 1.3.2 release

  ==> Input File <==

--------------------------------------------------------------------------
#psi4
#
memory 32 gb

molecule  {
0 1
  O       -0.0417540     2.1858230    -0.3073980
  N        2.4805920     1.9330880     0.7500480
  C        1.1160800     0.1042180    -0.1414450
  C       -1.4416830     0.3069060    -0.0388060
  C       -0.1006150     0.9516510    -0.1728080
  C        2.4093569     0.5564546     0.2306931
  C        1.0541080    -1.2200940    -0.6155900
  C        3.4881200    -0.2081800     0.2578510
  C       -1.6559060    -0.7921710     0.8065690
  C       -2.5248970     0.8906690    -0.7109620
  C        2.1811870    -2.0318670    -0.6465910
  C        3.4033030    -1.5159070    -0.2032770
  C       -2.9440810    -1.3050920     0.9648860
  C       -3.8044560     0.3593180    -0.5664320
  C       -4.0170070    -0.7392060     0.2722830
  H        0.1024420    -1.6051810    -0.9713120
  H        4.4463530     0.1894450     0.5890330
  H       -0.8230280    -1.2242950     1.3551890
  H       -2.3449380     1.7597130    -1.3385060
  H        2.1152040    -3.0473210    -1.0273030
  H        4.2948280    -2.1392510    -0.2075020
  H       -3.1109310    -2.1478130     1.6315680
  H       -4.6398270     0.8046650    -1.1014830
  H       -5.0175780    -1.1483650     0.3907290
  H        1.7883890     2.5757360     0.3792320
  H        3.4241960     2.3021350     0.7487690
units angstrom
no_reorient  #important for SAPT in psi4, default
symmetry c1  #important for SAPT in psi4, default
}

set PROPERTIES_ORIGIN ["COM"]
properties('MP2/aug-cc-pvtz', properties = ['dipole'])
--------------------------------------------------------------------------

    Molecular point group: c1
  Charge       = 0
  Multiplicity = 1
  Basis Set: AUG-CC-PVTZ
    Blend: AUG-CC-PVTZ
  Basis Set: (AUG-CC-PVTZ AUX)
    Blend: AUG-CC-PVTZ-JKFIT

    Orbital Energies [Eh]
    ---------------------

    Doubly Occupied:

       1A    -20.543358     2A    -15.549241     3A    -11.345068
       4A    -11.289909     5A    -11.258098     6A    -11.256822
       7A    -11.254079     8A    -11.252687     9A    -11.252189
      10A    -11.249541    11A    -11.247004    12A    -11.246002
      13A    -11.245584    14A    -11.234813    15A    -11.227853
      16A     -1.375190    17A     -1.207604    18A     -1.165402
      19A     -1.135077    20A     -1.062076    21A     -1.029343
      22A     -1.024815    23A     -1.004837    24A     -0.898249
      25A     -0.852570    26A     -0.839645    27A     -0.818743
      28A     -0.773808    29A     -0.721170    30A     -0.696410
      31A     -0.679503    32A     -0.665849    33A     -0.649058
      34A     -0.632753    35A     -0.621774    36A     -0.612388
      37A     -0.599635    38A     -0.598517    39A     -0.587460
      40A     -0.554760    41A     -0.538747    42A     -0.527209
      43A     -0.522415    44A     -0.507612    45A     -0.503485
      46A     -0.489439    47A     -0.441464    48A     -0.425946
      49A     -0.354973    50A     -0.347445    51A     -0.345912
      52A     -0.312716

  @DF-RHF Final Energy:  -628.21357094295979

   => Energetics <=

    Nuclear Repulsion Energy =            893.3173427480583086
    One-Electron Energy =               -2625.9093334552126180
    Two-Electron Energy =                1104.3784197641944047
    Total Energy =                       -628.2135709429599046
  Basis Set: (AUG-CC-PVTZ AUX)
    Blend: AUG-CC-PVTZ-RI
    Molecular point group: c1

    Geometry (in Angstrom), charge = 0, multiplicity = 1:

       Center              X                  Y                   Z               Mass
    ------------   -----------------  -----------------  -----------------  -----------------
         O           -0.043109412628     2.172619043041    -0.303717078039    15.994914619570
         N            2.479236587372     1.919884043041     0.753728921961    14.003074004430
         C            1.114724587372     0.091014043041    -0.137764078039    12.000000000000
         C           -1.443038412628     0.293702043041    -0.035125078039    12.000000000000
         C           -0.101970412628     0.938447043041    -0.169127078039    12.000000000000
         C            2.408001487372     0.543250643041     0.234374021961    12.000000000000
         C            1.052752587372    -1.233297956959    -0.611909078039    12.000000000000
         C            3.486764587372    -0.221383956959     0.261531921961    12.000000000000
         C           -1.657261412628    -0.805374956959     0.810249921961    12.000000000000
         C           -2.526252412628     0.877465043041    -0.707281078039    12.000000000000
         C            2.179831587372    -2.045070956959    -0.642910078039    12.000000000000
         C            3.401947587372    -1.529110956959    -0.199596078039    12.000000000000
         C           -2.945436412628    -1.318295956959     0.968566921961    12.000000000000
         C           -3.805811412628     0.346114043041    -0.562751078039    12.000000000000
         C           -4.018362412628    -0.752409956959     0.275963921961    12.000000000000
         H            0.101086587372    -1.618384956959    -0.967631078039     1.007825032230
         H            4.444997587372     0.176241043041     0.592713921961     1.007825032230
         H           -0.824383412628    -1.237498956959     1.358869921961     1.007825032230
         H           -2.346293412628     1.746509043041    -1.334825078039     1.007825032230
         H            2.113848587372    -3.060524956959    -1.023622078039     1.007825032230
         H            4.293472587372    -2.152454956959    -0.203821078039     1.007825032230
         H           -3.112286412628    -2.161016956959     1.635248921961     1.007825032230
         H           -4.641182412628     0.791461043041    -1.097802078039     1.007825032230
         H           -5.018933412628    -1.161568956959     0.394409921961     1.007825032230
         H            1.787033587372     2.562532043041     0.382912921961     1.007825032230
         H            3.422840587372     2.288931043041     0.752449921961     1.007825032230

  Basis Set: AUG-CC-PVTZ
    Blend: AUG-CC-PVTZ
  Basis Set: (AUG-CC-PVTZ AUX)
    Blend: AUG-CC-PVTZ-JKFIT
	 Reference Energy          =    -628.2135709429597910 [Eh]
	 Singles Energy            =      -0.0000000000000000 [Eh]
	 Same-Spin Energy          =      -0.6914075862742183 [Eh]
	 Opposite-Spin Energy      =      -2.1101862743464808 [Eh]
	 Correlation Energy        =      -2.8015938606206992 [Eh]
	 Total Energy              =    -631.0151648035805465 [Eh]

	 ================> DF-SCS-MP2 Energies <==================
	-----------------------------------------------------------
	 SCS Same-Spin Scale       =       0.3333333333333333 [-]
	 SCS Opposite-Spin Scale   =       1.2000000000000000 [-]
	 SCS Same-Spin Energy      =      -0.2304691954247394 [Eh]
	 SCS Opposite-Spin Energy  =      -2.5322235292157766 [Eh]
	 SCS Correlation Energy    =      -2.7626927246405160 [Eh]
	 SCS Total Energy          =    -630.9762636676002785 [Eh]
	-----------------------------------------------------------

  Dipole Moment: [D]
     X:     0.1541      Y:    -2.1754      Z:    -0.3209     Total:     2.2044

*** Psi4 exiting successfully. Buy a developer a beer!
