                               Psi4 1.3.2 release

  ==> Input File <==

--------------------------------------------------------------------------
#psi4
#
memory 32 gb

molecule  {
0 1
  O       -0.0417540     2.1858230    -0.3073980
  N        2.4572478     1.9368575     0.7449383
  C        1.1160800     0.1042180    -0.1414450
  C       -1.4416830     0.3069060    -0.0388060
  C       -0.1006150     0.9516510    -0.1728080
  C        2.3683100     0.6434780     0.2543940
  C        1.0541080    -1.2200940    -0.6155900
  C        3.4881200    -0.2081800     0.2578510
  C       -1.6559060    -0.7921710     0.8065690
  C       -2.5248970     0.8906690    -0.7109620
  C        2.1811870    -2.0318670    -0.6465910
  C        3.4033030    -1.5159070    -0.2032770
  C       -2.9440810    -1.3050920     0.9648860
  C       -3.8044560     0.3593180    -0.5664320
  C       -4.0170070    -0.7392060     0.2722830
  H        0.1024420    -1.6051810    -0.9713120
  H        4.4463530     0.1894450     0.5890330
  H       -0.8230280    -1.2242950     1.3551890
  H       -2.3449380     1.7597130    -1.3385060
  H        2.1152040    -3.0473210    -1.0273030
  H        4.2948280    -2.1392510    -0.2075020
  H       -3.1109310    -2.1478130     1.6315680
  H       -4.6398270     0.8046650    -1.1014830
  H       -5.0175780    -1.1483650     0.3907290
  H        1.7883890     2.5757360     0.3792320
  H        3.4241960     2.3021350     0.7487690
units angstrom
no_reorient  #important for SAPT in psi4, default
symmetry c1  #important for SAPT in psi4, default
}

set PROPERTIES_ORIGIN ["COM"]
properties('MP2/aug-cc-pvtz', properties = ['dipole'])
--------------------------------------------------------------------------

    Molecular point group: c1
  Charge       = 0
  Multiplicity = 1
  Basis Set: AUG-CC-PVTZ
    Blend: AUG-CC-PVTZ
  Basis Set: (AUG-CC-PVTZ AUX)
    Blend: AUG-CC-PVTZ-JKFIT

    Orbital Energies [Eh]
    ---------------------

    Doubly Occupied:

       1A    -20.541183     2A    -15.562316     3A    -11.341266
       4A    -11.299079     5A    -11.254840     6A    -11.254118
       7A    -11.252486     8A    -11.251366     9A    -11.250068
      10A    -11.247974    11A    -11.245742    12A    -11.244322
      13A    -11.240723    14A    -11.234173    15A    -11.229928
      16A     -1.374141    17A     -1.228618    18A     -1.164250
      19A     -1.138645    20A     -1.057453    21A     -1.026407
      22A     -1.021041    23A     -0.998022    24A     -0.893361
      25A     -0.849219    26A     -0.838705    27A     -0.820037
      28A     -0.771024    29A     -0.717955    30A     -0.700350
      31A     -0.691486    32A     -0.669363    33A     -0.647594
      34A     -0.634812    35A     -0.614842    36A     -0.611052
      37A     -0.605503    38A     -0.597119    39A     -0.587432
      40A     -0.554963    41A     -0.536158    42A     -0.526692
      43A     -0.519716    44A     -0.509106    45A     -0.502204
      46A     -0.490708    47A     -0.454215    48A     -0.421989
      49A     -0.352067    50A     -0.346212    51A     -0.344447
      52A     -0.302317

  @DF-RHF Final Energy:  -628.22515113497172

   => Energetics <=

    Nuclear Repulsion Energy =            893.4399198267996098
    One-Electron Energy =               -2626.1925216196932524
    Two-Electron Energy =                1104.5274506579216904
    Total Energy =                       -628.2251511349718385
  Basis Set: (AUG-CC-PVTZ AUX)
    Blend: AUG-CC-PVTZ-RI
    Molecular point group: c1

    Geometry (in Angstrom), charge = 0, multiplicity = 1:

       Center              X                  Y                   Z               Mass
    ------------   -----------------  -----------------  -----------------  -----------------
         O           -0.038951525158     2.167052558541    -0.304797121186    15.994914619570
         N            2.460050274842     1.918087058541     0.747539178814    14.003074004430
         C            1.118882474842     0.085447558541    -0.138844121186    12.000000000000
         C           -1.438880525158     0.288135558541    -0.036205121186    12.000000000000
         C           -0.097812525158     0.932880558541    -0.170207121186    12.000000000000
         C            2.371112474842     0.624707558541     0.256994878814    12.000000000000
         C            1.056910474842    -1.238864441459    -0.612989121186    12.000000000000
         C            3.490922474842    -0.226950441459     0.260451878814    12.000000000000
         C           -1.653103525158    -0.810941441459     0.809169878814    12.000000000000
         C           -2.522094525158     0.871898558541    -0.708361121186    12.000000000000
         C            2.183989474842    -2.050637441459    -0.643990121186    12.000000000000
         C            3.406105474842    -1.534677441459    -0.200676121186    12.000000000000
         C           -2.941278525158    -1.323862441459     0.967486878814    12.000000000000
         C           -3.801653525158     0.340547558541    -0.563831121186    12.000000000000
         C           -4.014204525158    -0.757976441459     0.274883878814    12.000000000000
         H            0.105244474842    -1.623951441459    -0.968711121186     1.007825032230
         H            4.449155474842     0.170674558541     0.591633878814     1.007825032230
         H           -0.820225525158    -1.243065441459     1.357789878814     1.007825032230
         H           -2.342135525158     1.740942558541    -1.335905121186     1.007825032230
         H            2.118006474842    -3.066091441459    -1.024702121186     1.007825032230
         H            4.297630474842    -2.158021441459    -0.204901121186     1.007825032230
         H           -3.108128525158    -2.166583441459     1.634168878814     1.007825032230
         H           -4.637024525158     0.785894558541    -1.098882121186     1.007825032230
         H           -5.014775525158    -1.167135441459     0.393329878814     1.007825032230
         H            1.791191474842     2.556965558541     0.381832878814     1.007825032230
         H            3.426998474842     2.283364558541     0.751369878814     1.007825032230

  Basis Set: AUG-CC-PVTZ
    Blend: AUG-CC-PVTZ
  Basis Set: (AUG-CC-PVTZ AUX)
    Blend: AUG-CC-PVTZ-JKFIT
	 Reference Energy          =    -628.2251511349717248 [Eh]
	 Singles Energy            =      -0.0000000000000000 [Eh]
	 Same-Spin Energy          =      -0.6915713049873854 [Eh]
	 Opposite-Spin Energy      =      -2.1096686682856234 [Eh]
	 Correlation Energy        =      -2.8012399732730087 [Eh]
	 Total Energy              =    -631.0263911082447521 [Eh]

	 ================> DF-SCS-MP2 Energies <==================
	-----------------------------------------------------------
	 SCS Same-Spin Scale       =       0.3333333333333333 [-]
	 SCS Opposite-Spin Scale   =       1.2000000000000000 [-]
	 SCS Same-Spin Energy      =      -0.2305237683291285 [Eh]
	 SCS Opposite-Spin Energy  =      -2.5316024019427479 [Eh]
	 SCS Correlation Energy    =      -2.7621261702718765 [Eh]
	 SCS Total Energy          =    -630.9872773052436514 [Eh]
	-----------------------------------------------------------

  Dipole Moment: [D]
     X:     0.3815      Y:    -1.6408      Z:    -0.0967     Total:     1.6874

*** Psi4 exiting successfully. Buy a developer a beer!
