                               Psi4 1.3.2 release

  ==> Input File <==

--------------------------------------------------------------------------
#psi4
#
memory 32 gb

molecule  {
0 1
  O       -0.0417540     2.1858230    -0.3073980
  N        2.4805920     1.9330880     0.7500480
  C        1.1617172     0.0173123    -0.1550205
  C       -1.4416830     0.3069060    -0.0388060
  C       -0.1006150     0.9516510    -0.1728080
  C        2.3683100     0.6434780     0.2543940
  C        1.0541080    -1.2200940    -0.6155900
  C        3.4881200    -0.2081800     0.2578510
  C       -1.6559060    -0.7921710     0.8065690
  C       -2.5248970     0.8906690    -0.7109620
  C        2.1811870    -2.0318670    -0.6465910
  C        3.4033030    -1.5159070    -0.2032770
  C       -2.9440810    -1.3050920     0.9648860
  C       -3.8044560     0.3593180    -0.5664320
  C       -4.0170070    -0.7392060     0.2722830
  H        0.1024420    -1.6051810    -0.9713120
  H        4.4463530     0.1894450     0.5890330
  H       -0.8230280    -1.2242950     1.3551890
  H       -2.3449380     1.7597130    -1.3385060
  H        2.1152040    -3.0473210    -1.0273030
  H        4.2948280    -2.1392510    -0.2075020
  H       -3.1109310    -2.1478130     1.6315680
  H       -4.6398270     0.8046650    -1.1014830
  H       -5.0175780    -1.1483650     0.3907290
  H        1.7883890     2.5757360     0.3792320
  H        3.4241960     2.3021350     0.7487690
units angstrom
no_reorient  #important for SAPT in psi4, default
symmetry c1  #important for SAPT in psi4, default
}

set PROPERTIES_ORIGIN ["COM"]
properties('MP2/aug-cc-pvtz', properties = ['dipole'])
--------------------------------------------------------------------------

    Molecular point group: c1
  Charge       = 0
  Multiplicity = 1
  Basis Set: AUG-CC-PVTZ
    Blend: AUG-CC-PVTZ
  Basis Set: (AUG-CC-PVTZ AUX)
    Blend: AUG-CC-PVTZ-JKFIT

    Orbital Energies [Eh]
    ---------------------

    Doubly Occupied:

       1A    -20.548584     2A    -15.562898     3A    -11.348417
       4A    -11.295487     5A    -11.253731     6A    -11.252503
       7A    -11.251007     8A    -11.249256     9A    -11.248499
      10A    -11.246801    11A    -11.245392    12A    -11.243062
      13A    -11.241327    14A    -11.230207    15A    -11.227055
      16A     -1.377062    17A     -1.228181    18A     -1.165690
      19A     -1.146359    20A     -1.055363    21A     -1.028297
      22A     -1.023923    23A     -0.995420    24A     -0.887659
      25A     -0.844254    26A     -0.839965    27A     -0.823983
      28A     -0.770609    29A     -0.717596    30A     -0.702037
      31A     -0.690435    32A     -0.666544    33A     -0.648865
      34A     -0.634347    35A     -0.616005    36A     -0.611153
      37A     -0.605153    38A     -0.598418    39A     -0.591784
      40A     -0.555069    41A     -0.534086    42A     -0.529050
      43A     -0.520076    44A     -0.510422    45A     -0.502977
      46A     -0.493904    47A     -0.457253    48A     -0.414301
      49A     -0.358051    50A     -0.347789    51A     -0.345955
      52A     -0.298119

  @DF-RHF Final Energy:  -628.21494493437024

   => Energetics <=

    Nuclear Repulsion Energy =            893.1486650438456536
    One-Electron Energy =               -2625.5664661891655669
    Two-Electron Energy =                1104.2028562109496761
    Total Energy =                       -628.2149449343703509
  Basis Set: (AUG-CC-PVTZ AUX)
    Blend: AUG-CC-PVTZ-RI
    Molecular point group: c1

    Geometry (in Angstrom), charge = 0, multiplicity = 1:

       Center              X                  Y                   Z               Mass
    ------------   -----------------  -----------------  -----------------  -----------------
         O           -0.043388905545     2.172611876556    -0.304333590594    15.994914619570
         N            2.478957094455     1.919876876556     0.753112409406    14.003074004430
         C            1.160082294455     0.004101176556    -0.151956090594    12.000000000000
         C           -1.443317905545     0.293694876556    -0.035741590594    12.000000000000
         C           -0.102249905545     0.938439876556    -0.169743590594    12.000000000000
         C            2.366675094455     0.630266876556     0.257458409406    12.000000000000
         C            1.052473094455    -1.233305123444    -0.612525590594    12.000000000000
         C            3.486485094455    -0.221391123444     0.260915409406    12.000000000000
         C           -1.657540905545    -0.805382123444     0.809633409406    12.000000000000
         C           -2.526531905545     0.877457876556    -0.707897590594    12.000000000000
         C            2.179552094455    -2.045078123444    -0.643526590594    12.000000000000
         C            3.401668094455    -1.529118123444    -0.200212590594    12.000000000000
         C           -2.945715905545    -1.318303123444     0.967950409406    12.000000000000
         C           -3.806090905545     0.346106876556    -0.563367590594    12.000000000000
         C           -4.018641905545    -0.752417123444     0.275347409406    12.000000000000
         H            0.100807094455    -1.618392123444    -0.968247590594     1.007825032230
         H            4.444718094455     0.176233876556     0.592097409406     1.007825032230
         H           -0.824662905545    -1.237506123444     1.358253409406     1.007825032230
         H           -2.346572905545     1.746501876556    -1.335441590594     1.007825032230
         H            2.113569094455    -3.060532123444    -1.024238590594     1.007825032230
         H            4.293193094455    -2.152462123444    -0.204437590594     1.007825032230
         H           -3.112565905545    -2.161024123444     1.634632409406     1.007825032230
         H           -4.641461905545     0.791453876556    -1.098418590594     1.007825032230
         H           -5.019212905545    -1.161576123444     0.393793409406     1.007825032230
         H            1.786754094455     2.562524876556     0.382296409406     1.007825032230
         H            3.422561094455     2.288923876556     0.751833409406     1.007825032230

  Basis Set: AUG-CC-PVTZ
    Blend: AUG-CC-PVTZ
  Basis Set: (AUG-CC-PVTZ AUX)
    Blend: AUG-CC-PVTZ-JKFIT
	 Reference Energy          =    -628.2149449343702372 [Eh]
	 Singles Energy            =      -0.0000000000000000 [Eh]
	 Same-Spin Energy          =      -0.6915035065358585 [Eh]
	 Opposite-Spin Energy      =      -2.1095675282980881 [Eh]
	 Correlation Energy        =      -2.8010710348339467 [Eh]
	 Total Energy              =    -631.0160159692042043 [Eh]

	 ================> DF-SCS-MP2 Energies <==================
	-----------------------------------------------------------
	 SCS Same-Spin Scale       =       0.3333333333333333 [-]
	 SCS Opposite-Spin Scale   =       1.2000000000000000 [-]
	 SCS Same-Spin Energy      =      -0.2305011688452862 [Eh]
	 SCS Opposite-Spin Energy  =      -2.5314810339577059 [Eh]
	 SCS Correlation Energy    =      -2.7619822028029919 [Eh]
	 SCS Total Energy          =    -630.9769271371732202 [Eh]
	-----------------------------------------------------------

  Dipole Moment: [D]
     X:     0.0345      Y:    -1.4610      Z:    -0.1201     Total:     1.4663

*** Psi4 exiting successfully. Buy a developer a beer!
