                               Psi4 1.3.2 release

  ==> Input File <==

--------------------------------------------------------------------------
#psi4
#
memory 32 gb

molecule  {
0 1
  O       -0.0417540     2.1858230    -0.3073980
  N        2.4805920     1.9330880     0.7500480
  C        1.1160800     0.1042180    -0.1414450
  C       -1.5377651     0.3067044    -0.0577435
  C       -0.1006150     0.9516510    -0.1728080
  C        2.3683100     0.6434780     0.2543940
  C        1.0541080    -1.2200940    -0.6155900
  C        3.4881200    -0.2081800     0.2578510
  C       -1.6559060    -0.7921710     0.8065690
  C       -2.5248970     0.8906690    -0.7109620
  C        2.1811870    -2.0318670    -0.6465910
  C        3.4033030    -1.5159070    -0.2032770
  C       -2.9440810    -1.3050920     0.9648860
  C       -3.8044560     0.3593180    -0.5664320
  C       -4.0170070    -0.7392060     0.2722830
  H        0.1024420    -1.6051810    -0.9713120
  H        4.4463530     0.1894450     0.5890330
  H       -0.8230280    -1.2242950     1.3551890
  H       -2.3449380     1.7597130    -1.3385060
  H        2.1152040    -3.0473210    -1.0273030
  H        4.2948280    -2.1392510    -0.2075020
  H       -3.1109310    -2.1478130     1.6315680
  H       -4.6398270     0.8046650    -1.1014830
  H       -5.0175780    -1.1483650     0.3907290
  H        1.7883890     2.5757360     0.3792320
  H        3.4241960     2.3021350     0.7487690
units angstrom
no_reorient  #important for SAPT in psi4, default
symmetry c1  #important for SAPT in psi4, default
}

set PROPERTIES_ORIGIN ["COM"]
properties('MP2/aug-cc-pvtz', properties = ['dipole'])
--------------------------------------------------------------------------

    Molecular point group: c1
  Charge       = 0
  Multiplicity = 1
  Basis Set: AUG-CC-PVTZ
    Blend: AUG-CC-PVTZ
  Basis Set: (AUG-CC-PVTZ AUX)
    Blend: AUG-CC-PVTZ-JKFIT

    Orbital Energies [Eh]
    ---------------------

    Doubly Occupied:

       1A    -20.543025     2A    -15.562540     3A    -11.344601
       4A    -11.299994     5A    -11.255170     6A    -11.254994
       7A    -11.248906     8A    -11.247100     9A    -11.246843
      10A    -11.244812    11A    -11.244091    12A    -11.242697
      13A    -11.235572    14A    -11.234235    15A    -11.230458
      16A     -1.373461    17A     -1.229228    18A     -1.171210
      19A     -1.139284    20A     -1.051788    21A     -1.034252
      22A     -1.019071    23A     -0.998514    24A     -0.885390
      25A     -0.846630    26A     -0.842466    27A     -0.818803
      28A     -0.770147    29A     -0.718646    30A     -0.702841
      31A     -0.689037    32A     -0.665461    33A     -0.645831
      34A     -0.636016    35A     -0.615600    36A     -0.611162
      37A     -0.606085    38A     -0.599153    39A     -0.587327
      40A     -0.554580    41A     -0.535994    42A     -0.527307
      43A     -0.518593    44A     -0.511124    45A     -0.505417
      46A     -0.493691    47A     -0.454612    48A     -0.413136
      49A     -0.353287    50A     -0.351729    51A     -0.342184
      52A     -0.302839

  @DF-RHF Final Energy:  -628.21614643185421

   => Energetics <=

    Nuclear Repulsion Energy =            892.9478163106446118
    One-Electron Energy =               -2625.2140556961212496
    Two-Electron Energy =                1104.0500929536224248
    Total Energy =                       -628.2161464318542130
  Basis Set: (AUG-CC-PVTZ AUX)
    Blend: AUG-CC-PVTZ-RI
    Molecular point group: c1

    Geometry (in Angstrom), charge = 0, multiplicity = 1:

       Center              X                  Y                   Z               Mass
    ------------   -----------------  -----------------  -----------------  -----------------
         O           -0.034759939988     2.167332661286    -0.304007110621    15.994914619570
         N            2.487586060012     1.914597661286     0.753438889379    14.003074004430
         C            1.123074060012     0.085727661286    -0.138054110621    12.000000000000
         C           -1.530771039988     0.288214061286    -0.054352610621    12.000000000000
         C           -0.093620939988     0.933160661286    -0.169417110621    12.000000000000
         C            2.375304060012     0.624987661286     0.257784889379    12.000000000000
         C            1.061102060012    -1.238584338714    -0.612199110621    12.000000000000
         C            3.495114060012    -0.226670338714     0.261241889379    12.000000000000
         C           -1.648911939988    -0.810661338714     0.809959889379    12.000000000000
         C           -2.517902939988     0.872178661286    -0.707571110621    12.000000000000
         C            2.188181060012    -2.050357338714    -0.643200110621    12.000000000000
         C            3.410297060012    -1.534397338714    -0.199886110621    12.000000000000
         C           -2.937086939988    -1.323582338714     0.968276889379    12.000000000000
         C           -3.797461939988     0.340827661286    -0.563041110621    12.000000000000
         C           -4.010012939988    -0.757696338714     0.275673889379    12.000000000000
         H            0.109436060012    -1.623671338714    -0.967921110621     1.007825032230
         H            4.453347060012     0.170954661286     0.592423889379     1.007825032230
         H           -0.816033939988    -1.242785338714     1.358579889379     1.007825032230
         H           -2.337943939988     1.741222661286    -1.335115110621     1.007825032230
         H            2.122198060012    -3.065811338714    -1.023912110621     1.007825032230
         H            4.301822060012    -2.157741338714    -0.204111110621     1.007825032230
         H           -3.103936939988    -2.166303338714     1.634958889379     1.007825032230
         H           -4.632832939988     0.786174661286    -1.098092110621     1.007825032230
         H           -5.010583939988    -1.166855338714     0.394119889379     1.007825032230
         H            1.795383060012     2.557245661286     0.382622889379     1.007825032230
         H            3.431190060012     2.283644661286     0.752159889379     1.007825032230

  Basis Set: AUG-CC-PVTZ
    Blend: AUG-CC-PVTZ
  Basis Set: (AUG-CC-PVTZ AUX)
    Blend: AUG-CC-PVTZ-JKFIT
	 Reference Energy          =    -628.2161464318542130 [Eh]
	 Singles Energy            =      -0.0000000000000000 [Eh]
	 Same-Spin Energy          =      -0.6911364895325510 [Eh]
	 Opposite-Spin Energy      =      -2.1090632089952748 [Eh]
	 Correlation Energy        =      -2.8001996985278259 [Eh]
	 Total Energy              =    -631.0163461303820895 [Eh]

	 ================> DF-SCS-MP2 Energies <==================
	-----------------------------------------------------------
	 SCS Same-Spin Scale       =       0.3333333333333333 [-]
	 SCS Opposite-Spin Scale   =       1.2000000000000000 [-]
	 SCS Same-Spin Energy      =      -0.2303788298441837 [Eh]
	 SCS Opposite-Spin Energy  =      -2.5308758507943296 [Eh]
	 SCS Correlation Energy    =      -2.7612546806385132 [Eh]
	 SCS Total Energy          =    -630.9774011124927711 [Eh]
	-----------------------------------------------------------

  Dipole Moment: [D]
     X:     0.5613      Y:    -1.5671      Z:    -0.1245     Total:     1.6692

*** Psi4 exiting successfully. Buy a developer a beer!
