                               Psi4 1.3.2 release

  ==> Input File <==

--------------------------------------------------------------------------
#psi4
#
memory 32 gb

molecule  {
0 1
  O       -0.0417540     2.1858230    -0.3073980
  N        2.4805920     1.9330880     0.7500480
  C        1.1160800     0.1042180    -0.1414450
  C       -1.4416830     0.3069060    -0.0388060
  C        0.0789090     1.0379607    -0.1907464
  C        2.3683100     0.6434780     0.2543940
  C        1.0541080    -1.2200940    -0.6155900
  C        3.4881200    -0.2081800     0.2578510
  C       -1.6559060    -0.7921710     0.8065690
  C       -2.5248970     0.8906690    -0.7109620
  C        2.1811870    -2.0318670    -0.6465910
  C        3.4033030    -1.5159070    -0.2032770
  C       -2.9440810    -1.3050920     0.9648860
  C       -3.8044560     0.3593180    -0.5664320
  C       -4.0170070    -0.7392060     0.2722830
  H        0.1024420    -1.6051810    -0.9713120
  H        4.4463530     0.1894450     0.5890330
  H       -0.8230280    -1.2242950     1.3551890
  H       -2.3449380     1.7597130    -1.3385060
  H        2.1152040    -3.0473210    -1.0273030
  H        4.2948280    -2.1392510    -0.2075020
  H       -3.1109310    -2.1478130     1.6315680
  H       -4.6398270     0.8046650    -1.1014830
  H       -5.0175780    -1.1483650     0.3907290
  H        1.7883890     2.5757360     0.3792320
  H        3.4241960     2.3021350     0.7487690
units angstrom
no_reorient  #important for SAPT in psi4, default
symmetry c1  #important for SAPT in psi4, default
}

set PROPERTIES_ORIGIN ["COM"]
properties('MP2/aug-cc-pvtz', properties = ['dipole'])
--------------------------------------------------------------------------

    Molecular point group: c1
  Charge       = 0
  Multiplicity = 1
  Basis Set: AUG-CC-PVTZ
    Blend: AUG-CC-PVTZ
  Basis Set: (AUG-CC-PVTZ AUX)
    Blend: AUG-CC-PVTZ-JKFIT

    Orbital Energies [Eh]
    ---------------------

    Doubly Occupied:

       1A    -20.554817     2A    -15.573582     3A    -11.342057
       4A    -11.307098     5A    -11.265506     6A    -11.264185
       7A    -11.241519     8A    -11.239948     9A    -11.238772
      10A    -11.237549    11A    -11.235419    12A    -11.234578
      13A    -11.233581    14A    -11.233263    15A    -11.231345
      16A     -1.437142    17A     -1.242184    18A     -1.152095
      19A     -1.142639    20A     -1.063425    21A     -1.010840
      22A     -1.009282    23A     -1.005686    24A     -0.898232
      25A     -0.845953    26A     -0.823356    27A     -0.814084
      28A     -0.771033    29A     -0.720631    30A     -0.706854
      31A     -0.694954    32A     -0.683274    33A     -0.642455
      34A     -0.630805    35A     -0.618754    36A     -0.613607
      37A     -0.610081    38A     -0.603829    39A     -0.586905
      40A     -0.572757    41A     -0.545382    42A     -0.531070
      43A     -0.519509    44A     -0.513254    45A     -0.494057
      46A     -0.489058    47A     -0.463227    48A     -0.392715
      49A     -0.360669    50A     -0.334028    51A     -0.329736
      52A     -0.311429

  @DF-RHF Final Energy:  -628.19501671913281

   => Energetics <=

    Nuclear Repulsion Energy =            893.6077228240300201
    One-Electron Energy =               -2626.3690603538061623
    Two-Electron Energy =                1104.5663208106432194
    Total Energy =                       -628.1950167191328092
  Basis Set: (AUG-CC-PVTZ AUX)
    Blend: AUG-CC-PVTZ-RI
    Molecular point group: c1

    Geometry (in Angstrom), charge = 0, multiplicity = 1:

       Center              X                  Y                   Z               Mass
    ------------   -----------------  -----------------  -----------------  -----------------
         O           -0.051540968008     2.162065185169    -0.304067943545    15.994914619570
         N            2.470805031992     1.909330185169     0.753378056455    14.003074004430
         C            1.106293031992     0.080460185169    -0.138114943545    12.000000000000
         C           -1.451469968008     0.283148185169    -0.035475943545    12.000000000000
         C            0.069122031992     1.014202885169    -0.187416343545    12.000000000000
         C            2.358523031992     0.619720185169     0.257724056455    12.000000000000
         C            1.044321031992    -1.243851814831    -0.612259943545    12.000000000000
         C            3.478333031992    -0.231937814831     0.261181056455    12.000000000000
         C           -1.665692968008    -0.815928814831     0.809899056455    12.000000000000
         C           -2.534683968008     0.866911185169    -0.707631943545    12.000000000000
         C            2.171400031992    -2.055624814831    -0.643260943545    12.000000000000
         C            3.393516031992    -1.539664814831    -0.199946943545    12.000000000000
         C           -2.953867968008    -1.328849814831     0.968216056455    12.000000000000
         C           -3.814242968008     0.335560185169    -0.563101943545    12.000000000000
         C           -4.026793968008    -0.762963814831     0.275613056455    12.000000000000
         H            0.092655031992    -1.628938814831    -0.967981943545     1.007825032230
         H            4.436566031992     0.165687185169     0.592363056455     1.007825032230
         H           -0.832814968008    -1.248052814831     1.358519056455     1.007825032230
         H           -2.354724968008     1.735955185169    -1.335175943545     1.007825032230
         H            2.105417031992    -3.071078814831    -1.023972943545     1.007825032230
         H            4.285041031992    -2.163008814831    -0.204171943545     1.007825032230
         H           -3.120717968008    -2.171570814831     1.634898056455     1.007825032230
         H           -4.649613968008     0.780907185169    -1.098152943545     1.007825032230
         H           -5.027364968008    -1.172122814831     0.394059056455     1.007825032230
         H            1.778602031992     2.551978185169     0.382562056455     1.007825032230
         H            3.414409031992     2.278377185169     0.752099056455     1.007825032230

  Basis Set: AUG-CC-PVTZ
    Blend: AUG-CC-PVTZ
  Basis Set: (AUG-CC-PVTZ AUX)
    Blend: AUG-CC-PVTZ-JKFIT
	 Reference Energy          =    -628.1950167191328092 [Eh]
	 Singles Energy            =      -0.0000000000000000 [Eh]
	 Same-Spin Energy          =      -0.6907779552452294 [Eh]
	 Opposite-Spin Energy      =      -2.1075798828530923 [Eh]
	 Correlation Energy        =      -2.7983578380983216 [Eh]
	 Total Energy              =    -630.9933745572311636 [Eh]

	 ================> DF-SCS-MP2 Energies <==================
	-----------------------------------------------------------
	 SCS Same-Spin Scale       =       0.3333333333333333 [-]
	 SCS Opposite-Spin Scale   =       1.2000000000000000 [-]
	 SCS Same-Spin Energy      =      -0.2302593184150765 [Eh]
	 SCS Opposite-Spin Energy  =      -2.5290958594237107 [Eh]
	 SCS Correlation Energy    =      -2.7593551778387870 [Eh]
	 SCS Total Energy          =    -630.9543718969715655 [Eh]
	-----------------------------------------------------------

  Dipole Moment: [D]
     X:     2.1862      Y:    -1.2449      Z:    -0.2683     Total:     2.5300

*** Psi4 exiting successfully. Buy a developer a beer!
