                               Psi4 1.3.2 release

  ==> Input File <==

--------------------------------------------------------------------------
#psi4
#
memory 32 gb

molecule  {
0 1
  O       -0.0417540     2.1858230    -0.3073980
  N        2.5756653     1.9176618     0.7592043
  C        1.1160800     0.1042180    -0.1414450
  C       -1.4416830     0.3069060    -0.0388060
  C       -0.1006150     0.9516510    -0.1728080
  C        2.3683100     0.6434780     0.2543940
  C        1.0541080    -1.2200940    -0.6155900
  C        3.4881200    -0.2081800     0.2578510
  C       -1.6559060    -0.7921710     0.8065690
  C       -2.5248970     0.8906690    -0.7109620
  C        2.1811870    -2.0318670    -0.6465910
  C        3.4033030    -1.5159070    -0.2032770
  C       -2.9440810    -1.3050920     0.9648860
  C       -3.8044560     0.3593180    -0.5664320
  C       -4.0170070    -0.7392060     0.2722830
  H        0.1024420    -1.6051810    -0.9713120
  H        4.4463530     0.1894450     0.5890330
  H       -0.8230280    -1.2242950     1.3551890
  H       -2.3449380     1.7597130    -1.3385060
  H        2.1152040    -3.0473210    -1.0273030
  H        4.2948280    -2.1392510    -0.2075020
  H       -3.1109310    -2.1478130     1.6315680
  H       -4.6398270     0.8046650    -1.1014830
  H       -5.0175780    -1.1483650     0.3907290
  H        1.7883890     2.5757360     0.3792320
  H        3.4241960     2.3021350     0.7487690
units angstrom
no_reorient  #important for SAPT in psi4, default
symmetry c1  #important for SAPT in psi4, default
}

set PROPERTIES_ORIGIN ["COM"]
properties('MP2/aug-cc-pvtz', properties = ['dipole'])
--------------------------------------------------------------------------

    Molecular point group: c1
  Charge       = 0
  Multiplicity = 1
  Basis Set: AUG-CC-PVTZ
    Blend: AUG-CC-PVTZ
  Basis Set: (AUG-CC-PVTZ AUX)
    Blend: AUG-CC-PVTZ-JKFIT

    Orbital Energies [Eh]
    ---------------------

    Doubly Occupied:

       1A    -20.543030     2A    -15.559360     3A    -11.342820
       4A    -11.299979     5A    -11.254680     6A    -11.253191
       7A    -11.253183     8A    -11.252008     9A    -11.250755
      10A    -11.248696    11A    -11.246315    12A    -11.244909
      13A    -11.243108    14A    -11.231381    15A    -11.229585
      16A     -1.375473    17A     -1.230398    18A     -1.164926
      19A     -1.139301    20A     -1.057778    21A     -1.027015
      22A     -1.021507    23A     -0.998614    24A     -0.894044
      25A     -0.849585    26A     -0.839995    27A     -0.822696
      28A     -0.769240    29A     -0.723481    30A     -0.712302
      31A     -0.677831    32A     -0.673269    33A     -0.648279
      34A     -0.634711    35A     -0.620953    36A     -0.610631
      37A     -0.601990    38A     -0.597673    39A     -0.581294
      40A     -0.554837    41A     -0.534059    42A     -0.527537
      43A     -0.518934    44A     -0.511484    45A     -0.502824
      46A     -0.491983    47A     -0.453272    48A     -0.421749
      49A     -0.352093    50A     -0.347025    51A     -0.345035
      52A     -0.301130

  @DF-RHF Final Energy:  -628.21270903328048

   => Energetics <=

    Nuclear Repulsion Energy =            892.3991266203647683
    One-Electron Energy =               -2624.0477860970818256
    Two-Electron Energy =                1103.4359504434364680
    Total Energy =                       -628.2127090332805892
  Basis Set: (AUG-CC-PVTZ AUX)
    Blend: AUG-CC-PVTZ-RI
    Molecular point group: c1

    Geometry (in Angstrom), charge = 0, multiplicity = 1:

       Center              X                  Y                   Z               Mass
    ------------   -----------------  -----------------  -----------------  -----------------
         O           -0.047365239501     2.168416437498    -0.305810738673    15.994914619570
         N            2.570054060499     1.900255237498     0.760791561327    14.003074004430
         C            1.110468760499     0.086811437498    -0.139857738673    12.000000000000
         C           -1.447294239501     0.289499437498    -0.037218738673    12.000000000000
         C           -0.106226239501     0.934244437498    -0.171220738673    12.000000000000
         C            2.362698760499     0.626071437498     0.255981261327    12.000000000000
         C            1.048496760499    -1.237500562502    -0.614002738673    12.000000000000
         C            3.482508760499    -0.225586562502     0.259438261327    12.000000000000
         C           -1.661517239501    -0.809577562502     0.808156261327    12.000000000000
         C           -2.530508239501     0.873262437498    -0.709374738673    12.000000000000
         C            2.175575760499    -2.049273562502    -0.645003738673    12.000000000000
         C            3.397691760499    -1.533313562502    -0.201689738673    12.000000000000
         C           -2.949692239501    -1.322498562502     0.966473261327    12.000000000000
         C           -3.810067239501     0.341911437498    -0.564844738673    12.000000000000
         C           -4.022618239501    -0.756612562502     0.273870261327    12.000000000000
         H            0.096830760499    -1.622587562502    -0.969724738673     1.007825032230
         H            4.440741760499     0.172038437498     0.590620261327     1.007825032230
         H           -0.828639239501    -1.241701562502     1.356776261327     1.007825032230
         H           -2.350549239501     1.742306437498    -1.336918738673     1.007825032230
         H            2.109592760499    -3.064727562502    -1.025715738673     1.007825032230
         H            4.289216760499    -2.156657562502    -0.205914738673     1.007825032230
         H           -3.116542239501    -2.165219562502     1.633155261327     1.007825032230
         H           -4.645438239501     0.787258437498    -1.099895738673     1.007825032230
         H           -5.023189239501    -1.165771562502     0.392316261327     1.007825032230
         H            1.782777760499     2.558329437498     0.380819261327     1.007825032230
         H            3.418584760499     2.284728437498     0.750356261327     1.007825032230

  Basis Set: AUG-CC-PVTZ
    Blend: AUG-CC-PVTZ
  Basis Set: (AUG-CC-PVTZ AUX)
    Blend: AUG-CC-PVTZ-JKFIT
	 Reference Energy          =    -628.2127090332804755 [Eh]
	 Singles Energy            =      -0.0000000000000000 [Eh]
	 Same-Spin Energy          =      -0.6917042134189038 [Eh]
	 Opposite-Spin Energy      =      -2.1099529133877812 [Eh]
	 Correlation Energy        =      -2.8016571268066848 [Eh]
	 Total Energy              =    -631.0143661600872065 [Eh]

	 ================> DF-SCS-MP2 Energies <==================
	-----------------------------------------------------------
	 SCS Same-Spin Scale       =       0.3333333333333333 [-]
	 SCS Opposite-Spin Scale   =       1.2000000000000000 [-]
	 SCS Same-Spin Energy      =      -0.2305680711396346 [Eh]
	 SCS Opposite-Spin Energy  =      -2.5319434960653373 [Eh]
	 SCS Correlation Energy    =      -2.7625115672049718 [Eh]
	 SCS Total Energy          =    -630.9752206004854997 [Eh]
	-----------------------------------------------------------

  Dipole Moment: [D]
     X:     0.2192      Y:    -1.6311      Z:    -0.1093     Total:     1.6494

*** Psi4 exiting successfully. Buy a developer a beer!
