                               Psi4 1.3.2 release

  ==> Input File <==

--------------------------------------------------------------------------
#psi4
#
memory 32 gb

molecule  {
0 1
  O       -0.0417540     2.1858230    -0.3073980
  N        2.4805920     1.9330880     0.7500480
  C        1.1160800     0.1042180    -0.1414450
  C       -1.4416830     0.3069060    -0.0388060
  C       -0.1276970     0.9105901    -0.1889413
  C        2.3683100     0.6434780     0.2543940
  C        1.0541080    -1.2200940    -0.6155900
  C        3.4881200    -0.2081800     0.2578510
  C       -1.6559060    -0.7921710     0.8065690
  C       -2.5248970     0.8906690    -0.7109620
  C        2.1811870    -2.0318670    -0.6465910
  C        3.4033030    -1.5159070    -0.2032770
  C       -2.9440810    -1.3050920     0.9648860
  C       -3.8044560     0.3593180    -0.5664320
  C       -4.0170070    -0.7392060     0.2722830
  H        0.1024420    -1.6051810    -0.9713120
  H        4.4463530     0.1894450     0.5890330
  H       -0.8230280    -1.2242950     1.3551890
  H       -2.3449380     1.7597130    -1.3385060
  H        2.1152040    -3.0473210    -1.0273030
  H        4.2948280    -2.1392510    -0.2075020
  H       -3.1109310    -2.1478130     1.6315680
  H       -4.6398270     0.8046650    -1.1014830
  H       -5.0175780    -1.1483650     0.3907290
  H        1.7883890     2.5757360     0.3792320
  H        3.4241960     2.3021350     0.7487690
units angstrom
no_reorient  #important for SAPT in psi4, default
symmetry c1  #important for SAPT in psi4, default
}

set PROPERTIES_ORIGIN ["COM"]
properties('MP2/aug-cc-pvtz', properties = ['dipole'])
--------------------------------------------------------------------------

    Molecular point group: c1
  Charge       = 0
  Multiplicity = 1
  Basis Set: AUG-CC-PVTZ
    Blend: AUG-CC-PVTZ
  Basis Set: (AUG-CC-PVTZ AUX)
    Blend: AUG-CC-PVTZ-JKFIT

    Orbital Energies [Eh]
    ---------------------

    Doubly Occupied:

       1A    -20.535506     2A    -15.560522     3A    -11.342256
       4A    -11.299803     5A    -11.255825     6A    -11.254655
       7A    -11.254591     8A    -11.253654     9A    -11.251676
      10A    -11.250316    11A    -11.247806    12A    -11.246291
      13A    -11.242191    14A    -11.233624    15A    -11.229406
      16A     -1.347477    17A     -1.226860    18A     -1.167789
      19A     -1.138603    20A     -1.061688    21A     -1.029383
      22A     -1.023185    23A     -0.997264    24A     -0.898094
      25A     -0.850590    26A     -0.841011    27A     -0.821589
      28A     -0.771387    29A     -0.719137    30A     -0.702313
      31A     -0.686921    32A     -0.671060    33A     -0.646760
      34A     -0.634304    35A     -0.615192    36A     -0.610606
      37A     -0.604148    38A     -0.599181    39A     -0.580683
      40A     -0.551462    41A     -0.532363    42A     -0.526712
      43A     -0.521275    44A     -0.508966    45A     -0.503765
      46A     -0.482695    47A     -0.453113    48A     -0.423823
      49A     -0.352555    50A     -0.347255    51A     -0.346214
      52A     -0.301419

  @DF-RHF Final Energy:  -628.21826309873848

   => Energetics <=

    Nuclear Repulsion Energy =            893.1812583241697894
    One-Electron Energy =               -2625.6891156204860636
    Two-Electron Energy =                1104.2895941975775713
    Total Energy =                       -628.2182630987385892
  Basis Set: (AUG-CC-PVTZ AUX)
    Blend: AUG-CC-PVTZ-RI
    Molecular point group: c1

    Geometry (in Angstrom), charge = 0, multiplicity = 1:

       Center              X                  Y                   Z               Mass
    ------------   -----------------  -----------------  -----------------  -----------------
         O           -0.038961199000     2.169820491048    -0.304177851975    15.994914619570
         N            2.483384801000     1.917085491048     0.753268148025    14.003074004430
         C            1.118872801000     0.088215491048    -0.138224851975    12.000000000000
         C           -1.438890199000     0.290903491048    -0.035585851975    12.000000000000
         C           -0.124904199000     0.894587591048    -0.185721151975    12.000000000000
         C            2.371102801000     0.627475491048     0.257614148025    12.000000000000
         C            1.056900801000    -1.236096508952    -0.612369851975    12.000000000000
         C            3.490912801000    -0.224182508952     0.261071148025    12.000000000000
         C           -1.653113199000    -0.808173508952     0.809789148025    12.000000000000
         C           -2.522104199000     0.874666491048    -0.707741851975    12.000000000000
         C            2.183979801000    -2.047869508952    -0.643370851975    12.000000000000
         C            3.406095801000    -1.531909508952    -0.200056851975    12.000000000000
         C           -2.941288199000    -1.321094508952     0.968106148025    12.000000000000
         C           -3.801663199000     0.343315491048    -0.563211851975    12.000000000000
         C           -4.014214199000    -0.755208508952     0.275503148025    12.000000000000
         H            0.105234801000    -1.621183508952    -0.968091851975     1.007825032230
         H            4.449145801000     0.173442491048     0.592253148025     1.007825032230
         H           -0.820235199000    -1.240297508952     1.358409148025     1.007825032230
         H           -2.342145199000     1.743710491048    -1.335285851975     1.007825032230
         H            2.117996801000    -3.063323508952    -1.024082851975     1.007825032230
         H            4.297620801000    -2.155253508952    -0.204281851975     1.007825032230
         H           -3.108138199000    -2.163815508952     1.634788148025     1.007825032230
         H           -4.637034199000     0.788662491048    -1.098262851975     1.007825032230
         H           -5.014785199000    -1.164367508952     0.393949148025     1.007825032230
         H            1.791181801000     2.559733491048     0.382452148025     1.007825032230
         H            3.426988801000     2.286132491048     0.751989148025     1.007825032230

  Basis Set: AUG-CC-PVTZ
    Blend: AUG-CC-PVTZ
  Basis Set: (AUG-CC-PVTZ AUX)
    Blend: AUG-CC-PVTZ-JKFIT
	 Reference Energy          =    -628.2182630987384755 [Eh]
	 Singles Energy            =      -0.0000000000000000 [Eh]
	 Same-Spin Energy          =      -0.6929754135667604 [Eh]
	 Opposite-Spin Energy      =      -2.1123485811419624 [Eh]
	 Correlation Energy        =      -2.8053239947087230 [Eh]
	 Total Energy              =    -631.0235870934471905 [Eh]

	 ================> DF-SCS-MP2 Energies <==================
	-----------------------------------------------------------
	 SCS Same-Spin Scale       =       0.3333333333333333 [-]
	 SCS Opposite-Spin Scale   =       1.2000000000000000 [-]
	 SCS Same-Spin Energy      =      -0.2309918045222535 [Eh]
	 SCS Opposite-Spin Energy  =      -2.5348182973703550 [Eh]
	 SCS Correlation Energy    =      -2.7658101018926087 [Eh]
	 SCS Total Energy          =    -630.9840732006310873 [Eh]
	-----------------------------------------------------------

  Dipole Moment: [D]
     X:     0.1541      Y:    -1.8029      Z:    -0.0761     Total:     1.8110

*** Psi4 exiting successfully. Buy a developer a beer!
