                               Psi4 1.3.2 release

  ==> Input File <==

--------------------------------------------------------------------------
#psi4
#
memory 32 gb

molecule  {
0 1
  O       -0.0417540     2.1858230    -0.3073980
  N        2.4805920     1.9330880     0.7500480
  C        1.1160800     0.1042180    -0.1414450
  C       -1.4416830     0.3069060    -0.0388060
  C       -0.1006150     0.9516510    -0.1728080
  C        2.3683100     0.6434780     0.2543940
  C        1.0541080    -1.2200940    -0.6155900
  C        3.4881200    -0.2081800     0.2578510
  C       -1.6864430    -0.9488418     0.9270752
  C       -2.5248970     0.8906690    -0.7109620
  C        2.1811870    -2.0318670    -0.6465910
  C        3.4033030    -1.5159070    -0.2032770
  C       -2.9440810    -1.3050920     0.9648860
  C       -3.8044560     0.3593180    -0.5664320
  C       -4.0170070    -0.7392060     0.2722830
  H        0.1024420    -1.6051810    -0.9713120
  H        4.4463530     0.1894450     0.5890330
  H       -0.8230280    -1.2242950     1.3551890
  H       -2.3449380     1.7597130    -1.3385060
  H        2.1152040    -3.0473210    -1.0273030
  H        4.2948280    -2.1392510    -0.2075020
  H       -3.1109310    -2.1478130     1.6315680
  H       -4.6398270     0.8046650    -1.1014830
  H       -5.0175780    -1.1483650     0.3907290
  H        1.7883890     2.5757360     0.3792320
  H        3.4241960     2.3021350     0.7487690
units angstrom
no_reorient  #important for SAPT in psi4, default
symmetry c1  #important for SAPT in psi4, default
}

set PROPERTIES_ORIGIN ["COM"]
properties('MP2/aug-cc-pvtz', properties = ['dipole'])
--------------------------------------------------------------------------

    Molecular point group: c1
  Charge       = 0
  Multiplicity = 1
  Basis Set: AUG-CC-PVTZ
    Blend: AUG-CC-PVTZ
  Basis Set: (AUG-CC-PVTZ AUX)
    Blend: AUG-CC-PVTZ-JKFIT

    Orbital Energies [Eh]
    ---------------------

    Doubly Occupied:

       1A    -20.539282     2A    -15.561469     3A    -11.340126
       4A    -11.298646     5A    -11.262091     6A    -11.254267
       7A    -11.254055     8A    -11.253952     9A    -11.253849
      10A    -11.250018    11A    -11.248162    12A    -11.240894
      13A    -11.239010    14A    -11.233509    15A    -11.229861
      16A     -1.372212    17A     -1.228162    18A     -1.157570
      19A     -1.138476    20A     -1.051631    21A     -1.043301
      22A     -1.011779    23A     -0.997196    24A     -0.897433
      25A     -0.854506    26A     -0.838013    27A     -0.814700
      28A     -0.764445    29A     -0.720251    30A     -0.708281
      31A     -0.688198    32A     -0.680075    33A     -0.646864
      34A     -0.640864    35A     -0.615250    36A     -0.606172
      37A     -0.603818    38A     -0.598328    39A     -0.583751
      40A     -0.558237    41A     -0.537855    42A     -0.534777
      43A     -0.517935    44A     -0.509601    45A     -0.491957
      46A     -0.471118    47A     -0.454169    48A     -0.417985
      49A     -0.365065    50A     -0.350458    51A     -0.328685
      52A     -0.301575

  @DF-RHF Final Energy:  -628.18430074810840

   => Energetics <=

    Nuclear Repulsion Energy =            890.3780138368917960
    One-Electron Energy =               -2620.0048620093225509
    Two-Electron Energy =                1101.4425474243223562
    Total Energy =                       -628.1843007481083987
  Basis Set: (AUG-CC-PVTZ AUX)
    Blend: AUG-CC-PVTZ-RI
    Molecular point group: c1

    Geometry (in Angstrom), charge = 0, multiplicity = 1:

       Center              X                  Y                   Z               Mass
    ------------   -----------------  -----------------  -----------------  -----------------
         O           -0.038750831916     2.176859714677    -0.312497520075    15.994914619570
         N            2.483595168084     1.924124714677     0.744948479925    14.003074004430
         C            1.119083168084     0.095254714677    -0.146544520075    12.000000000000
         C           -1.438679831916     0.297942714677    -0.043905520075    12.000000000000
         C           -0.097611831916     0.942687714677    -0.177907520075    12.000000000000
         C            2.371313168084     0.634514714677     0.249294479925    12.000000000000
         C            1.057111168084    -1.229057285323    -0.620689520075    12.000000000000
         C            3.491123168084    -0.217143285323     0.252751479925    12.000000000000
         C           -1.683439831916    -0.957805085323     0.921975679925    12.000000000000
         C           -2.521893831916     0.881705714677    -0.716061520075    12.000000000000
         C            2.184190168084    -2.040830285323    -0.651690520075    12.000000000000
         C            3.406306168084    -1.524870285323    -0.208376520075    12.000000000000
         C           -2.941077831916    -1.314055285323     0.959786479925    12.000000000000
         C           -3.801452831916     0.350354714677    -0.571531520075    12.000000000000
         C           -4.014003831916    -0.748169285323     0.267183479925    12.000000000000
         H            0.105445168084    -1.614144285323    -0.976411520075     1.007825032230
         H            4.449356168084     0.180481714677     0.583933479925     1.007825032230
         H           -0.820024831916    -1.233258285323     1.350089479925     1.007825032230
         H           -2.341934831916     1.750749714677    -1.343605520075     1.007825032230
         H            2.118207168084    -3.056284285323    -1.032402520075     1.007825032230
         H            4.297831168084    -2.148214285323    -0.212601520075     1.007825032230
         H           -3.107927831916    -2.156776285323     1.626468479925     1.007825032230
         H           -4.636823831916     0.795701714677    -1.106582520075     1.007825032230
         H           -5.014574831916    -1.157328285323     0.385629479925     1.007825032230
         H            1.791392168084     2.566772714677     0.374132479925     1.007825032230
         H            3.427199168084     2.293171714677     0.743669479925     1.007825032230

  Basis Set: AUG-CC-PVTZ
    Blend: AUG-CC-PVTZ
  Basis Set: (AUG-CC-PVTZ AUX)
    Blend: AUG-CC-PVTZ-JKFIT
	 Reference Energy          =    -628.1843007481083987 [Eh]
	 Singles Energy            =      -0.0000000000000000 [Eh]
	 Same-Spin Energy          =      -0.6915356534910163 [Eh]
	 Opposite-Spin Energy      =      -2.1124166862709752 [Eh]
	 Correlation Energy        =      -2.8039523397619917 [Eh]
	 Total Energy              =    -630.9882530878703619 [Eh]

	 ================> DF-SCS-MP2 Energies <==================
	-----------------------------------------------------------
	 SCS Same-Spin Scale       =       0.3333333333333333 [-]
	 SCS Opposite-Spin Scale   =       1.2000000000000000 [-]
	 SCS Same-Spin Energy      =      -0.2305118844970054 [Eh]
	 SCS Opposite-Spin Energy  =      -2.5349000235251702 [Eh]
	 SCS Correlation Energy    =      -2.7654119080221755 [Eh]
	 SCS Total Energy          =    -630.9497126561306004 [Eh]
	-----------------------------------------------------------

  Dipole Moment: [D]
     X:     0.2811      Y:    -1.6145      Z:    -0.1285     Total:     1.6438

*** Psi4 exiting successfully. Buy a developer a beer!
