                               Psi4 1.4a3.dev225

  ==> Input File <==

--------------------------------------------------------------------------
#psi4
#
memory 32 gb

molecule  {
0 1
  O       -0.0417540     2.1858230    -0.3073980
  N        2.4805920     1.9330880     0.7500480
  C        1.1160800     0.1042180    -0.1414450
  C       -1.4416830     0.3069060    -0.0388060
  C       -0.1185674     0.9430200    -0.1710142
  C        2.3683100     0.6434780     0.2543940
  C        1.0541080    -1.2200940    -0.6155900
  C        3.4881200    -0.2081800     0.2578510
  C       -1.6559060    -0.7921710     0.8065690
  C       -2.5248970     0.8906690    -0.7109620
  C        2.1811870    -2.0318670    -0.6465910
  C        3.4033030    -1.5159070    -0.2032770
  C       -2.9440810    -1.3050920     0.9648860
  C       -3.8044560     0.3593180    -0.5664320
  C       -4.0170070    -0.7392060     0.2722830
  H        0.1024420    -1.6051810    -0.9713120
  H        4.4463530     0.1894450     0.5890330
  H       -0.8230280    -1.2242950     1.3551890
  H       -2.3449380     1.7597130    -1.3385060
  H        2.1152040    -3.0473210    -1.0273030
  H        4.2948280    -2.1392510    -0.2075020
  H       -3.1109310    -2.1478130     1.6315680
  H       -4.6398270     0.8046650    -1.1014830
  H       -5.0175780    -1.1483650     0.3907290
  H        1.7883890     2.5757360     0.3792320
  H        3.4241960     2.3021350     0.7487690
units angstrom
no_reorient  #important for SAPT in psi4, default
symmetry c1  #important for SAPT in psi4, default
}

set PROPERTIES_ORIGIN ["COM"]
properties('MP2/aug-cc-pvtz', properties = ['dipole'])
--------------------------------------------------------------------------

    Molecular point group: c1
  Charge       = 0
  Multiplicity = 1
  Basis Set: AUG-CC-PVTZ
    Blend: AUG-CC-PVTZ
  Basis Set: (AUG-CC-PVTZ AUX)
    Blend: AUG-CC-PVTZ-JKFIT

    Orbital Energies [Eh]
    ---------------------

    Doubly Occupied:

       1A    -20.540236     2A    -15.560827     3A    -11.341861
       4A    -11.298301     5A    -11.254382     6A    -11.253585
       7A    -11.253228     8A    -11.253146     9A    -11.250676
      10A    -11.249493    11A    -11.246970    12A    -11.245516
      13A    -11.241519    14A    -11.232994    15A    -11.229131
      16A     -1.367801    17A     -1.227348    18A     -1.166239
      19A     -1.137738    20A     -1.058707    21A     -1.027998
      22A     -1.021625    23A     -0.996746    24A     -0.894794
      25A     -0.849448    26A     -0.839928    27A     -0.820113
      28A     -0.770777    29A     -0.718357    30A     -0.702091
      31A     -0.687496    32A     -0.670513    33A     -0.648219
      34A     -0.634837    35A     -0.615772    36A     -0.610800
      37A     -0.604105    38A     -0.598321    39A     -0.585462
      40A     -0.553444    41A     -0.534612    42A     -0.527244
      43A     -0.520355    44A     -0.509107    45A     -0.503410
      46A     -0.489189    47A     -0.453156    48A     -0.422720
      49A     -0.351794    50A     -0.347288    51A     -0.345468
      52A     -0.301177

  @DF-RHF Final Energy:  -628.22450713578894

   => Energetics <=

    Nuclear Repulsion Energy =            893.1814149281610753
    One-Electron Energy =               -2625.6797137399898929
    Two-Electron Energy =                1104.2737916760399912
    Total Energy =                       -628.2245071357888264
  Basis Set: (AUG-CC-PVTZ AUX)
    Blend: AUG-CC-PVTZ-RI
    Molecular point group: c1

    Geometry (in Angstrom), charge = 0, multiplicity = 1:

       Center              X                  Y                   Z               Mass
    ------------   -----------------  -----------------  -----------------  -----------------
         O           -0.039517079561     2.167845908263    -0.305269392284    15.994914619570
         N            2.482828920439     1.915110908263     0.752176607716    14.003074004430
         C            1.118316920439     0.086240908263    -0.139316392284    12.000000000000
         C           -1.439446079561     0.288928908263    -0.036677392284    12.000000000000
         C           -0.116330479561     0.925042908263    -0.168885592284    12.000000000000
         C            2.370546920439     0.625500908263     0.256522607716    12.000000000000
         C            1.056344920439    -1.238071091737    -0.613461392284    12.000000000000
         C            3.490356920439    -0.226157091737     0.259979607716    12.000000000000
         C           -1.653669079561    -0.810148091737     0.808697607716    12.000000000000
         C           -2.522660079561     0.872691908263    -0.708833392284    12.000000000000
         C            2.183423920439    -2.049844091737    -0.644462392284    12.000000000000
         C            3.405539920439    -1.533884091737    -0.201148392284    12.000000000000
         C           -2.941844079561    -1.323069091737     0.967014607716    12.000000000000
         C           -3.802219079561     0.341340908263    -0.564303392284    12.000000000000
         C           -4.014770079561    -0.757183091737     0.274411607716    12.000000000000
         H            0.104678920439    -1.623158091737    -0.969183392284     1.007825032230
         H            4.448589920439     0.171467908263     0.591161607716     1.007825032230
         H           -0.820791079561    -1.242272091737     1.357317607716     1.007825032230
         H           -2.342701079561     1.741735908263    -1.336377392284     1.007825032230
         H            2.117440920439    -3.065298091737    -1.025174392284     1.007825032230
         H            4.297064920439    -2.157228091737    -0.205373392284     1.007825032230
         H           -3.108694079561    -2.165790091737     1.633696607716     1.007825032230
         H           -4.637590079561     0.786687908263    -1.099354392284     1.007825032230
         H           -5.015341079561    -1.166342091737     0.392857607716     1.007825032230
         H            1.790625920439     2.557758908263     0.381360607716     1.007825032230
         H            3.426432920439     2.284157908263     0.750897607716     1.007825032230

  Basis Set: AUG-CC-PVTZ
    Blend: AUG-CC-PVTZ
  Basis Set: (AUG-CC-PVTZ AUX)
    Blend: AUG-CC-PVTZ-JKFIT
	 Reference Energy          =    -628.2245071357889401 [Eh]
	 Singles Energy            =      -0.0000000000000000 [Eh]
	 Same-Spin Energy          =      -0.6918908757404395 [Eh]
	 Opposite-Spin Energy      =      -2.1102481333739425 [Eh]
	 Correlation Energy        =      -2.8021390091143821 [Eh]
	 Total Energy              =    -631.0266461449033386 [Eh]

	 ================> DF-SCS-MP2 Energies <==================
	-----------------------------------------------------------
	 SCS Same-Spin Scale       =       0.3333333333333333 [-]
	 SCS Opposite-Spin Scale   =       1.2000000000000000 [-]
	 SCS Same-Spin Energy      =      -0.2306302919134798 [Eh]
	 SCS Opposite-Spin Energy  =      -2.5322977600487309 [Eh]
	 SCS Correlation Energy    =      -2.7629280519622106 [Eh]
	 SCS Total Energy          =    -630.9874351877512026 [Eh]
	-----------------------------------------------------------

  Dipole Moment: [D]
     X:     0.1776      Y:    -1.6722      Z:    -0.0858     Total:     1.6838

*** Psi4 exiting successfully. Buy a developer a beer!
