                               Psi4 1.4a3.dev225

  ==> Input File <==

--------------------------------------------------------------------------
#psi4
#
memory 32 gb

molecule  {
0 1
  O       -0.0417540     2.1858230    -0.3073980
  N        2.4805920     1.9330880     0.7500480
  C        1.1160800     0.1042180    -0.1414450
  C       -1.4416830     0.3069060    -0.0388060
  C       -0.1006150     0.9516510    -0.1728080
  C        2.4124117     0.6624699     0.2683349
  C        1.0541080    -1.2200940    -0.6155900
  C        3.4881200    -0.2081800     0.2578510
  C       -1.6559060    -0.7921710     0.8065690
  C       -2.5248970     0.8906690    -0.7109620
  C        2.1811870    -2.0318670    -0.6465910
  C        3.4033030    -1.5159070    -0.2032770
  C       -2.9440810    -1.3050920     0.9648860
  C       -3.8044560     0.3593180    -0.5664320
  C       -4.0170070    -0.7392060     0.2722830
  H        0.1024420    -1.6051810    -0.9713120
  H        4.4463530     0.1894450     0.5890330
  H       -0.8230280    -1.2242950     1.3551890
  H       -2.3449380     1.7597130    -1.3385060
  H        2.1152040    -3.0473210    -1.0273030
  H        4.2948280    -2.1392510    -0.2075020
  H       -3.1109310    -2.1478130     1.6315680
  H       -4.6398270     0.8046650    -1.1014830
  H       -5.0175780    -1.1483650     0.3907290
  H        1.7883890     2.5757360     0.3792320
  H        3.4241960     2.3021350     0.7487690
units angstrom
no_reorient  #important for SAPT in psi4, default
symmetry c1  #important for SAPT in psi4, default
}

set PROPERTIES_ORIGIN ["COM"]
properties('MP2/aug-cc-pvtz', properties = ['dipole'])
--------------------------------------------------------------------------

    Molecular point group: c1
  Charge       = 0
  Multiplicity = 1
  Basis Set: AUG-CC-PVTZ
    Blend: AUG-CC-PVTZ
  Basis Set: (AUG-CC-PVTZ AUX)
    Blend: AUG-CC-PVTZ-JKFIT

    Orbital Energies [Eh]
    ---------------------

    Doubly Occupied:

       1A    -20.540243     2A    -15.565257     3A    -11.340613
       4A    -11.300649     5A    -11.255684     6A    -11.254405
       7A    -11.251932     8A    -11.250963     9A    -11.249598
      10A    -11.247532    11A    -11.245307    12A    -11.243955
      13A    -11.243945    14A    -11.229465    15A    -11.228420
      16A     -1.373323    17A     -1.237898    18A     -1.163771
      19A     -1.138223    20A     -1.056317    21A     -1.025861
      22A     -1.019998    23A     -0.997062    24A     -0.893330
      25A     -0.848135    26A     -0.837000    27A     -0.819433
      28A     -0.770370    29A     -0.716888    30A     -0.705079
      31A     -0.693518    32A     -0.672374    33A     -0.647270
      34A     -0.634170    35A     -0.614185    36A     -0.611186
      37A     -0.603996    38A     -0.596670    39A     -0.586814
      40A     -0.555006    41A     -0.538543    42A     -0.527017
      43A     -0.519905    44A     -0.504252    45A     -0.501771
      46A     -0.490578    47A     -0.457315    48A     -0.420958
      49A     -0.351506    50A     -0.345643    51A     -0.343987
      52A     -0.299238

  @DF-RHF Final Energy:  -628.22283806820360

   => Energetics <=

    Nuclear Repulsion Energy =            892.6752034628077581
    One-Electron Energy =               -2624.6629748205273245
    Two-Electron Energy =                1103.7649332895159660
    Total Energy =                       -628.2228380682036004
  Basis Set: (AUG-CC-PVTZ AUX)
    Blend: AUG-CC-PVTZ-RI
    Molecular point group: c1

    Geometry (in Angstrom), charge = 0, multiplicity = 1:

       Center              X                  Y                   Z               Mass
    ------------   -----------------  -----------------  -----------------  -----------------
         O           -0.043295412446     2.166164012765    -0.306009001550    15.994914619570
         N            2.479050587554     1.913429012765     0.751436998450    14.003074004430
         C            1.114538587554     0.084559012765    -0.140056001550    12.000000000000
         C           -1.443224412446     0.287247012765    -0.037417001550    12.000000000000
         C           -0.102156412446     0.931992012765    -0.171419001550    12.000000000000
         C            2.410870287554     0.642810912765     0.269723898450    12.000000000000
         C            1.052566587554    -1.239752987235    -0.614201001550    12.000000000000
         C            3.486578587554    -0.227838987235     0.259239998450    12.000000000000
         C           -1.657447412446    -0.811829987235     0.807957998450    12.000000000000
         C           -2.526438412446     0.871010012765    -0.709573001550    12.000000000000
         C            2.179645587554    -2.051525987235    -0.645202001550    12.000000000000
         C            3.401761587554    -1.535565987235    -0.201888001550    12.000000000000
         C           -2.945622412446    -1.324750987235     0.966274998450    12.000000000000
         C           -3.805997412446     0.339659012765    -0.565043001550    12.000000000000
         C           -4.018548412446    -0.758864987235     0.273671998450    12.000000000000
         H            0.100900587554    -1.624839987235    -0.969923001550     1.007825032230
         H            4.444811587554     0.169786012765     0.590421998450     1.007825032230
         H           -0.824569412446    -1.243953987235     1.356577998450     1.007825032230
         H           -2.346479412446     1.740054012765    -1.337117001550     1.007825032230
         H            2.113662587554    -3.066979987235    -1.025914001550     1.007825032230
         H            4.293286587554    -2.158909987235    -0.206113001550     1.007825032230
         H           -3.112472412446    -2.167471987235     1.632956998450     1.007825032230
         H           -4.641368412446     0.785006012765    -1.100094001550     1.007825032230
         H           -5.019119412446    -1.168023987235     0.392117998450     1.007825032230
         H            1.786847587554     2.556077012765     0.380620998450     1.007825032230
         H            3.422654587554     2.282476012765     0.750157998450     1.007825032230

  Basis Set: AUG-CC-PVTZ
    Blend: AUG-CC-PVTZ
  Basis Set: (AUG-CC-PVTZ AUX)
    Blend: AUG-CC-PVTZ-JKFIT
	 Reference Energy          =    -628.2228380682036004 [Eh]
	 Singles Energy            =      -0.0000000000000000 [Eh]
	 Same-Spin Energy          =      -0.6917776578312600 [Eh]
	 Opposite-Spin Energy      =      -2.1096737449558605 [Eh]
	 Correlation Energy        =      -2.8014514027871202 [Eh]
	 Total Energy              =    -631.0242894709907659 [Eh]

	 ================> DF-SCS-MP2 Energies <==================
	-----------------------------------------------------------
	 SCS Same-Spin Scale       =       0.3333333333333333 [-]
	 SCS Opposite-Spin Scale   =       1.2000000000000000 [-]
	 SCS Same-Spin Energy      =      -0.2305925526104200 [Eh]
	 SCS Opposite-Spin Energy  =      -2.5316084939470325 [Eh]
	 SCS Correlation Energy    =      -2.7622010465574522 [Eh]
	 SCS Total Energy          =    -630.9850391147610935 [Eh]
	-----------------------------------------------------------

  Dipole Moment: [D]
     X:     0.4042      Y:    -1.5050      Z:    -0.0464     Total:     1.5590

*** Psi4 exiting successfully. Buy a developer a beer!
