                               Psi4 1.4a3.dev225

  ==> Input File <==

--------------------------------------------------------------------------
#psi4
#
memory 32 gb

molecule  {
0 1
  O       -0.0417540     2.1858230    -0.3073980
  N        2.4805920     1.9330880     0.7500480
  C        1.1160800     0.1042180    -0.1414450
  C       -1.4416830     0.3069060    -0.0388060
  C       -0.1006150     0.9516510    -0.1728080
  C        2.3642598     0.5969599     0.2365150
  C        1.0541080    -1.2200940    -0.6155900
  C        3.4881200    -0.2081800     0.2578510
  C       -1.6559060    -0.7921710     0.8065690
  C       -2.5248970     0.8906690    -0.7109620
  C        2.1811870    -2.0318670    -0.6465910
  C        3.4033030    -1.5159070    -0.2032770
  C       -2.9440810    -1.3050920     0.9648860
  C       -3.8044560     0.3593180    -0.5664320
  C       -4.0170070    -0.7392060     0.2722830
  H        0.1024420    -1.6051810    -0.9713120
  H        4.4463530     0.1894450     0.5890330
  H       -0.8230280    -1.2242950     1.3551890
  H       -2.3449380     1.7597130    -1.3385060
  H        2.1152040    -3.0473210    -1.0273030
  H        4.2948280    -2.1392510    -0.2075020
  H       -3.1109310    -2.1478130     1.6315680
  H       -4.6398270     0.8046650    -1.1014830
  H       -5.0175780    -1.1483650     0.3907290
  H        1.7883890     2.5757360     0.3792320
  H        3.4241960     2.3021350     0.7487690
units angstrom
no_reorient  #important for SAPT in psi4, default
symmetry c1  #important for SAPT in psi4, default
}

set PROPERTIES_ORIGIN ["COM"]
properties('MP2/aug-cc-pvtz', properties = ['dipole'])
--------------------------------------------------------------------------

    Molecular point group: c1
  Charge       = 0
  Multiplicity = 1
  Basis Set: AUG-CC-PVTZ
    Blend: AUG-CC-PVTZ
  Basis Set: (AUG-CC-PVTZ AUX)
    Blend: AUG-CC-PVTZ-JKFIT

    Orbital Energies [Eh]
    ---------------------

    Doubly Occupied:

       1A    -20.543097     2A    -15.554785     3A    -11.343651
       4A    -11.294314     5A    -11.255418     6A    -11.255196
       7A    -11.253634     8A    -11.252305     9A    -11.251408
      10A    -11.249067    11A    -11.246655    12A    -11.245210
      13A    -11.241525    14A    -11.233490    15A    -11.232679
      16A     -1.375331    17A     -1.214238    18A     -1.165153
      19A     -1.137670    20A     -1.059974    21A     -1.027886
      22A     -1.023317    23A     -1.001363    24A     -0.895589
      25A     -0.851497    26A     -0.840079    27A     -0.819941
      28A     -0.771805    29A     -0.720129    30A     -0.698343
      31A     -0.682322    32A     -0.667037    33A     -0.648779
      34A     -0.633982    35A     -0.618526    36A     -0.611691
      37A     -0.603808    38A     -0.598107    39A     -0.587745
      40A     -0.554865    41A     -0.535347    42A     -0.527127
      43A     -0.520996    44A     -0.511706    45A     -0.503177
      46A     -0.490453    47A     -0.446863    48A     -0.424320
      49A     -0.353483    50A     -0.347249    51A     -0.345453
      52A     -0.308131

  @DF-RHF Final Energy:  -628.22315406675114

   => Energetics <=

    Nuclear Repulsion Energy =            893.5068867981032099
    One-Electron Energy =               -2626.3082454091345426
    Two-Electron Energy =                1104.5782045442801973
    Total Energy =                       -628.2231540667512490
  Basis Set: (AUG-CC-PVTZ AUX)
    Blend: AUG-CC-PVTZ-RI
    Molecular point group: c1

    Geometry (in Angstrom), charge = 0, multiplicity = 1:

       Center              X                  Y                   Z               Mass
    ------------   -----------------  -----------------  -----------------  -----------------
         O           -0.040363552871     2.170152767533    -0.304071560276    15.994914619570
         N            2.481982447129     1.917417767533     0.753374439724    14.003074004430
         C            1.117470447129     0.088547767533    -0.138118560276    12.000000000000
         C           -1.440292552871     0.291235767533    -0.035479560276    12.000000000000
         C           -0.099224552871     0.935980767533    -0.169481560276    12.000000000000
         C            2.365650247129     0.581289667533     0.239841439724    12.000000000000
         C            1.055498447129    -1.235764232467    -0.612263560276    12.000000000000
         C            3.489510447129    -0.223850232467     0.261177439724    12.000000000000
         C           -1.654515552871    -0.807841232467     0.809895439724    12.000000000000
         C           -2.523506552871     0.874998767533    -0.707635560276    12.000000000000
         C            2.182577447129    -2.047537232467    -0.643264560276    12.000000000000
         C            3.404693447129    -1.531577232467    -0.199950560276    12.000000000000
         C           -2.942690552871    -1.320762232467     0.968212439724    12.000000000000
         C           -3.803065552871     0.343647767533    -0.563105560276    12.000000000000
         C           -4.015616552871    -0.754876232467     0.275609439724    12.000000000000
         H            0.103832447129    -1.620851232467    -0.967985560276     1.007825032230
         H            4.447743447129     0.173774767533     0.592359439724     1.007825032230
         H           -0.821637552871    -1.239965232467     1.358515439724     1.007825032230
         H           -2.343547552871     1.744042767533    -1.335179560276     1.007825032230
         H            2.116594447129    -3.062991232467    -1.023976560276     1.007825032230
         H            4.296218447129    -2.154921232467    -0.204175560276     1.007825032230
         H           -3.109540552871    -2.163483232467     1.634894439724     1.007825032230
         H           -4.638436552871     0.788994767533    -1.098156560276     1.007825032230
         H           -5.016187552871    -1.164035232467     0.394055439724     1.007825032230
         H            1.789779447129     2.560065767533     0.382558439724     1.007825032230
         H            3.425586447129     2.286464767533     0.752095439724     1.007825032230

  Basis Set: AUG-CC-PVTZ
    Blend: AUG-CC-PVTZ
  Basis Set: (AUG-CC-PVTZ AUX)
    Blend: AUG-CC-PVTZ-JKFIT
	 Reference Energy          =    -628.2231540667511354 [Eh]
	 Singles Energy            =      -0.0000000000000000 [Eh]
	 Same-Spin Energy          =      -0.6913947536177401 [Eh]
	 Opposite-Spin Energy      =      -2.1097932263980872 [Eh]
	 Correlation Energy        =      -2.8011879800158273 [Eh]
	 Total Energy              =    -631.0243420467669466 [Eh]

	 ================> DF-SCS-MP2 Energies <==================
	-----------------------------------------------------------
	 SCS Same-Spin Scale       =       0.3333333333333333 [-]
	 SCS Opposite-Spin Scale   =       1.2000000000000000 [-]
	 SCS Same-Spin Energy      =      -0.2304649178725800 [Eh]
	 SCS Opposite-Spin Energy  =      -2.5317518716777045 [Eh]
	 SCS Correlation Energy    =      -2.7622167895502847 [Eh]
	 SCS Total Energy          =    -630.9853708563014152 [Eh]
	-----------------------------------------------------------

  Dipole Moment: [D]
     X:     0.2338      Y:    -1.9318      Z:    -0.2242     Total:     1.9588

*** Psi4 exiting successfully. Buy a developer a beer!
