                               Psi4 1.3.2 release

  ==> Input File <==

--------------------------------------------------------------------------
#psi4
#
memory 32 gb

molecule  {
0 1
  O       -0.0417540     2.1858230    -0.3073980
  N        2.4805920     1.9330880     0.7500480
  C        1.1056159     0.1263718    -0.1377470
  C       -1.4416830     0.3069060    -0.0388060
  C       -0.1006150     0.9516510    -0.1728080
  C        2.3683100     0.6434780     0.2543940
  C        1.0541080    -1.2200940    -0.6155900
  C        3.4881200    -0.2081800     0.2578510
  C       -1.6559060    -0.7921710     0.8065690
  C       -2.5248970     0.8906690    -0.7109620
  C        2.1811870    -2.0318670    -0.6465910
  C        3.4033030    -1.5159070    -0.2032770
  C       -2.9440810    -1.3050920     0.9648860
  C       -3.8044560     0.3593180    -0.5664320
  C       -4.0170070    -0.7392060     0.2722830
  H        0.1024420    -1.6051810    -0.9713120
  H        4.4463530     0.1894450     0.5890330
  H       -0.8230280    -1.2242950     1.3551890
  H       -2.3449380     1.7597130    -1.3385060
  H        2.1152040    -3.0473210    -1.0273030
  H        4.2948280    -2.1392510    -0.2075020
  H       -3.1109310    -2.1478130     1.6315680
  H       -4.6398270     0.8046650    -1.1014830
  H       -5.0175780    -1.1483650     0.3907290
  H        1.7883890     2.5757360     0.3792320
  H        3.4241960     2.3021350     0.7487690
units angstrom
no_reorient  #important for SAPT in psi4, default
symmetry c1  #important for SAPT in psi4, default
}

set PROPERTIES_ORIGIN ["COM"]
properties('MP2/aug-cc-pvtz', properties = ['dipole'])
--------------------------------------------------------------------------

    Molecular point group: c1
  Charge       = 0
  Multiplicity = 1
  Basis Set: AUG-CC-PVTZ
    Blend: AUG-CC-PVTZ
  Basis Set: (AUG-CC-PVTZ AUX)
    Blend: AUG-CC-PVTZ-JKFIT

    Orbital Energies [Eh]
    ---------------------

    Doubly Occupied:

       1A    -20.539382     2A    -15.561789     3A    -11.339283
       4A    -11.300186     5A    -11.257081     6A    -11.256145
       7A    -11.252252     8A    -11.251144     9A    -11.249909
      10A    -11.247720    11A    -11.245543    12A    -11.244116
      13A    -11.240866    14A    -11.234544    15A    -11.230676
      16A     -1.373529    17A     -1.228824    18A     -1.163984
      19A     -1.137141    20A     -1.058143    21A     -1.026106
      22A     -1.020477    23A     -0.998424    24A     -0.894999
      25A     -0.850477    26A     -0.838568    27A     -0.819154
      28A     -0.770433    29A     -0.718620    30A     -0.702579
      31A     -0.688249    32A     -0.671171    33A     -0.647375
      34A     -0.634643    35A     -0.616021    36A     -0.611808
      37A     -0.604625    38A     -0.596858    39A     -0.585476
      40A     -0.554975    41A     -0.536305    42A     -0.526331
      43A     -0.519745    44A     -0.508947    45A     -0.501985
      46A     -0.489921    47A     -0.453510    48A     -0.422946
      49A     -0.350764    50A     -0.345834    51A     -0.344049
      52A     -0.303192

  @DF-RHF Final Energy:  -628.22503054655090

   => Energetics <=

    Nuclear Repulsion Energy =            893.2390348592413147
    One-Electron Energy =               -2625.7944831884283303
    Two-Electron Energy =                1104.3304177826362320
    Total Energy =                       -628.2250305465508973
  Basis Set: (AUG-CC-PVTZ AUX)
    Blend: AUG-CC-PVTZ-RI
    Molecular point group: c1

    Geometry (in Angstrom), charge = 0, multiplicity = 1:

       Center              X                  Y                   Z               Mass
    ------------   -----------------  -----------------  -----------------  -----------------
         O           -0.039973025101     2.165971491872    -0.305385334687    15.994914619570
         N            2.482372974899     1.913236491872     0.752060665313    14.003074004430
         C            1.107396874899     0.106520291872    -0.135734334687    12.000000000000
         C           -1.439902025101     0.287054491872    -0.036793334687    12.000000000000
         C           -0.098834025101     0.931799491872    -0.170795334687    12.000000000000
         C            2.370090974899     0.623626491872     0.256406665313    12.000000000000
         C            1.055888974899    -1.239945508128    -0.613577334687    12.000000000000
         C            3.489900974899    -0.228031508128     0.259863665313    12.000000000000
         C           -1.654125025101    -0.812022508128     0.808581665313    12.000000000000
         C           -2.523116025101     0.870817491872    -0.708949334687    12.000000000000
         C            2.182967974899    -2.051718508128    -0.644578334687    12.000000000000
         C            3.405083974899    -1.535758508128    -0.201264334687    12.000000000000
         C           -2.942300025101    -1.324943508128     0.966898665313    12.000000000000
         C           -3.802675025101     0.339466491872    -0.564419334687    12.000000000000
         C           -4.015226025101    -0.759057508128     0.274295665313    12.000000000000
         H            0.104222974899    -1.625032508128    -0.969299334687     1.007825032230
         H            4.448133974899     0.169593491872     0.591045665313     1.007825032230
         H           -0.821247025101    -1.244146508128     1.357201665313     1.007825032230
         H           -2.343157025101     1.739861491872    -1.336493334687     1.007825032230
         H            2.116984974899    -3.067172508128    -1.025290334687     1.007825032230
         H            4.296608974899    -2.159102508128    -0.205489334687     1.007825032230
         H           -3.109150025101    -2.167664508128     1.633580665313     1.007825032230
         H           -4.638046025101     0.784813491872    -1.099470334687     1.007825032230
         H           -5.015797025101    -1.168216508128     0.392741665313     1.007825032230
         H            1.790169974899     2.555884491872     0.381244665313     1.007825032230
         H            3.425976974899     2.282283491872     0.750781665313     1.007825032230

  Basis Set: AUG-CC-PVTZ
    Blend: AUG-CC-PVTZ
  Basis Set: (AUG-CC-PVTZ AUX)
    Blend: AUG-CC-PVTZ-JKFIT
	 Reference Energy          =    -628.2250305465508973 [Eh]
	 Singles Energy            =      -0.0000000000000000 [Eh]
	 Same-Spin Energy          =      -0.6916595945480228 [Eh]
	 Opposite-Spin Energy      =      -2.1098411645494308 [Eh]
	 Correlation Energy        =      -2.8015007590974537 [Eh]
	 Total Energy              =    -631.0265313056484047 [Eh]

	 ================> DF-SCS-MP2 Energies <==================
	-----------------------------------------------------------
	 SCS Same-Spin Scale       =       0.3333333333333333 [-]
	 SCS Opposite-Spin Scale   =       1.2000000000000000 [-]
	 SCS Same-Spin Energy      =      -0.2305531981826743 [Eh]
	 SCS Opposite-Spin Energy  =      -2.5318093974593170 [Eh]
	 SCS Correlation Energy    =      -2.7623625956419913 [Eh]
	 SCS Total Energy          =    -630.9873931421929001 [Eh]
	-----------------------------------------------------------

  Dipole Moment: [D]
     X:     0.4382      Y:    -1.6813      Z:    -0.0967     Total:     1.7401

*** Psi4 exiting successfully. Buy a developer a beer!
