                               Psi4 1.3.2 release

  ==> Input File <==

--------------------------------------------------------------------------
#psi4
#
memory 32 gb

molecule  {
0 1
  O       -0.0417540     2.1858230    -0.3073980
  N        2.4805920     1.9330880     0.7500480
  C        1.0681046     0.1089686    -0.1509902
  C       -1.4416830     0.3069060    -0.0388060
  C       -0.1006150     0.9516510    -0.1728080
  C        2.3683100     0.6434780     0.2543940
  C        1.0541080    -1.2200940    -0.6155900
  C        3.4881200    -0.2081800     0.2578510
  C       -1.6559060    -0.7921710     0.8065690
  C       -2.5248970     0.8906690    -0.7109620
  C        2.1811870    -2.0318670    -0.6465910
  C        3.4033030    -1.5159070    -0.2032770
  C       -2.9440810    -1.3050920     0.9648860
  C       -3.8044560     0.3593180    -0.5664320
  C       -4.0170070    -0.7392060     0.2722830
  H        0.1024420    -1.6051810    -0.9713120
  H        4.4463530     0.1894450     0.5890330
  H       -0.8230280    -1.2242950     1.3551890
  H       -2.3449380     1.7597130    -1.3385060
  H        2.1152040    -3.0473210    -1.0273030
  H        4.2948280    -2.1392510    -0.2075020
  H       -3.1109310    -2.1478130     1.6315680
  H       -4.6398270     0.8046650    -1.1014830
  H       -5.0175780    -1.1483650     0.3907290
  H        1.7883890     2.5757360     0.3792320
  H        3.4241960     2.3021350     0.7487690
units angstrom
no_reorient  #important for SAPT in psi4, default
symmetry c1  #important for SAPT in psi4, default
}

set PROPERTIES_ORIGIN ["COM"]
properties('MP2/aug-cc-pvtz', properties = ['dipole'])
--------------------------------------------------------------------------

    Molecular point group: c1
  Charge       = 0
  Multiplicity = 1
  Basis Set: AUG-CC-PVTZ
    Blend: AUG-CC-PVTZ
  Basis Set: (AUG-CC-PVTZ AUX)
    Blend: AUG-CC-PVTZ-JKFIT

    Orbital Energies [Eh]
    ---------------------

    Doubly Occupied:

       1A    -20.538739     2A    -15.564403     3A    -11.337561
       4A    -11.306118     5A    -11.257827     6A    -11.256823
       7A    -11.251476     8A    -11.250471     9A    -11.248509
      10A    -11.246767    11A    -11.244961    12A    -11.243484
      13A    -11.241874    14A    -11.233708    15A    -11.230129
      16A     -1.373154    17A     -1.228433    18A     -1.163623
      19A     -1.138339    20A     -1.061028    21A     -1.025734
      22A     -1.020949    23A     -0.996357    24A     -0.897277
      25A     -0.848790    26A     -0.837200    27A     -0.819674
      28A     -0.771205    29A     -0.718557    30A     -0.702932
      31A     -0.690884    32A     -0.671873    33A     -0.647228
      34A     -0.633852    35A     -0.615191    36A     -0.610330
      37A     -0.604992    38A     -0.596332    39A     -0.587128
      40A     -0.554243    41A     -0.538411    42A     -0.525620
      43A     -0.519231    44A     -0.505773    45A     -0.501470
      46A     -0.489259    47A     -0.455261    48A     -0.423402
      49A     -0.353401    50A     -0.345712    51A     -0.343672
      52A     -0.300418

  @DF-RHF Final Energy:  -628.22259442098380

   => Energetics <=

    Nuclear Repulsion Energy =            893.2804361923696206
    One-Electron Energy =               -2625.8664899949808387
    Two-Electron Energy =                1104.3634593816275355
    Total Energy =                       -628.2225944209837962
  Basis Set: (AUG-CC-PVTZ AUX)
    Blend: AUG-CC-PVTZ-RI
    Molecular point group: c1

    Geometry (in Angstrom), charge = 0, multiplicity = 1:

       Center              X                  Y                   Z               Mass
    ------------   -----------------  -----------------  -----------------  -----------------
         O           -0.037689047437     2.167031133102    -0.304578986387    15.994914619570
         N            2.484656952563     1.914296133102     0.752867013613    14.003074004430
         C            1.072169552563     0.090176733102    -0.148171186387    12.000000000000
         C           -1.437618047437     0.288114133102    -0.035986986387    12.000000000000
         C           -0.096550047437     0.932859133102    -0.169988986387    12.000000000000
         C            2.372374952563     0.624686133102     0.257213013613    12.000000000000
         C            1.058172952563    -1.238885866898    -0.612770986387    12.000000000000
         C            3.492184952563    -0.226971866898     0.260670013613    12.000000000000
         C           -1.651841047437    -0.810962866898     0.809388013613    12.000000000000
         C           -2.520832047437     0.871877133102    -0.708142986387    12.000000000000
         C            2.185251952563    -2.050658866898    -0.643771986387    12.000000000000
         C            3.407367952563    -1.534698866898    -0.200457986387    12.000000000000
         C           -2.940016047437    -1.323883866898     0.967705013613    12.000000000000
         C           -3.800391047437     0.340526133102    -0.563612986387    12.000000000000
         C           -4.012942047437    -0.757997866898     0.275102013613    12.000000000000
         H            0.106506952563    -1.623972866898    -0.968492986387     1.007825032230
         H            4.450417952563     0.170653133102     0.591852013613     1.007825032230
         H           -0.818963047437    -1.243086866898     1.358008013613     1.007825032230
         H           -2.340873047437     1.740921133102    -1.335686986387     1.007825032230
         H            2.119268952563    -3.066112866898    -1.024483986387     1.007825032230
         H            4.298892952563    -2.158042866898    -0.204682986387     1.007825032230
         H           -3.106866047437    -2.166604866898     1.634387013613     1.007825032230
         H           -4.635762047437     0.785873133102    -1.098663986387     1.007825032230
         H           -5.013513047437    -1.167156866898     0.393548013613     1.007825032230
         H            1.792453952563     2.556944133102     0.382051013613     1.007825032230
         H            3.428260952563     2.283343133102     0.751588013613     1.007825032230

  Basis Set: AUG-CC-PVTZ
    Blend: AUG-CC-PVTZ
  Basis Set: (AUG-CC-PVTZ AUX)
    Blend: AUG-CC-PVTZ-JKFIT
	 Reference Energy          =    -628.2225944209837962 [Eh]
	 Singles Energy            =      -0.0000000000000000 [Eh]
	 Same-Spin Energy          =      -0.6918984743700411 [Eh]
	 Opposite-Spin Energy      =      -2.1100582924471585 [Eh]
	 Correlation Energy        =      -2.8019567668171996 [Eh]
	 Total Energy              =    -631.0245511878009665 [Eh]

	 ================> DF-SCS-MP2 Energies <==================
	-----------------------------------------------------------
	 SCS Same-Spin Scale       =       0.3333333333333333 [-]
	 SCS Opposite-Spin Scale   =       1.2000000000000000 [-]
	 SCS Same-Spin Energy      =      -0.2306328247900137 [Eh]
	 SCS Opposite-Spin Energy  =      -2.5320699509365903 [Eh]
	 SCS Correlation Energy    =      -2.7627027757266038 [Eh]
	 SCS Total Energy          =    -630.9852971967103485 [Eh]
	-----------------------------------------------------------

  Dipole Moment: [D]
     X:     0.5414      Y:    -1.6539      Z:    -0.0755     Total:     1.7419

*** Psi4 exiting successfully. Buy a developer a beer!
