                               Psi4 1.3.2 release

  ==> Input File <==

--------------------------------------------------------------------------
#psi4
#
memory 32 gb

molecule  {
0 1
  O       -0.0417540     2.1858230    -0.3073980
  N        2.4805920     1.9330880     0.7500480
  C        1.1160800     0.1042180    -0.1414450
  C       -1.4416830     0.3069060    -0.0388060
  C       -0.1772838     0.8255721    -0.2210146
  C        2.3683100     0.6434780     0.2543940
  C        1.0541080    -1.2200940    -0.6155900
  C        3.4881200    -0.2081800     0.2578510
  C       -1.6559060    -0.7921710     0.8065690
  C       -2.5248970     0.8906690    -0.7109620
  C        2.1811870    -2.0318670    -0.6465910
  C        3.4033030    -1.5159070    -0.2032770
  C       -2.9440810    -1.3050920     0.9648860
  C       -3.8044560     0.3593180    -0.5664320
  C       -4.0170070    -0.7392060     0.2722830
  H        0.1024420    -1.6051810    -0.9713120
  H        4.4463530     0.1894450     0.5890330
  H       -0.8230280    -1.2242950     1.3551890
  H       -2.3449380     1.7597130    -1.3385060
  H        2.1152040    -3.0473210    -1.0273030
  H        4.2948280    -2.1392510    -0.2075020
  H       -3.1109310    -2.1478130     1.6315680
  H       -4.6398270     0.8046650    -1.1014830
  H       -5.0175780    -1.1483650     0.3907290
  H        1.7883890     2.5757360     0.3792320
  H        3.4241960     2.3021350     0.7487690
units angstrom
no_reorient  #important for SAPT in psi4, default
symmetry c1  #important for SAPT in psi4, default
}

set PROPERTIES_ORIGIN ["COM"]
properties('MP2/aug-cc-pvtz', properties = ['dipole'])
--------------------------------------------------------------------------

    Molecular point group: c1
  Charge       = 0
  Multiplicity = 1
  Basis Set: AUG-CC-PVTZ
    Blend: AUG-CC-PVTZ
  Basis Set: (AUG-CC-PVTZ AUX)
    Blend: AUG-CC-PVTZ-JKFIT

    Orbital Energies [Eh]
    ---------------------

    Doubly Occupied:

       1A    -20.521917     2A    -15.557997     3A    -11.342690
       4A    -11.301545     5A    -11.262199     6A    -11.261292
       7A    -11.257755     8A    -11.254968     9A    -11.252841
      10A    -11.251536    11A    -11.249939    12A    -11.249826
      13A    -11.245151    14A    -11.233877    15A    -11.228670
      16A     -1.298995    17A     -1.223222    18A     -1.173927
      19A     -1.138870    20A     -1.071240    21A     -1.034698
      22A     -1.026863    23A     -0.996438    24A     -0.908523
      25A     -0.853589    26A     -0.843973    27A     -0.824789
      28A     -0.773408    29A     -0.721746    30A     -0.702691
      31A     -0.684813    32A     -0.673972    33A     -0.649503
      34A     -0.632686    35A     -0.615149    36A     -0.609911
      37A     -0.604249    38A     -0.602000    39A     -0.563748
      40A     -0.548201    41A     -0.528402    42A     -0.525878
      43A     -0.525275    44A     -0.508657    45A     -0.502223
      46A     -0.464273    47A     -0.451053    48A     -0.419017
      49A     -0.354994    50A     -0.348938    51A     -0.345787
      52A     -0.300161

  @DF-RHF Final Energy:  -628.18418624457752

   => Energetics <=

    Nuclear Repulsion Energy =            893.2340022617731847
    One-Electron Energy =               -2625.7882530790589044
    Two-Electron Energy =                1104.3700645727080882
    Total Energy =                       -628.1841862445776314
  Basis Set: (AUG-CC-PVTZ AUX)
    Blend: AUG-CC-PVTZ-RI
    Molecular point group: c1

    Geometry (in Angstrom), charge = 0, multiplicity = 1:

       Center              X                  Y                   Z               Mass
    ------------   -----------------  -----------------  -----------------  -----------------
         O           -0.035941971631     2.174997043528    -0.302224981752    15.994914619570
         N            2.486404028369     1.922262043528     0.755221018248    14.003074004430
         C            1.121892028369     0.093392043528    -0.136271981752    12.000000000000
         C           -1.435870971631     0.296080043528    -0.033632981752    12.000000000000
         C           -0.171471771631     0.814746143528    -0.215841581752    12.000000000000
         C            2.374122028369     0.632652043528     0.259567018248    12.000000000000
         C            1.059920028369    -1.230919956472    -0.610416981752    12.000000000000
         C            3.493932028369    -0.219005956472     0.263024018248    12.000000000000
         C           -1.650093971631    -0.802996956472     0.811742018248    12.000000000000
         C           -2.519084971631     0.879843043528    -0.705788981752    12.000000000000
         C            2.186999028369    -2.042692956472    -0.641417981752    12.000000000000
         C            3.409115028369    -1.526732956472    -0.198103981752    12.000000000000
         C           -2.938268971631    -1.315917956472     0.970059018248    12.000000000000
         C           -3.798643971631     0.348492043528    -0.561258981752    12.000000000000
         C           -4.011194971631    -0.750031956472     0.277456018248    12.000000000000
         H            0.108254028369    -1.616006956472    -0.966138981752     1.007825032230
         H            4.452165028369     0.178619043528     0.594206018248     1.007825032230
         H           -0.817215971631    -1.235120956472     1.360362018248     1.007825032230
         H           -2.339125971631     1.748887043528    -1.333332981752     1.007825032230
         H            2.121016028369    -3.058146956472    -1.022129981752     1.007825032230
         H            4.300640028369    -2.150076956472    -0.202328981752     1.007825032230
         H           -3.105118971631    -2.158638956472     1.636741018248     1.007825032230
         H           -4.634014971631     0.793839043528    -1.096309981752     1.007825032230
         H           -5.011765971631    -1.159190956472     0.395902018248     1.007825032230
         H            1.794201028369     2.564910043528     0.384405018248     1.007825032230
         H            3.430008028369     2.291309043528     0.753942018248     1.007825032230

  Basis Set: AUG-CC-PVTZ
    Blend: AUG-CC-PVTZ
  Basis Set: (AUG-CC-PVTZ AUX)
    Blend: AUG-CC-PVTZ-JKFIT
	 Reference Energy          =    -628.1841862445775178 [Eh]
	 Singles Energy            =      -0.0000000000000000 [Eh]
	 Same-Spin Energy          =      -0.6965232838777320 [Eh]
	 Opposite-Spin Energy      =      -2.1190831427223000 [Eh]
	 Correlation Energy        =      -2.8156064266000320 [Eh]
	 Total Energy              =    -630.9997926711776017 [Eh]

	 ================> DF-SCS-MP2 Energies <==================
	-----------------------------------------------------------
	 SCS Same-Spin Scale       =       0.3333333333333333 [-]
	 SCS Opposite-Spin Scale   =       1.2000000000000000 [-]
	 SCS Same-Spin Energy      =      -0.2321744279592440 [Eh]
	 SCS Opposite-Spin Energy  =      -2.5428997712667600 [Eh]
	 SCS Correlation Energy    =      -2.7750741992260042 [Eh]
	 SCS Total Energy          =    -630.9592604438034869 [Eh]
	-----------------------------------------------------------

  Dipole Moment: [D]
     X:    -0.1645      Y:    -2.0839      Z:    -0.0225     Total:     2.0905

*** Psi4 exiting successfully. Buy a developer a beer!
