                               Psi4 1.3.2 release

  ==> Input File <==

--------------------------------------------------------------------------
#psi4
#
memory 32 gb

molecule  {
0 1
  O       -0.1283982     2.1873475    -0.3033528
  N        2.4805920     1.9330880     0.7500480
  C        1.1160800     0.1042180    -0.1414450
  C       -1.4416830     0.3069060    -0.0388060
  C       -0.1006150     0.9516510    -0.1728080
  C        2.3683100     0.6434780     0.2543940
  C        1.0541080    -1.2200940    -0.6155900
  C        3.4881200    -0.2081800     0.2578510
  C       -1.6559060    -0.7921710     0.8065690
  C       -2.5248970     0.8906690    -0.7109620
  C        2.1811870    -2.0318670    -0.6465910
  C        3.4033030    -1.5159070    -0.2032770
  C       -2.9440810    -1.3050920     0.9648860
  C       -3.8044560     0.3593180    -0.5664320
  C       -4.0170070    -0.7392060     0.2722830
  H        0.1024420    -1.6051810    -0.9713120
  H        4.4463530     0.1894450     0.5890330
  H       -0.8230280    -1.2242950     1.3551890
  H       -2.3449380     1.7597130    -1.3385060
  H        2.1152040    -3.0473210    -1.0273030
  H        4.2948280    -2.1392510    -0.2075020
  H       -3.1109310    -2.1478130     1.6315680
  H       -4.6398270     0.8046650    -1.1014830
  H       -5.0175780    -1.1483650     0.3907290
  H        1.7883890     2.5757360     0.3792320
  H        3.4241960     2.3021350     0.7487690
units angstrom
no_reorient  #important for SAPT in psi4, default
symmetry c1  #important for SAPT in psi4, default
}

set PROPERTIES_ORIGIN ["COM"]
properties('MP2/aug-cc-pvtz', properties = ['dipole'])
--------------------------------------------------------------------------

    Molecular point group: c1
  Charge       = 0
  Multiplicity = 1
  Basis Set: AUG-CC-PVTZ
    Blend: AUG-CC-PVTZ
  Basis Set: (AUG-CC-PVTZ AUX)
    Blend: AUG-CC-PVTZ-JKFIT

    Orbital Energies [Eh]
    ---------------------

    Doubly Occupied:

       1A    -20.541320     2A    -15.565751     3A    -11.341067
       4A    -11.301605     5A    -11.256734     6A    -11.256710
       7A    -11.249472     8A    -11.248727     9A    -11.246766
      10A    -11.244868    11A    -11.244429    12A    -11.243501
      13A    -11.242037    14A    -11.235531    15A    -11.231803
      16A     -1.373970    17A     -1.231986    18A     -1.161572
      19A     -1.140675    20A     -1.057405    21A     -1.024283
      22A     -1.020181    23A     -0.999998    24A     -0.893541
      25A     -0.849704    26A     -0.837275    27A     -0.820646
      28A     -0.769388    29A     -0.718224    30A     -0.703006
      31A     -0.691304    32A     -0.670912    33A     -0.644321
      34A     -0.634072    35A     -0.615632    36A     -0.611149
      37A     -0.606232    38A     -0.595106    39A     -0.590572
      40A     -0.555353    41A     -0.536230    42A     -0.526482
      43A     -0.519163    44A     -0.510238    45A     -0.499644
      46A     -0.490263    47A     -0.456498    48A     -0.421977
      49A     -0.353818    50A     -0.344112    51A     -0.341415
      52A     -0.304627

  @DF-RHF Final Energy:  -628.22447506487185

   => Energetics <=

    Nuclear Repulsion Energy =            892.9900867693598912
    One-Electron Energy =               -2625.2865324477484137
    Two-Electron Energy =                1104.0719706135166689
    Total Energy =                       -628.2244750648717400
  Basis Set: (AUG-CC-PVTZ AUX)
    Blend: AUG-CC-PVTZ-RI
    Molecular point group: c1

    Geometry (in Angstrom), charge = 0, multiplicity = 1:

       Center              X                  Y                   Z               Mass
    ------------   -----------------  -----------------  -----------------  -----------------
         O           -0.120222505225     2.168721161212    -0.301443271532    15.994914619570
         N            2.488767694775     1.914461661212     0.751957528468    14.003074004430
         C            1.124255694775     0.085591661212    -0.139535471532    12.000000000000
         C           -1.433507305225     0.288279661212    -0.036896471532    12.000000000000
         C           -0.092439305225     0.933024661212    -0.170898471532    12.000000000000
         C            2.376485694775     0.624851661212     0.256303528468    12.000000000000
         C            1.062283694775    -1.238720338788    -0.613680471532    12.000000000000
         C            3.496295694775    -0.226806338788     0.259760528468    12.000000000000
         C           -1.647730305225    -0.810797338788     0.808478528468    12.000000000000
         C           -2.516721305225     0.872042661212    -0.709052471532    12.000000000000
         C            2.189362694775    -2.050493338788    -0.644681471532    12.000000000000
         C            3.411478694775    -1.534533338788    -0.201367471532    12.000000000000
         C           -2.935905305225    -1.323718338788     0.966795528468    12.000000000000
         C           -3.796280305225     0.340691661212    -0.564522471532    12.000000000000
         C           -4.008831305225    -0.757832338788     0.274192528468    12.000000000000
         H            0.110617694775    -1.623807338788    -0.969402471532     1.007825032230
         H            4.454528694775     0.170818661212     0.590942528468     1.007825032230
         H           -0.814852305225    -1.242921338788     1.357098528468     1.007825032230
         H           -2.336762305225     1.741086661212    -1.336596471532     1.007825032230
         H            2.123379694775    -3.065947338788    -1.025393471532     1.007825032230
         H            4.303003694775    -2.157877338788    -0.205592471532     1.007825032230
         H           -3.102755305225    -2.166439338788     1.633477528468     1.007825032230
         H           -4.631651305225     0.786038661212    -1.099573471532     1.007825032230
         H           -5.009402305225    -1.166991338788     0.392638528468     1.007825032230
         H            1.796564694775     2.557109661212     0.381141528468     1.007825032230
         H            3.432371694775     2.283508661212     0.750678528468     1.007825032230

  Basis Set: AUG-CC-PVTZ
    Blend: AUG-CC-PVTZ
  Basis Set: (AUG-CC-PVTZ AUX)
    Blend: AUG-CC-PVTZ-JKFIT
	 Reference Energy          =    -628.2244750648718536 [Eh]
	 Singles Energy            =      -0.0000000000000000 [Eh]
	 Same-Spin Energy          =      -0.6914659893902365 [Eh]
	 Opposite-Spin Energy      =      -2.1096141204113530 [Eh]
	 Correlation Energy        =      -2.8010801098015894 [Eh]
	 Total Energy              =    -631.0255551746734000 [Eh]

	 ================> DF-SCS-MP2 Energies <==================
	-----------------------------------------------------------
	 SCS Same-Spin Scale       =       0.3333333333333333 [-]
	 SCS Opposite-Spin Scale   =       1.2000000000000000 [-]
	 SCS Same-Spin Energy      =      -0.2304886631300788 [Eh]
	 SCS Opposite-Spin Energy  =      -2.5315369444936233 [Eh]
	 SCS Correlation Energy    =      -2.7620256076237020 [Eh]
	 SCS Total Energy          =    -630.9865006724955947 [Eh]
	-----------------------------------------------------------

  Dipole Moment: [D]
     X:     0.7300      Y:    -1.6333      Z:    -0.1207     Total:     1.7930

*** Psi4 exiting successfully. Buy a developer a beer!
