                               Psi4 1.3.2 release

  ==> Input File <==

--------------------------------------------------------------------------
#psi4
#
memory 32 gb

molecule  {
0 1
  O       -0.0417540     2.1858230    -0.3073980
  N        2.4805920     1.9330880     0.7500480
  C        1.1306418     0.1254103    -0.1444153
  C       -1.4416830     0.3069060    -0.0388060
  C       -0.1006150     0.9516510    -0.1728080
  C        2.3683100     0.6434780     0.2543940
  C        1.0541080    -1.2200940    -0.6155900
  C        3.4881200    -0.2081800     0.2578510
  C       -1.6559060    -0.7921710     0.8065690
  C       -2.5248970     0.8906690    -0.7109620
  C        2.1811870    -2.0318670    -0.6465910
  C        3.4033030    -1.5159070    -0.2032770
  C       -2.9440810    -1.3050920     0.9648860
  C       -3.8044560     0.3593180    -0.5664320
  C       -4.0170070    -0.7392060     0.2722830
  H        0.1024420    -1.6051810    -0.9713120
  H        4.4463530     0.1894450     0.5890330
  H       -0.8230280    -1.2242950     1.3551890
  H       -2.3449380     1.7597130    -1.3385060
  H        2.1152040    -3.0473210    -1.0273030
  H        4.2948280    -2.1392510    -0.2075020
  H       -3.1109310    -2.1478130     1.6315680
  H       -4.6398270     0.8046650    -1.1014830
  H       -5.0175780    -1.1483650     0.3907290
  H        1.7883890     2.5757360     0.3792320
  H        3.4241960     2.3021350     0.7487690
units angstrom
no_reorient  #important for SAPT in psi4, default
symmetry c1  #important for SAPT in psi4, default
}

set PROPERTIES_ORIGIN ["COM"]
properties('MP2/aug-cc-pvtz', properties = ['dipole'])
--------------------------------------------------------------------------

    Molecular point group: c1
  Charge       = 0
  Multiplicity = 1
  Basis Set: AUG-CC-PVTZ
    Blend: AUG-CC-PVTZ
  Basis Set: (AUG-CC-PVTZ AUX)
    Blend: AUG-CC-PVTZ-JKFIT

    Orbital Energies [Eh]
    ---------------------

    Doubly Occupied:

       1A    -20.540748     2A    -15.560567     3A    -11.341235
       4A    -11.296550     5A    -11.255561     6A    -11.254438
       7A    -11.252898     8A    -11.251688     9A    -11.250840
      10A    -11.248451    11A    -11.246032    12A    -11.244637
      13A    -11.240482    14A    -11.234406    15A    -11.230488
      16A     -1.374142    17A     -1.228905    18A     -1.164434
      19A     -1.137360    20A     -1.056580    21A     -1.026581
      22A     -1.020636    23A     -0.999147    24A     -0.893133
      25A     -0.850716    26A     -0.839364    27A     -0.819435
      28A     -0.770119    29A     -0.718533    30A     -0.702392
      31A     -0.687214    32A     -0.670391    33A     -0.647697
      34A     -0.635077    35A     -0.616562    36A     -0.612349
      37A     -0.604360    38A     -0.597310    39A     -0.585534
      40A     -0.555348    41A     -0.534962    42A     -0.526915
      43A     -0.520006    44A     -0.510749    45A     -0.502470
      46A     -0.490620    47A     -0.452903    48A     -0.422016
      49A     -0.350562    50A     -0.346115    51A     -0.344423
      52A     -0.303947

  @DF-RHF Final Energy:  -628.22556727830613

   => Energetics <=

    Nuclear Repulsion Energy =            893.1966392712274683
    One-Electron Energy =               -2625.7083530692457316
    Two-Electron Energy =                1104.2861465197120197
    Total Energy =                       -628.2255672783062437
  Basis Set: (AUG-CC-PVTZ AUX)
    Blend: AUG-CC-PVTZ-RI
    Molecular point group: c1

    Geometry (in Angstrom), charge = 0, multiplicity = 1:

       Center              X                  Y                   Z               Mass
    ------------   -----------------  -----------------  -----------------  -----------------
         O           -0.041496795182     2.166030035418    -0.304979317080    15.994914619570
         N            2.480849204818     1.913295035418     0.752466682920    14.003074004430
         C            1.130899004818     0.105617335418    -0.141996617080    12.000000000000
         C           -1.441425795182     0.287113035418    -0.036387317080    12.000000000000
         C           -0.100357795182     0.931858035418    -0.170389317080    12.000000000000
         C            2.368567204818     0.623685035418     0.256812682920    12.000000000000
         C            1.054365204818    -1.239886964582    -0.613171317080    12.000000000000
         C            3.488377204818    -0.227972964582     0.260269682920    12.000000000000
         C           -1.655648795182    -0.811963964582     0.808987682920    12.000000000000
         C           -2.524639795182     0.870876035418    -0.708543317080    12.000000000000
         C            2.181444204818    -2.051659964582    -0.644172317080    12.000000000000
         C            3.403560204818    -1.535699964582    -0.200858317080    12.000000000000
         C           -2.943823795182    -1.324884964582     0.967304682920    12.000000000000
         C           -3.804198795182     0.339525035418    -0.564013317080    12.000000000000
         C           -4.016749795182    -0.758998964582     0.274701682920    12.000000000000
         H            0.102699204818    -1.624973964582    -0.968893317080     1.007825032230
         H            4.446610204818     0.169652035418     0.591451682920     1.007825032230
         H           -0.822770795182    -1.244087964582     1.357607682920     1.007825032230
         H           -2.344680795182     1.739920035418    -1.336087317080     1.007825032230
         H            2.115461204818    -3.067113964582    -1.024884317080     1.007825032230
         H            4.295085204818    -2.159043964582    -0.205083317080     1.007825032230
         H           -3.110673795182    -2.167605964582     1.633986682920     1.007825032230
         H           -4.639569795182     0.784872035418    -1.099064317080     1.007825032230
         H           -5.017320795182    -1.168157964582     0.393147682920     1.007825032230
         H            1.788646204818     2.555943035418     0.381650682920     1.007825032230
         H            3.424453204818     2.282342035418     0.751187682920     1.007825032230

  Basis Set: AUG-CC-PVTZ
    Blend: AUG-CC-PVTZ
  Basis Set: (AUG-CC-PVTZ AUX)
    Blend: AUG-CC-PVTZ-JKFIT
	 Reference Energy          =    -628.2255672783061300 [Eh]
	 Singles Energy            =      -0.0000000000000000 [Eh]
	 Same-Spin Energy          =      -0.6914774694820432 [Eh]
	 Opposite-Spin Energy      =      -2.1096388448721095 [Eh]
	 Correlation Energy        =      -2.8011163143541529 [Eh]
	 Total Energy              =    -631.0266835926603335 [Eh]

	 ================> DF-SCS-MP2 Energies <==================
	-----------------------------------------------------------
	 SCS Same-Spin Scale       =       0.3333333333333333 [-]
	 SCS Opposite-Spin Scale   =       1.2000000000000000 [-]
	 SCS Same-Spin Energy      =      -0.2304924898273477 [Eh]
	 SCS Opposite-Spin Energy  =      -2.5315666138465311 [Eh]
	 SCS Correlation Energy    =      -2.7620591036738791 [Eh]
	 SCS Total Energy          =    -630.9876263819800215 [Eh]
	-----------------------------------------------------------

  Dipole Moment: [D]
     X:     0.3376      Y:    -1.6723      Z:    -0.1085     Total:     1.7095

*** Psi4 exiting successfully. Buy a developer a beer!
