                               Psi4 1.3.2 release

  ==> Input File <==

--------------------------------------------------------------------------
#psi4
#
memory 32 gb

molecule  {
0 1
  O       -0.0417540     2.1858230    -0.3073980
  N        2.4805920     1.9330880     0.7500480
  C        1.1160800     0.1042180    -0.1414450
  C       -1.4416830     0.3069060    -0.0388060
  C       -0.1006150     0.9516510    -0.1728080
  C        2.1919033     0.5675102     0.1986305
  C        1.0541080    -1.2200940    -0.6155900
  C        3.4881200    -0.2081800     0.2578510
  C       -1.6559060    -0.7921710     0.8065690
  C       -2.5248970     0.8906690    -0.7109620
  C        2.1811870    -2.0318670    -0.6465910
  C        3.4033030    -1.5159070    -0.2032770
  C       -2.9440810    -1.3050920     0.9648860
  C       -3.8044560     0.3593180    -0.5664320
  C       -4.0170070    -0.7392060     0.2722830
  H        0.1024420    -1.6051810    -0.9713120
  H        4.4463530     0.1894450     0.5890330
  H       -0.8230280    -1.2242950     1.3551890
  H       -2.3449380     1.7597130    -1.3385060
  H        2.1152040    -3.0473210    -1.0273030
  H        4.2948280    -2.1392510    -0.2075020
  H       -3.1109310    -2.1478130     1.6315680
  H       -4.6398270     0.8046650    -1.1014830
  H       -5.0175780    -1.1483650     0.3907290
  H        1.7883890     2.5757360     0.3792320
  H        3.4241960     2.3021350     0.7487690
units angstrom
no_reorient  #important for SAPT in psi4, default
symmetry c1  #important for SAPT in psi4, default
}

set PROPERTIES_ORIGIN ["COM"]
properties('MP2/aug-cc-pvtz', properties = ['dipole'])
--------------------------------------------------------------------------

    Molecular point group: c1
  Charge       = 0
  Multiplicity = 1
  Basis Set: AUG-CC-PVTZ
    Blend: AUG-CC-PVTZ
  Basis Set: (AUG-CC-PVTZ AUX)
    Blend: AUG-CC-PVTZ-JKFIT

    Orbital Energies [Eh]
    ---------------------

    Doubly Occupied:

       1A    -20.548260     2A    -15.547683     3A    -11.346687
       4A    -11.286112     5A    -11.255917     6A    -11.254018
       7A    -11.253245     8A    -11.253192     9A    -11.250965
      10A    -11.249820    11A    -11.248532    12A    -11.248456
      13A    -11.246816    14A    -11.237112    15A    -11.224327
      16A     -1.379990    17A     -1.208927    18A     -1.166667
      19A     -1.132510    20A     -1.067329    21A     -1.036623
      22A     -1.027746    23A     -0.994718    24A     -0.897738
      25A     -0.859484    26A     -0.843152    27A     -0.818802
      28A     -0.768137    29A     -0.724947    30A     -0.698013
      31A     -0.670996    32A     -0.662088    33A     -0.653180
      34A     -0.644653    35A     -0.628102    36A     -0.614751
      37A     -0.600218    38A     -0.590970    39A     -0.583234
      40A     -0.560156    41A     -0.531879    42A     -0.525493
      43A     -0.522879    44A     -0.510164    45A     -0.503567
      46A     -0.489532    47A     -0.435173    48A     -0.421942
      49A     -0.364105    50A     -0.350133    51A     -0.347482
      52A     -0.310596

  @DF-RHF Final Energy:  -628.16708817518008

   => Energetics <=

    Nuclear Repulsion Energy =            895.7241026095463212
    One-Electron Energy =               -2630.5879344836971541
    Two-Electron Energy =                1106.6967436989707494
    Total Energy =                       -628.1670881751801971
  Basis Set: (AUG-CC-PVTZ AUX)
    Blend: AUG-CC-PVTZ-RI
    Molecular point group: c1

    Geometry (in Angstrom), charge = 0, multiplicity = 1:

       Center              X                  Y                   Z               Mass
    ------------   -----------------  -----------------  -----------------  -----------------
         O           -0.029869157950     2.171945892725    -0.301764859314    15.994914619570
         N            2.492476842050     1.919210892725     0.755681140686    14.003074004430
         C            1.127964842050     0.090340892725    -0.135811859314    12.000000000000
         C           -1.429798157950     0.293028892725    -0.033172859314    12.000000000000
         C           -0.088730157950     0.937773892725    -0.167174859314    12.000000000000
         C            2.203788142050     0.553633092725     0.204263640686    12.000000000000
         C            1.065992842050    -1.233971107275    -0.609956859314    12.000000000000
         C            3.500004842050    -0.222057107275     0.263484140686    12.000000000000
         C           -1.644021157950    -0.806048107275     0.812202140686    12.000000000000
         C           -2.513012157950     0.876791892725    -0.705328859314    12.000000000000
         C            2.193071842050    -2.045744107275    -0.640957859314    12.000000000000
         C            3.415187842050    -1.529784107275    -0.197643859314    12.000000000000
         C           -2.932196157950    -1.318969107275     0.970519140686    12.000000000000
         C           -3.792571157950     0.345440892725    -0.560798859314    12.000000000000
         C           -4.005122157950    -0.753083107275     0.277916140686    12.000000000000
         H            0.114326842050    -1.619058107275    -0.965678859314     1.007825032230
         H            4.458237842050     0.175567892725     0.594666140686     1.007825032230
         H           -0.811143157950    -1.238172107275     1.360822140686     1.007825032230
         H           -2.333053157950     1.745835892725    -1.332872859314     1.007825032230
         H            2.127088842050    -3.061198107275    -1.021669859314     1.007825032230
         H            4.306712842050    -2.153128107275    -0.201868859314     1.007825032230
         H           -3.099046157950    -2.161690107275     1.637201140686     1.007825032230
         H           -4.627942157950     0.790787892725    -1.095849859314     1.007825032230
         H           -5.005693157950    -1.162242107275     0.396362140686     1.007825032230
         H            1.800273842050     2.561858892725     0.384865140686     1.007825032230
         H            3.436080842050     2.288257892725     0.754402140686     1.007825032230

  Basis Set: AUG-CC-PVTZ
    Blend: AUG-CC-PVTZ
  Basis Set: (AUG-CC-PVTZ AUX)
    Blend: AUG-CC-PVTZ-JKFIT
	 Reference Energy          =    -628.1670881751800835 [Eh]
	 Singles Energy            =      -0.0000000000000000 [Eh]
	 Same-Spin Energy          =      -0.6903245649563573 [Eh]
	 Opposite-Spin Energy      =      -2.1120937501871389 [Eh]
	 Correlation Energy        =      -2.8024183151434960 [Eh]
	 Total Energy              =    -630.9695064903236243 [Eh]

	 ================> DF-SCS-MP2 Energies <==================
	-----------------------------------------------------------
	 SCS Same-Spin Scale       =       0.3333333333333333 [-]
	 SCS Opposite-Spin Scale   =       1.2000000000000000 [-]
	 SCS Same-Spin Energy      =      -0.2301081883187858 [Eh]
	 SCS Opposite-Spin Energy  =      -2.5345125002245665 [Eh]
	 SCS Correlation Energy    =      -2.7646206885433524 [Eh]
	 SCS Total Energy          =    -630.9317088637234292 [Eh]
	-----------------------------------------------------------

  Dipole Moment: [D]
     X:    -0.0023      Y:    -2.1844      Z:    -0.3570     Total:     2.2134

*** Psi4 exiting successfully. Buy a developer a beer!
