                               Psi4 1.3.2 release

  ==> Input File <==

--------------------------------------------------------------------------
#psi4
#
memory 32 gb

molecule  {
0 1
  O       -0.0417540     2.1858230    -0.3073980
  N        2.4805920     1.9330880     0.7500480
  C        1.2593199     0.0803184    -0.1163185
  C       -1.4416830     0.3069060    -0.0388060
  C       -0.1006150     0.9516510    -0.1728080
  C        2.3683100     0.6434780     0.2543940
  C        1.0541080    -1.2200940    -0.6155900
  C        3.4881200    -0.2081800     0.2578510
  C       -1.6559060    -0.7921710     0.8065690
  C       -2.5248970     0.8906690    -0.7109620
  C        2.1811870    -2.0318670    -0.6465910
  C        3.4033030    -1.5159070    -0.2032770
  C       -2.9440810    -1.3050920     0.9648860
  C       -3.8044560     0.3593180    -0.5664320
  C       -4.0170070    -0.7392060     0.2722830
  H        0.1024420    -1.6051810    -0.9713120
  H        4.4463530     0.1894450     0.5890330
  H       -0.8230280    -1.2242950     1.3551890
  H       -2.3449380     1.7597130    -1.3385060
  H        2.1152040    -3.0473210    -1.0273030
  H        4.2948280    -2.1392510    -0.2075020
  H       -3.1109310    -2.1478130     1.6315680
  H       -4.6398270     0.8046650    -1.1014830
  H       -5.0175780    -1.1483650     0.3907290
  H        1.7883890     2.5757360     0.3792320
  H        3.4241960     2.3021350     0.7487690
units angstrom
no_reorient  #important for SAPT in psi4, default
symmetry c1  #important for SAPT in psi4, default
}

set PROPERTIES_ORIGIN ["COM"]
properties('MP2/aug-cc-pvtz', properties = ['dipole'])
--------------------------------------------------------------------------

    Molecular point group: c1
  Charge       = 0
  Multiplicity = 1
  Basis Set: AUG-CC-PVTZ
    Blend: AUG-CC-PVTZ
  Basis Set: (AUG-CC-PVTZ AUX)
    Blend: AUG-CC-PVTZ-JKFIT

    Orbital Energies [Eh]
    ---------------------

    Doubly Occupied:

       1A    -20.546701     2A    -15.555850     3A    -11.348223
       4A    -11.276994     5A    -11.254970     6A    -11.253566
       7A    -11.253438     8A    -11.250686     9A    -11.249214
      10A    -11.247625    11A    -11.246552    12A    -11.246281
      13A    -11.238559    14A    -11.234875    15A    -11.230792
      16A     -1.375378    17A     -1.231589    18A     -1.165860
      19A     -1.141848    20A     -1.050447    21A     -1.027994
      22A     -1.020782    23A     -1.007008    24A     -0.885021
      25A     -0.852100    26A     -0.841763    27A     -0.818785
      28A     -0.768258    29A     -0.717996    30A     -0.702459
      31A     -0.683254    32A     -0.663133    33A     -0.648401
      34A     -0.637586    35A     -0.623328    36A     -0.613738
      37A     -0.603353    38A     -0.598549    39A     -0.583018
      40A     -0.558099    41A     -0.530845    42A     -0.529578
      43A     -0.519453    44A     -0.518529    45A     -0.503536
      46A     -0.493335    47A     -0.451470    48A     -0.408387
      49A     -0.350755    50A     -0.347340    51A     -0.345346
      52A     -0.309361

  @DF-RHF Final Energy:  -628.20188444721157

   => Energetics <=

    Nuclear Repulsion Energy =            893.1997159491791081
    One-Electron Energy =               -2625.6791876479783241
    Two-Electron Energy =                1104.2775872515876472
    Total Energy =                       -628.2018844472115688
  Basis Set: (AUG-CC-PVTZ AUX)
    Blend: AUG-CC-PVTZ-RI
    Molecular point group: c1

    Geometry (in Angstrom), charge = 0, multiplicity = 1:

       Center              X                  Y                   Z               Mass
    ------------   -----------------  -----------------  -----------------  -----------------
         O           -0.049331711759     2.168775578559    -0.306690067271    15.994914619570
         N            2.473014288241     1.916040578559     0.750755932729    14.003074004430
         C            1.251742188241     0.063270978559    -0.115610567271    12.000000000000
         C           -1.449260711759     0.289858578559    -0.038098067271    12.000000000000
         C           -0.108192711759     0.934603578559    -0.172100067271    12.000000000000
         C            2.360732288241     0.626430578559     0.255101932729    12.000000000000
         C            1.046530288241    -1.237141421441    -0.614882067271    12.000000000000
         C            3.480542288241    -0.225227421441     0.258558932729    12.000000000000
         C           -1.663483711759    -0.809218421441     0.807276932729    12.000000000000
         C           -2.532474711759     0.873621578559    -0.710254067271    12.000000000000
         C            2.173609288241    -2.048914421441    -0.645883067271    12.000000000000
         C            3.395725288241    -1.532954421441    -0.202569067271    12.000000000000
         C           -2.951658711759    -1.322139421441     0.965593932729    12.000000000000
         C           -3.812033711759     0.342270578559    -0.565724067271    12.000000000000
         C           -4.024584711759    -0.756253421441     0.272990932729    12.000000000000
         H            0.094864288241    -1.622228421441    -0.970604067271     1.007825032230
         H            4.438775288241     0.172397578559     0.589740932729     1.007825032230
         H           -0.830605711759    -1.241342421441     1.355896932729     1.007825032230
         H           -2.352515711759     1.742665578559    -1.337798067271     1.007825032230
         H            2.107626288241    -3.064368421441    -1.026595067271     1.007825032230
         H            4.287250288241    -2.156298421441    -0.206794067271     1.007825032230
         H           -3.118508711759    -2.164860421441     1.632275932729     1.007825032230
         H           -4.647404711759     0.787617578559    -1.100775067271     1.007825032230
         H           -5.025155711759    -1.165412421441     0.391436932729     1.007825032230
         H            1.780811288241     2.558688578559     0.379939932729     1.007825032230
         H            3.416618288241     2.285087578559     0.749476932729     1.007825032230

  Basis Set: AUG-CC-PVTZ
    Blend: AUG-CC-PVTZ
  Basis Set: (AUG-CC-PVTZ AUX)
    Blend: AUG-CC-PVTZ-JKFIT
	 Reference Energy          =    -628.2018844472115688 [Eh]
	 Singles Energy            =      -0.0000000000000000 [Eh]
	 Same-Spin Energy          =      -0.6913294226283112 [Eh]
	 Opposite-Spin Energy      =      -2.1101769929138503 [Eh]
	 Correlation Energy        =      -2.8015064155421614 [Eh]
	 Total Energy              =    -631.0033908627536903 [Eh]

	 ================> DF-SCS-MP2 Energies <==================
	-----------------------------------------------------------
	 SCS Same-Spin Scale       =       0.3333333333333333 [-]
	 SCS Opposite-Spin Scale   =       1.2000000000000000 [-]
	 SCS Same-Spin Energy      =      -0.2304431408761037 [Eh]
	 SCS Opposite-Spin Energy  =      -2.5322123914966204 [Eh]
	 SCS Correlation Energy    =      -2.7626555323727242 [Eh]
	 SCS Total Energy          =    -630.9645399795842877 [Eh]
	-----------------------------------------------------------

  Dipole Moment: [D]
     X:    -0.1116      Y:    -1.6164      Z:    -0.1795     Total:     1.6302

*** Psi4 exiting successfully. Buy a developer a beer!
