                               Psi4 1.3.2 release

  ==> Input File <==

--------------------------------------------------------------------------
#psi4
#
memory 32 gb

molecule  {
0 1
  O       -0.0417540     2.1858230    -0.3073980
  N        2.4805920     1.9330880     0.7500480
  C        1.1160800     0.1042180    -0.1414450
  C       -1.4655111     0.3069368    -0.0444495
  C       -0.1006150     0.9516510    -0.1728080
  C        2.3683100     0.6434780     0.2543940
  C        1.0541080    -1.2200940    -0.6155900
  C        3.4881200    -0.2081800     0.2578510
  C       -1.6559060    -0.7921710     0.8065690
  C       -2.5248970     0.8906690    -0.7109620
  C        2.1811870    -2.0318670    -0.6465910
  C        3.4033030    -1.5159070    -0.2032770
  C       -2.9440810    -1.3050920     0.9648860
  C       -3.8044560     0.3593180    -0.5664320
  C       -4.0170070    -0.7392060     0.2722830
  H        0.1024420    -1.6051810    -0.9713120
  H        4.4463530     0.1894450     0.5890330
  H       -0.8230280    -1.2242950     1.3551890
  H       -2.3449380     1.7597130    -1.3385060
  H        2.1152040    -3.0473210    -1.0273030
  H        4.2948280    -2.1392510    -0.2075020
  H       -3.1109310    -2.1478130     1.6315680
  H       -4.6398270     0.8046650    -1.1014830
  H       -5.0175780    -1.1483650     0.3907290
  H        1.7883890     2.5757360     0.3792320
  H        3.4241960     2.3021350     0.7487690
units angstrom
no_reorient  #important for SAPT in psi4, default
symmetry c1  #important for SAPT in psi4, default
}

set PROPERTIES_ORIGIN ["COM"]
properties('MP2/aug-cc-pvtz', properties = ['dipole'])
--------------------------------------------------------------------------

    Molecular point group: c1
  Charge       = 0
  Multiplicity = 1
  Basis Set: AUG-CC-PVTZ
    Blend: AUG-CC-PVTZ
  Basis Set: (AUG-CC-PVTZ AUX)
    Blend: AUG-CC-PVTZ-JKFIT

    Orbital Energies [Eh]
    ---------------------

    Doubly Occupied:

       1A    -20.542027     2A    -15.562125     3A    -11.342605
       4A    -11.299326     5A    -11.254717     6A    -11.254460
       7A    -11.251517     8A    -11.250189     9A    -11.249379
      10A    -11.245531    11A    -11.245322    12A    -11.243970
      13A    -11.241616    14A    -11.233781    15A    -11.230036
      16A     -1.374250    17A     -1.228782    18A     -1.165742
      19A     -1.138802    20A     -1.055876    21A     -1.028226
      22A     -1.020655    23A     -0.998021    24A     -0.891111
      25A     -0.848597    26A     -0.839856    27A     -0.819839
      28A     -0.770459    29A     -0.718292    30A     -0.702459
      31A     -0.688785    32A     -0.669048    33A     -0.647136
      34A     -0.634889    35A     -0.615410    36A     -0.611374
      37A     -0.605019    38A     -0.598131    39A     -0.587610
      40A     -0.554871    41A     -0.535868    42A     -0.526576
      43A     -0.519168    44A     -0.509733    45A     -0.504027
      46A     -0.491791    47A     -0.454221    48A     -0.420351
      49A     -0.351995    50A     -0.347067    51A     -0.344778
      52A     -0.302335

  @DF-RHF Final Energy:  -628.22586692905338

   => Energetics <=

    Nuclear Repulsion Energy =            893.1252018965326442
    One-Electron Energy =               -2625.5666347435885655
    Two-Electron Energy =                1104.2155659180025395
    Total Energy =                       -628.2258669290533817
  Basis Set: (AUG-CC-PVTZ AUX)
    Blend: AUG-CC-PVTZ-RI
    Molecular point group: c1

    Geometry (in Angstrom), charge = 0, multiplicity = 1:

       Center              X                  Y                   Z               Mass
    ------------   -----------------  -----------------  -----------------  -----------------
         O           -0.039159321564     2.167318510979    -0.304816552017    15.994914619570
         N            2.483186678436     1.914583510979     0.752629447983    14.003074004430
         C            1.118674678436     0.085713510979    -0.138863552017    12.000000000000
         C           -1.462916421564     0.288432310979    -0.041868052017    12.000000000000
         C           -0.098020321564     0.933146510979    -0.170226552017    12.000000000000
         C            2.370904678436     0.624973510979     0.256975447983    12.000000000000
         C            1.056702678436    -1.238598489021    -0.613008552017    12.000000000000
         C            3.490714678436    -0.226684489021     0.260432447983    12.000000000000
         C           -1.653311321564    -0.810675489021     0.809150447983    12.000000000000
         C           -2.522302321564     0.872164510979    -0.708380552017    12.000000000000
         C            2.183781678436    -2.050371489021    -0.644009552017    12.000000000000
         C            3.405897678436    -1.534411489021    -0.200695552017    12.000000000000
         C           -2.941486321564    -1.323596489021     0.967467447983    12.000000000000
         C           -3.801861321564     0.340813510979    -0.563850552017    12.000000000000
         C           -4.014412321564    -0.757710489021     0.274864447983    12.000000000000
         H            0.105036678436    -1.623685489021    -0.968730552017     1.007825032230
         H            4.448947678436     0.170940510979     0.591614447983     1.007825032230
         H           -0.820433321564    -1.242799489021     1.357770447983     1.007825032230
         H           -2.342343321564     1.741208510979    -1.335924552017     1.007825032230
         H            2.117798678436    -3.065825489021    -1.024721552017     1.007825032230
         H            4.297422678436    -2.157755489021    -0.204920552017     1.007825032230
         H           -3.108336321564    -2.166317489021     1.634149447983     1.007825032230
         H           -4.637232321564     0.786160510979    -1.098901552017     1.007825032230
         H           -5.014983321564    -1.166869489021     0.393310447983     1.007825032230
         H            1.790983678436     2.557231510979     0.381813447983     1.007825032230
         H            3.426790678436     2.283630510979     0.751350447983     1.007825032230

  Basis Set: AUG-CC-PVTZ
    Blend: AUG-CC-PVTZ
  Basis Set: (AUG-CC-PVTZ AUX)
    Blend: AUG-CC-PVTZ-JKFIT
	 Reference Energy          =    -628.2258669290533817 [Eh]
	 Singles Energy            =      -0.0000000000000000 [Eh]
	 Same-Spin Energy          =      -0.6913843405633584 [Eh]
	 Opposite-Spin Energy      =      -2.1092986566650040 [Eh]
	 Correlation Energy        =      -2.8006829972283622 [Eh]
	 Total Energy              =    -631.0265499262817457 [Eh]

	 ================> DF-SCS-MP2 Energies <==================
	-----------------------------------------------------------
	 SCS Same-Spin Scale       =       0.3333333333333333 [-]
	 SCS Opposite-Spin Scale   =       1.2000000000000000 [-]
	 SCS Same-Spin Energy      =      -0.2304614468544528 [Eh]
	 SCS Opposite-Spin Energy  =      -2.5311583879980049 [Eh]
	 SCS Correlation Energy    =      -2.7616198348524579 [Eh]
	 SCS Total Energy          =    -630.9874867639058493 [Eh]
	-----------------------------------------------------------

  Dipole Moment: [D]
     X:     0.4094      Y:    -1.6171      Z:    -0.1080     Total:     1.6716

*** Psi4 exiting successfully. Buy a developer a beer!
