                               Psi4 1.3.2 release

  ==> Input File <==

--------------------------------------------------------------------------
#psi4
#
memory 32 gb

molecule  {
0 1
  O       -0.0417540     2.1858230    -0.3073980
  N        2.4805920     1.9330880     0.7500480
  C        1.0858492     0.0626142    -0.1355340
  C       -1.4416830     0.3069060    -0.0388060
  C       -0.1006150     0.9516510    -0.1728080
  C        2.3683100     0.6434780     0.2543940
  C        1.0541080    -1.2200940    -0.6155900
  C        3.4881200    -0.2081800     0.2578510
  C       -1.6559060    -0.7921710     0.8065690
  C       -2.5248970     0.8906690    -0.7109620
  C        2.1811870    -2.0318670    -0.6465910
  C        3.4033030    -1.5159070    -0.2032770
  C       -2.9440810    -1.3050920     0.9648860
  C       -3.8044560     0.3593180    -0.5664320
  C       -4.0170070    -0.7392060     0.2722830
  H        0.1024420    -1.6051810    -0.9713120
  H        4.4463530     0.1894450     0.5890330
  H       -0.8230280    -1.2242950     1.3551890
  H       -2.3449380     1.7597130    -1.3385060
  H        2.1152040    -3.0473210    -1.0273030
  H        4.2948280    -2.1392510    -0.2075020
  H       -3.1109310    -2.1478130     1.6315680
  H       -4.6398270     0.8046650    -1.1014830
  H       -5.0175780    -1.1483650     0.3907290
  H        1.7883890     2.5757360     0.3792320
  H        3.4241960     2.3021350     0.7487690
units angstrom
no_reorient  #important for SAPT in psi4, default
symmetry c1  #important for SAPT in psi4, default
}

set PROPERTIES_ORIGIN ["COM"]
properties('MP2/aug-cc-pvtz', properties = ['dipole'])
--------------------------------------------------------------------------

    Molecular point group: c1
  Charge       = 0
  Multiplicity = 1
  Basis Set: AUG-CC-PVTZ
    Blend: AUG-CC-PVTZ
  Basis Set: (AUG-CC-PVTZ AUX)
    Blend: AUG-CC-PVTZ-JKFIT

    Orbital Energies [Eh]
    ---------------------

    Doubly Occupied:

       1A    -20.543295     2A    -15.564387     3A    -11.342509
       4A    -11.303470     5A    -11.254613     6A    -11.252151
       7A    -11.251274     8A    -11.251147     9A    -11.249002
      10A    -11.247468    11A    -11.245539    12A    -11.244079
      13A    -11.242428    14A    -11.231788    15A    -11.228496
      16A     -1.375044    17A     -1.227942    18A     -1.164395
      19A     -1.141068    20A     -1.059589    21A     -1.026668
      22A     -1.022142    23A     -0.994734    24A     -0.893999
      25A     -0.846723    26A     -0.837689    27A     -0.821537
      28A     -0.771065    29A     -0.717670    30A     -0.702397
      31A     -0.691352    32A     -0.670623    33A     -0.648003
      34A     -0.633707    35A     -0.615076    36A     -0.608127
      37A     -0.605419    38A     -0.597107    39A     -0.591070
      40A     -0.554088    41A     -0.537307    42A     -0.526736
      43A     -0.519272    44A     -0.506623    45A     -0.501979
      46A     -0.491492    47A     -0.456302    48A     -0.421546
      49A     -0.356087    50A     -0.346526    51A     -0.344424
      52A     -0.298478

  @DF-RHF Final Energy:  -628.22281987772590

   => Energetics <=

    Nuclear Repulsion Energy =            893.2298759398026959
    One-Electron Energy =               -2625.7540965427156152
    Two-Electron Energy =                1104.3014007251870225
    Total Energy =                       -628.2228198777258967
  Basis Set: (AUG-CC-PVTZ AUX)
    Blend: AUG-CC-PVTZ-RI
    Molecular point group: c1

    Geometry (in Angstrom), charge = 0, multiplicity = 1:

       Center              X                  Y                   Z               Mass
    ------------   -----------------  -----------------  -----------------  -----------------
         O           -0.038769475736     2.169853546993    -0.305520079219    15.994914619570
         N            2.483576524264     1.917118546993     0.751925920781    14.003074004430
         C            1.088833724264     0.046644746993    -0.133656079219    12.000000000000
         C           -1.438698475736     0.290936546993    -0.036928079219    12.000000000000
         C           -0.097630475736     0.935681546993    -0.170930079219    12.000000000000
         C            2.371294524264     0.627508546993     0.256271920781    12.000000000000
         C            1.057092524264    -1.236063453007    -0.613712079219    12.000000000000
         C            3.491104524264    -0.224149453007     0.259728920781    12.000000000000
         C           -1.652921475736    -0.808140453007     0.808446920781    12.000000000000
         C           -2.521912475736     0.874699546993    -0.709084079219    12.000000000000
         C            2.184171524264    -2.047836453007    -0.644713079219    12.000000000000
         C            3.406287524264    -1.531876453007    -0.201399079219    12.000000000000
         C           -2.941096475736    -1.321061453007     0.966763920781    12.000000000000
         C           -3.801471475736     0.343348546993    -0.564554079219    12.000000000000
         C           -4.014022475736    -0.755175453007     0.274160920781    12.000000000000
         H            0.105426524264    -1.621150453007    -0.969434079219     1.007825032230
         H            4.449337524264     0.173475546993     0.590910920781     1.007825032230
         H           -0.820043475736    -1.240264453007     1.357066920781     1.007825032230
         H           -2.341953475736     1.743743546993    -1.336628079219     1.007825032230
         H            2.118188524264    -3.063290453007    -1.025425079219     1.007825032230
         H            4.297812524264    -2.155220453007    -0.205624079219     1.007825032230
         H           -3.107946475736    -2.163782453007     1.633445920781     1.007825032230
         H           -4.636842475736     0.788695546993    -1.099605079219     1.007825032230
         H           -5.014593475736    -1.164334453007     0.392606920781     1.007825032230
         H            1.791373524264     2.559766546993     0.381109920781     1.007825032230
         H            3.427180524264     2.286165546993     0.750646920781     1.007825032230

  Basis Set: AUG-CC-PVTZ
    Blend: AUG-CC-PVTZ
  Basis Set: (AUG-CC-PVTZ AUX)
    Blend: AUG-CC-PVTZ-JKFIT
	 Reference Energy          =    -628.2228198777258967 [Eh]
	 Singles Energy            =      -0.0000000000000000 [Eh]
	 Same-Spin Energy          =      -0.6916837343935486 [Eh]
	 Opposite-Spin Energy      =      -2.1097163455143413 [Eh]
	 Correlation Energy        =      -2.8014000799078898 [Eh]
	 Total Energy              =    -631.0242199576338180 [Eh]

	 ================> DF-SCS-MP2 Energies <==================
	-----------------------------------------------------------
	 SCS Same-Spin Scale       =       0.3333333333333333 [-]
	 SCS Opposite-Spin Scale   =       1.2000000000000000 [-]
	 SCS Same-Spin Energy      =      -0.2305612447978495 [Eh]
	 SCS Opposite-Spin Energy  =      -2.5316596146172095 [Eh]
	 SCS Correlation Energy    =      -2.7622208594150588 [Eh]
	 SCS Total Energy          =    -630.9850407371409347 [Eh]
	-----------------------------------------------------------

  Dipole Moment: [D]
     X:     0.3723      Y:    -1.5668      Z:    -0.0903     Total:     1.6129

*** Psi4 exiting successfully. Buy a developer a beer!
