                               Psi4 1.3.2 release

  ==> Input File <==

--------------------------------------------------------------------------
#psi4
#
memory 32 gb

molecule  {
0 1
  O       -0.0417540     2.1858230    -0.3073980
  N        2.4805920     1.9330880     0.7500480
  C        1.1160800     0.1042180    -0.1414450
  C       -1.4416830     0.3069060    -0.0388060
  C       -0.0185756     0.8945102    -0.1706933
  C        2.3683100     0.6434780     0.2543940
  C        1.0541080    -1.2200940    -0.6155900
  C        3.4881200    -0.2081800     0.2578510
  C       -1.6559060    -0.7921710     0.8065690
  C       -2.5248970     0.8906690    -0.7109620
  C        2.1811870    -2.0318670    -0.6465910
  C        3.4033030    -1.5159070    -0.2032770
  C       -2.9440810    -1.3050920     0.9648860
  C       -3.8044560     0.3593180    -0.5664320
  C       -4.0170070    -0.7392060     0.2722830
  H        0.1024420    -1.6051810    -0.9713120
  H        4.4463530     0.1894450     0.5890330
  H       -0.8230280    -1.2242950     1.3551890
  H       -2.3449380     1.7597130    -1.3385060
  H        2.1152040    -3.0473210    -1.0273030
  H        4.2948280    -2.1392510    -0.2075020
  H       -3.1109310    -2.1478130     1.6315680
  H       -4.6398270     0.8046650    -1.1014830
  H       -5.0175780    -1.1483650     0.3907290
  H        1.7883890     2.5757360     0.3792320
  H        3.4241960     2.3021350     0.7487690
units angstrom
no_reorient  #important for SAPT in psi4, default
symmetry c1  #important for SAPT in psi4, default
}

set PROPERTIES_ORIGIN ["COM"]
properties('MP2/aug-cc-pvtz', properties = ['dipole'])
--------------------------------------------------------------------------

    Molecular point group: c1
  Charge       = 0
  Multiplicity = 1
  Basis Set: AUG-CC-PVTZ
    Blend: AUG-CC-PVTZ
  Basis Set: (AUG-CC-PVTZ AUX)
    Blend: AUG-CC-PVTZ-JKFIT

    Orbital Energies [Eh]
    ---------------------

    Doubly Occupied:

       1A    -20.530572     2A    -15.567623     3A    -11.339964
       4A    -11.308833     5A    -11.264192     6A    -11.263263
       7A    -11.251640     8A    -11.246430     9A    -11.246271
      10A    -11.243543    11A    -11.241879    12A    -11.240939
      13A    -11.239421    14A    -11.239387    15A    -11.235691
      16A     -1.336419    17A     -1.234328    18A     -1.159748
      19A     -1.146657    20A     -1.067651    21A     -1.021736
      22A     -1.020143    23A     -1.006411    24A     -0.901891
      25A     -0.852297    26A     -0.834557    27A     -0.823141
      28A     -0.772477    29A     -0.719153    30A     -0.705236
      31A     -0.694049    32A     -0.668385    33A     -0.638466
      34A     -0.633316    35A     -0.617196    36A     -0.612716
      37A     -0.606170    38A     -0.593174    39A     -0.583568
      40A     -0.555057    41A     -0.537102    42A     -0.523460
      43A     -0.516497    44A     -0.508174    45A     -0.497587
      46A     -0.479555    47A     -0.459156    48A     -0.419441
      49A     -0.357644    50A     -0.342602    51A     -0.338862
      52A     -0.308675

  @DF-RHF Final Energy:  -628.20764257710698

   => Energetics <=

    Nuclear Repulsion Energy =            893.4567779669845322
    One-Electron Energy =               -2626.2241479273675395
    Two-Electron Energy =                1104.5597273832759129
    Total Energy =                       -628.2076425771069808
  Basis Set: (AUG-CC-PVTZ AUX)
    Blend: AUG-CC-PVTZ-RI
    Molecular point group: c1

    Geometry (in Angstrom), charge = 0, multiplicity = 1:

       Center              X                  Y                   Z               Mass
    ------------   -----------------  -----------------  -----------------  -----------------
         O           -0.045605352635     2.170799559554    -0.305288931154    15.994914619570
         N            2.476740647365     1.918064559554     0.752157068846    14.003074004430
         C            1.112228647365     0.089194559554    -0.139335931154    12.000000000000
         C           -1.445534352635     0.291882559554    -0.036696931154    12.000000000000
         C           -0.022426952635     0.879486759554    -0.168584231154    12.000000000000
         C            2.364458647365     0.628454559554     0.256503068846    12.000000000000
         C            1.050256647365    -1.235117440446    -0.613480931154    12.000000000000
         C            3.484268647365    -0.223203440446     0.259960068846    12.000000000000
         C           -1.659757352635    -0.807194440446     0.808678068846    12.000000000000
         C           -2.528748352635     0.875645559554    -0.708852931154    12.000000000000
         C            2.177335647365    -2.046890440446    -0.644481931154    12.000000000000
         C            3.399451647365    -1.530930440446    -0.201167931154    12.000000000000
         C           -2.947932352635    -1.320115440446     0.966995068846    12.000000000000
         C           -3.808307352635     0.344294559554    -0.564322931154    12.000000000000
         C           -4.020858352635    -0.754229440446     0.274392068846    12.000000000000
         H            0.098590647365    -1.620204440446    -0.969202931154     1.007825032230
         H            4.442501647365     0.174421559554     0.591142068846     1.007825032230
         H           -0.826879352635    -1.239318440446     1.357298068846     1.007825032230
         H           -2.348789352635     1.744689559554    -1.336396931154     1.007825032230
         H            2.111352647365    -3.062344440446    -1.025193931154     1.007825032230
         H            4.290976647365    -2.154274440446    -0.205392931154     1.007825032230
         H           -3.114782352635    -2.162836440446     1.633677068846     1.007825032230
         H           -4.643678352635     0.789641559554    -1.099373931154     1.007825032230
         H           -5.021429352635    -1.163388440446     0.392838068846     1.007825032230
         H            1.784537647365     2.560712559554     0.381341068846     1.007825032230
         H            3.420344647365     2.287111559554     0.750878068846     1.007825032230

  Basis Set: AUG-CC-PVTZ
    Blend: AUG-CC-PVTZ
  Basis Set: (AUG-CC-PVTZ AUX)
    Blend: AUG-CC-PVTZ-JKFIT
	 Reference Energy          =    -628.2076425771069808 [Eh]
	 Singles Energy            =      -0.0000000000000000 [Eh]
	 Same-Spin Energy          =      -0.6936234943671781 [Eh]
	 Opposite-Spin Energy      =      -2.1135625662919804 [Eh]
	 Correlation Energy        =      -2.8071860606591583 [Eh]
	 Total Energy              =    -631.0148286377661861 [Eh]

	 ================> DF-SCS-MP2 Energies <==================
	-----------------------------------------------------------
	 SCS Same-Spin Scale       =       0.3333333333333333 [-]
	 SCS Opposite-Spin Scale   =       1.2000000000000000 [-]
	 SCS Same-Spin Energy      =      -0.2312078314557260 [Eh]
	 SCS Opposite-Spin Energy  =      -2.5362750795503763 [Eh]
	 SCS Correlation Energy    =      -2.7674829110061023 [Eh]
	 SCS Total Energy          =    -630.9751254881131217 [Eh]
	-----------------------------------------------------------

  Dipole Moment: [D]
     X:     1.2636      Y:    -1.9208      Z:    -0.1063     Total:     2.3016

*** Psi4 exiting successfully. Buy a developer a beer!
