                               Psi4 1.3.2 release

  ==> Input File <==

--------------------------------------------------------------------------
#psi4
#
memory 32 gb

molecule  {
0 1
  O       -0.0417540     2.1858230    -0.3073980
  N        2.4805920     1.9330880     0.7500480
  C        1.0955364     0.1486830    -0.1339296
  C       -1.4416830     0.3069060    -0.0388060
  C       -0.1006150     0.9516510    -0.1728080
  C        2.3683100     0.6434780     0.2543940
  C        1.0541080    -1.2200940    -0.6155900
  C        3.4881200    -0.2081800     0.2578510
  C       -1.6559060    -0.7921710     0.8065690
  C       -2.5248970     0.8906690    -0.7109620
  C        2.1811870    -2.0318670    -0.6465910
  C        3.4033030    -1.5159070    -0.2032770
  C       -2.9440810    -1.3050920     0.9648860
  C       -3.8044560     0.3593180    -0.5664320
  C       -4.0170070    -0.7392060     0.2722830
  H        0.1024420    -1.6051810    -0.9713120
  H        4.4463530     0.1894450     0.5890330
  H       -0.8230280    -1.2242950     1.3551890
  H       -2.3449380     1.7597130    -1.3385060
  H        2.1152040    -3.0473210    -1.0273030
  H        4.2948280    -2.1392510    -0.2075020
  H       -3.1109310    -2.1478130     1.6315680
  H       -4.6398270     0.8046650    -1.1014830
  H       -5.0175780    -1.1483650     0.3907290
  H        1.7883890     2.5757360     0.3792320
  H        3.4241960     2.3021350     0.7487690
units angstrom
no_reorient  #important for SAPT in psi4, default
symmetry c1  #important for SAPT in psi4, default
}

set PROPERTIES_ORIGIN ["COM"]
properties('MP2/aug-cc-pvtz', properties = ['dipole'])
--------------------------------------------------------------------------

    Molecular point group: c1
  Charge       = 0
  Multiplicity = 1
  Basis Set: AUG-CC-PVTZ
    Blend: AUG-CC-PVTZ
  Basis Set: (AUG-CC-PVTZ AUX)
    Blend: AUG-CC-PVTZ-JKFIT

    Orbital Energies [Eh]
    ---------------------

    Doubly Occupied:

       1A    -20.537110     2A    -15.561720     3A    -11.336814
       4A    -11.301464     5A    -11.259862     6A    -11.257840
       7A    -11.251864     8A    -11.250776     9A    -11.249605
      10A    -11.247300    11A    -11.245219    12A    -11.243779
      13A    -11.240554    14A    -11.235563    15A    -11.231549
      16A     -1.372656    17A     -1.229158    18A     -1.163581
      19A     -1.135905    20A     -1.058826    21A     -1.025697
      22A     -1.019900    23A     -0.999082    24A     -0.896722
      25A     -0.851585    26A     -0.838238    27A     -0.818343
      28A     -0.770370    29A     -0.719096    30A     -0.702883
      31A     -0.687879    32A     -0.671811    33A     -0.646948
      34A     -0.634770    35A     -0.616206    36A     -0.612364
      37A     -0.604640    38A     -0.596495    39A     -0.583310
      40A     -0.555145    41A     -0.536849    42A     -0.525849
      43A     -0.519859    44A     -0.508003    45A     -0.501581
      46A     -0.488698    47A     -0.453095    48A     -0.423548
      49A     -0.349621    50A     -0.345241    51A     -0.343459
      52A     -0.304321

  @DF-RHF Final Energy:  -628.22248945208673

   => Energetics <=

    Nuclear Repulsion Energy =            893.2825018174542038
    One-Electron Energy =               -2625.8844811819676579
    Two-Electron Energy =                1104.3794899124266067
    Total Energy =                       -628.2224894520868475
  Basis Set: (AUG-CC-PVTZ AUX)
    Blend: AUG-CC-PVTZ-RI
    Molecular point group: c1

    Geometry (in Angstrom), charge = 0, multiplicity = 1:

       Center              X                  Y                   Z               Mass
    ------------   -----------------  -----------------  -----------------  -----------------
         O           -0.039359307292     2.164613013694    -0.305617767483    15.994914619570
         N            2.482986692708     1.911878013694     0.751828232517    14.003074004430
         C            1.097931092708     0.127473013694    -0.132149367483    12.000000000000
         C           -1.439288307292     0.285696013694    -0.037025767483    12.000000000000
         C           -0.098220307292     0.930441013694    -0.171027767483    12.000000000000
         C            2.370704692708     0.622268013694     0.256174232517    12.000000000000
         C            1.056502692708    -1.241303986306    -0.613809767483    12.000000000000
         C            3.490514692708    -0.229389986306     0.259631232517    12.000000000000
         C           -1.653511307292    -0.813380986306     0.808349232517    12.000000000000
         C           -2.522502307292     0.869459013694    -0.709181767483    12.000000000000
         C            2.183581692708    -2.053076986306    -0.644810767483    12.000000000000
         C            3.405697692708    -1.537116986306    -0.201496767483    12.000000000000
         C           -2.941686307292    -1.326301986306     0.966666232517    12.000000000000
         C           -3.802061307292     0.338108013694    -0.564651767483    12.000000000000
         C           -4.014612307292    -0.760415986306     0.274063232517    12.000000000000
         H            0.104836692708    -1.626390986306    -0.969531767483     1.007825032230
         H            4.448747692708     0.168235013694     0.590813232517     1.007825032230
         H           -0.820633307292    -1.245504986306     1.356969232517     1.007825032230
         H           -2.342543307292     1.738503013694    -1.336725767483     1.007825032230
         H            2.117598692708    -3.068530986306    -1.025522767483     1.007825032230
         H            4.297222692708    -2.160460986306    -0.205721767483     1.007825032230
         H           -3.108536307292    -2.169022986306     1.633348232517     1.007825032230
         H           -4.637432307292     0.783455013694    -1.099702767483     1.007825032230
         H           -5.015183307292    -1.169574986306     0.392509232517     1.007825032230
         H            1.790783692708     2.554526013694     0.381012232517     1.007825032230
         H            3.426590692708     2.280925013694     0.750549232517     1.007825032230

  Basis Set: AUG-CC-PVTZ
    Blend: AUG-CC-PVTZ
  Basis Set: (AUG-CC-PVTZ AUX)
    Blend: AUG-CC-PVTZ-JKFIT
	 Reference Energy          =    -628.2224894520867338 [Eh]
	 Singles Energy            =      -0.0000000000000000 [Eh]
	 Same-Spin Energy          =      -0.6918017078009432 [Eh]
	 Opposite-Spin Energy      =      -2.1101901449485028 [Eh]
	 Correlation Energy        =      -2.8019918527494458 [Eh]
	 Total Energy              =    -631.0244813048361721 [Eh]

	 ================> DF-SCS-MP2 Energies <==================
	-----------------------------------------------------------
	 SCS Same-Spin Scale       =       0.3333333333333333 [-]
	 SCS Opposite-Spin Scale   =       1.2000000000000000 [-]
	 SCS Same-Spin Energy      =      -0.2306005692669811 [Eh]
	 SCS Opposite-Spin Energy  =      -2.5322281739382033 [Eh]
	 SCS Correlation Energy    =      -2.7628287432051843 [Eh]
	 SCS Total Energy          =    -630.9853181952919385 [Eh]
	-----------------------------------------------------------

  Dipole Moment: [D]
     X:     0.5262      Y:    -1.7267      Z:    -0.0914     Total:     1.8074

*** Psi4 exiting successfully. Buy a developer a beer!
