                               Psi4 1.3.2 release

  ==> Input File <==

--------------------------------------------------------------------------
#psi4
#
memory 32 gb

molecule  {
0 1
  O       -0.0417540     2.1858230    -0.3073980
  N        2.4805920     1.9330880     0.7500480
  C        1.1160800     0.1042180    -0.1414450
  C       -1.4416830     0.3069060    -0.0388060
  C       -0.1266338     0.9119494    -0.1934604
  C        2.3683100     0.6434780     0.2543940
  C        1.0541080    -1.2200940    -0.6155900
  C        3.4881200    -0.2081800     0.2578510
  C       -1.6559060    -0.7921710     0.8065690
  C       -2.5248970     0.8906690    -0.7109620
  C        2.1811870    -2.0318670    -0.6465910
  C        3.4033030    -1.5159070    -0.2032770
  C       -2.9440810    -1.3050920     0.9648860
  C       -3.8044560     0.3593180    -0.5664320
  C       -4.0170070    -0.7392060     0.2722830
  H        0.1024420    -1.6051810    -0.9713120
  H        4.4463530     0.1894450     0.5890330
  H       -0.8230280    -1.2242950     1.3551890
  H       -2.3449380     1.7597130    -1.3385060
  H        2.1152040    -3.0473210    -1.0273030
  H        4.2948280    -2.1392510    -0.2075020
  H       -3.1109310    -2.1478130     1.6315680
  H       -4.6398270     0.8046650    -1.1014830
  H       -5.0175780    -1.1483650     0.3907290
  H        1.7883890     2.5757360     0.3792320
  H        3.4241960     2.3021350     0.7487690
units angstrom
no_reorient  #important for SAPT in psi4, default
symmetry c1  #important for SAPT in psi4, default
}

set PROPERTIES_ORIGIN ["COM"]
properties('MP2/aug-cc-pvtz', properties = ['dipole'])
--------------------------------------------------------------------------

    Molecular point group: c1
  Charge       = 0
  Multiplicity = 1
  Basis Set: AUG-CC-PVTZ
    Blend: AUG-CC-PVTZ
  Basis Set: (AUG-CC-PVTZ AUX)
    Blend: AUG-CC-PVTZ-JKFIT

    Orbital Energies [Eh]
    ---------------------

    Doubly Occupied:

       1A    -20.535813     2A    -15.560617     3A    -11.342255
       4A    -11.299833     5A    -11.255669     6A    -11.254627
       7A    -11.254455     8A    -11.253679     9A    -11.251529
      10A    -11.250276    11A    -11.247714    12A    -11.246166
      13A    -11.242129    14A    -11.233649    15A    -11.229423
      16A     -1.348649    17A     -1.226956    18A     -1.167600
      19A     -1.138631    20A     -1.061462    21A     -1.029260
      22A     -1.023081    23A     -0.997296    24A     -0.897836
      25A     -0.850522    26A     -0.840910    27A     -0.821546
      28A     -0.771338    29A     -0.719076    30A     -0.702330
      31A     -0.686982    32A     -0.670987    33A     -0.646729
      34A     -0.634339    35A     -0.615259    36A     -0.610625
      37A     -0.604182    38A     -0.599075    39A     -0.580966
      40A     -0.551561    41A     -0.532502    42A     -0.526652
      43A     -0.521226    44A     -0.509050    45A     -0.503701
      46A     -0.483088    47A     -0.453175    48A     -0.423788
      49A     -0.352532    50A     -0.347188    51A     -0.346133
      52A     -0.301474

  @DF-RHF Final Energy:  -628.21863275967655

   => Energetics <=

    Nuclear Repulsion Energy =            893.1734757085391720
    One-Electron Energy =               -2625.6731378475110432
    Two-Electron Energy =                1104.2810293792952052
    Total Energy =                       -628.2186327596766660
  Basis Set: (AUG-CC-PVTZ AUX)
    Blend: AUG-CC-PVTZ-RI
    Molecular point group: c1

    Geometry (in Angstrom), charge = 0, multiplicity = 1:

       Center              X                  Y                   Z               Mass
    ------------   -----------------  -----------------  -----------------  -----------------
         O           -0.039025934828     2.169737726366    -0.303902694264    15.994914619570
         N            2.483320065172     1.917002726366     0.753543305736    14.003074004430
         C            1.118808065172     0.088132726366    -0.137949694264    12.000000000000
         C           -1.438954934828     0.290820726366    -0.035310694264    12.000000000000
         C           -0.123905734828     0.895864126366    -0.189965094264    12.000000000000
         C            2.371038065172     0.627392726366     0.257889305736    12.000000000000
         C            1.056836065172    -1.236179273634    -0.612094694264    12.000000000000
         C            3.490848065172    -0.224265273634     0.261346305736    12.000000000000
         C           -1.653177934828    -0.808256273634     0.810064305736    12.000000000000
         C           -2.522168934828     0.874583726366    -0.707466694264    12.000000000000
         C            2.183915065172    -2.047952273634    -0.643095694264    12.000000000000
         C            3.406031065172    -1.531992273634    -0.199781694264    12.000000000000
         C           -2.941352934828    -1.321177273634     0.968381305736    12.000000000000
         C           -3.801727934828     0.343232726366    -0.562936694264    12.000000000000
         C           -4.014278934828    -0.755291273634     0.275778305736    12.000000000000
         H            0.105170065172    -1.621266273634    -0.967816694264     1.007825032230
         H            4.449081065172     0.173359726366     0.592528305736     1.007825032230
         H           -0.820299934828    -1.240380273634     1.358684305736     1.007825032230
         H           -2.342209934828     1.743627726366    -1.335010694264     1.007825032230
         H            2.117932065172    -3.063406273634    -1.023807694264     1.007825032230
         H            4.297556065172    -2.155336273634    -0.204006694264     1.007825032230
         H           -3.108202934828    -2.163898273634     1.635063305736     1.007825032230
         H           -4.637098934828     0.788579726366    -1.097987694264     1.007825032230
         H           -5.014849934828    -1.164450273634     0.394224305736     1.007825032230
         H            1.791117065172     2.559650726366     0.382727305736     1.007825032230
         H            3.426924065172     2.286049726366     0.752264305736     1.007825032230

  Basis Set: AUG-CC-PVTZ
    Blend: AUG-CC-PVTZ
  Basis Set: (AUG-CC-PVTZ AUX)
    Blend: AUG-CC-PVTZ-JKFIT
	 Reference Energy          =    -628.2186327596765523 [Eh]
	 Singles Energy            =      -0.0000000000000000 [Eh]
	 Same-Spin Energy          =      -0.6929134305934608 [Eh]
	 Opposite-Spin Energy      =      -2.1122347268933321 [Eh]
	 Correlation Energy        =      -2.8051481574867929 [Eh]
	 Total Energy              =    -631.0237809171633216 [Eh]

	 ================> DF-SCS-MP2 Energies <==================
	-----------------------------------------------------------
	 SCS Same-Spin Scale       =       0.3333333333333333 [-]
	 SCS Opposite-Spin Scale   =       1.2000000000000000 [-]
	 SCS Same-Spin Energy      =      -0.2309711435311536 [Eh]
	 SCS Opposite-Spin Energy  =      -2.5346816722719985 [Eh]
	 SCS Correlation Energy    =      -2.7656528158031519 [Eh]
	 SCS Total Energy          =    -630.9842855754797029 [Eh]
	-----------------------------------------------------------

  Dipole Moment: [D]
     X:     0.1691      Y:    -1.7954      Z:    -0.0806     Total:     1.8052

*** Psi4 exiting successfully. Buy a developer a beer!
