                               Psi4 1.4a3.dev225

  ==> Input File <==

--------------------------------------------------------------------------
#psi4
#
memory 32 gb

molecule  {
0 1
  O       -0.0417540     2.1858230    -0.3073980
  N        2.4805920     1.9330880     0.7500480
  C        1.1160800     0.1042180    -0.1414450
  C       -1.4416830     0.3069060    -0.0388060
  C       -0.0595953     0.9230806    -0.1717506
  C        2.3683100     0.6434780     0.2543940
  C        1.0541080    -1.2200940    -0.6155900
  C        3.4881200    -0.2081800     0.2578510
  C       -1.6559060    -0.7921710     0.8065690
  C       -2.5248970     0.8906690    -0.7109620
  C        2.1811870    -2.0318670    -0.6465910
  C        3.4033030    -1.5159070    -0.2032770
  C       -2.9440810    -1.3050920     0.9648860
  C       -3.8044560     0.3593180    -0.5664320
  C       -4.0170070    -0.7392060     0.2722830
  H        0.1024420    -1.6051810    -0.9713120
  H        4.4463530     0.1894450     0.5890330
  H       -0.8230280    -1.2242950     1.3551890
  H       -2.3449380     1.7597130    -1.3385060
  H        2.1152040    -3.0473210    -1.0273030
  H        4.2948280    -2.1392510    -0.2075020
  H       -3.1109310    -2.1478130     1.6315680
  H       -4.6398270     0.8046650    -1.1014830
  H       -5.0175780    -1.1483650     0.3907290
  H        1.7883890     2.5757360     0.3792320
  H        3.4241960     2.3021350     0.7487690
units angstrom
no_reorient  #important for SAPT in psi4, default
symmetry c1  #important for SAPT in psi4, default
}

set PROPERTIES_ORIGIN ["COM"]
properties('MP2/aug-cc-pvtz', properties = ['dipole'])
--------------------------------------------------------------------------

    Molecular point group: c1
  Charge       = 0
  Multiplicity = 1
  Basis Set: AUG-CC-PVTZ
    Blend: AUG-CC-PVTZ
  Basis Set: (AUG-CC-PVTZ AUX)
    Blend: AUG-CC-PVTZ-JKFIT

    Orbital Energies [Eh]
    ---------------------

    Doubly Occupied:

       1A    -20.536523     2A    -15.564627     3A    -11.341176
       4A    -11.303734     5A    -11.259145     6A    -11.258630
       7A    -11.251086     8A    -11.249271     9A    -11.248930
      10A    -11.245904    11A    -11.243887    12A    -11.242729
      13A    -11.240703    14A    -11.236408    15A    -11.232682
      16A     -1.355438    17A     -1.231458    18A     -1.161808
      19A     -1.142658    20A     -1.061267    21A     -1.024213
      22A     -1.021358    23A     -1.002027    24A     -0.896668
      25A     -0.850828    26A     -0.837065    27A     -0.821960
      28A     -0.771156    29A     -0.718800    30A     -0.703558
      31A     -0.691282    32A     -0.669752    33A     -0.642585
      34A     -0.633542    35A     -0.616041    36A     -0.611280
      37A     -0.606010    38A     -0.595273    39A     -0.586513
      40A     -0.554750    41A     -0.536018    42A     -0.524374
      43A     -0.518366    44A     -0.509874    45A     -0.500018
      46A     -0.485612    47A     -0.456614    48A     -0.422053
      49A     -0.354748    50A     -0.344474    51A     -0.342023
      52A     -0.305320

  @DF-RHF Final Energy:  -628.22009937600933

   => Energetics <=

    Nuclear Repulsion Energy =            893.3106710387259000
    One-Electron Energy =               -2625.9371023327571493
    Two-Electron Energy =                1104.4063319180218059
    Total Energy =                       -628.2200993760093297
  Basis Set: (AUG-CC-PVTZ AUX)
    Blend: AUG-CC-PVTZ-RI
    Molecular point group: c1

    Geometry (in Angstrom), charge = 0, multiplicity = 1:

       Center              X                  Y                   Z               Mass
    ------------   -----------------  -----------------  -----------------  -----------------
         O           -0.043107756482     2.169059972938    -0.305224554564    15.994914619570
         N            2.479238243518     1.916324972938     0.752221445436    14.003074004430
         C            1.114726243518     0.087454972938    -0.139271554564    12.000000000000
         C           -1.443036756482     0.290142972938    -0.036632554564    12.000000000000
         C           -0.060949056482     0.906317572938    -0.169577154564    12.000000000000
         C            2.366956243518     0.626714972938     0.256567445436    12.000000000000
         C            1.052754243518    -1.236857027062    -0.613416554564    12.000000000000
         C            3.486766243518    -0.224943027062     0.260024445436    12.000000000000
         C           -1.657259756482    -0.808934027062     0.808742445436    12.000000000000
         C           -2.526250756482     0.873905972938    -0.708788554564    12.000000000000
         C            2.179833243518    -2.048630027062    -0.644417554564    12.000000000000
         C            3.401949243518    -1.532670027062    -0.201103554564    12.000000000000
         C           -2.945434756482    -1.321855027062     0.967059445436    12.000000000000
         C           -3.805809756482     0.342554972938    -0.564258554564    12.000000000000
         C           -4.018360756482    -0.755969027062     0.274456445436    12.000000000000
         H            0.101088243518    -1.621944027062    -0.969138554564     1.007825032230
         H            4.444999243518     0.172681972938     0.591206445436     1.007825032230
         H           -0.824381756482    -1.241058027062     1.357362445436     1.007825032230
         H           -2.346291756482     1.742949972938    -1.336332554564     1.007825032230
         H            2.113850243518    -3.064084027062    -1.025129554564     1.007825032230
         H            4.293474243518    -2.156014027062    -0.205328554564     1.007825032230
         H           -3.112284756482    -2.164576027062     1.633741445436     1.007825032230
         H           -4.641180756482     0.787901972938    -1.099309554564     1.007825032230
         H           -5.018931756482    -1.165128027062     0.392902445436     1.007825032230
         H            1.787035243518     2.558972972938     0.381405445436     1.007825032230
         H            3.422842243518     2.285371972938     0.750942445436     1.007825032230

  Basis Set: AUG-CC-PVTZ
    Blend: AUG-CC-PVTZ
  Basis Set: (AUG-CC-PVTZ AUX)
    Blend: AUG-CC-PVTZ-JKFIT
	 Reference Energy          =    -628.2200993760093297 [Eh]
	 Singles Energy            =      -0.0000000000000000 [Eh]
	 Same-Spin Energy          =      -0.6924891829854175 [Eh]
	 Opposite-Spin Energy      =      -2.1113832454598742 [Eh]
	 Correlation Energy        =      -2.8038724284452918 [Eh]
	 Total Energy              =    -631.0239718044546180 [Eh]

	 ================> DF-SCS-MP2 Energies <==================
	-----------------------------------------------------------
	 SCS Same-Spin Scale       =       0.3333333333333333 [-]
	 SCS Opposite-Spin Scale   =       1.2000000000000000 [-]
	 SCS Same-Spin Energy      =      -0.2308297276618058 [Eh]
	 SCS Opposite-Spin Energy  =      -2.5336598945518491 [Eh]
	 SCS Correlation Energy    =      -2.7644896222136550 [Eh]
	 SCS Total Energy          =    -630.9845889982229892 [Eh]
	-----------------------------------------------------------

  Dipole Moment: [D]
     X:     0.8062      Y:    -1.7792      Z:    -0.1058     Total:     1.9562

*** Psi4 exiting successfully. Buy a developer a beer!
