                               Psi4 1.3.2 release

  ==> Input File <==

--------------------------------------------------------------------------
#psi4
#
memory 32 gb

molecule  {
0 1
  O       -0.0417540     2.1858230    -0.3073980
  N        2.4805920     1.9330880     0.7500480
  C        1.1160800     0.1042180    -0.1414450
  C       -1.4416830     0.3069060    -0.0388060
  C       -0.1672779     1.0502646    -0.2742325
  C        2.3683100     0.6434780     0.2543940
  C        1.0541080    -1.2200940    -0.6155900
  C        3.4881200    -0.2081800     0.2578510
  C       -1.6559060    -0.7921710     0.8065690
  C       -2.5248970     0.8906690    -0.7109620
  C        2.1811870    -2.0318670    -0.6465910
  C        3.4033030    -1.5159070    -0.2032770
  C       -2.9440810    -1.3050920     0.9648860
  C       -3.8044560     0.3593180    -0.5664320
  C       -4.0170070    -0.7392060     0.2722830
  H        0.1024420    -1.6051810    -0.9713120
  H        4.4463530     0.1894450     0.5890330
  H       -0.8230280    -1.2242950     1.3551890
  H       -2.3449380     1.7597130    -1.3385060
  H        2.1152040    -3.0473210    -1.0273030
  H        4.2948280    -2.1392510    -0.2075020
  H       -3.1109310    -2.1478130     1.6315680
  H       -4.6398270     0.8046650    -1.1014830
  H       -5.0175780    -1.1483650     0.3907290
  H        1.7883890     2.5757360     0.3792320
  H        3.4241960     2.3021350     0.7487690
units angstrom
no_reorient  #important for SAPT in psi4, default
symmetry c1  #important for SAPT in psi4, default
}

set PROPERTIES_ORIGIN ["COM"]
properties('MP2/aug-cc-pvtz', properties = ['dipole'])
--------------------------------------------------------------------------

    Molecular point group: c1
  Charge       = 0
  Multiplicity = 1
  Basis Set: AUG-CC-PVTZ
    Blend: AUG-CC-PVTZ
  Basis Set: (AUG-CC-PVTZ AUX)
    Blend: AUG-CC-PVTZ-JKFIT

    Orbital Energies [Eh]
    ---------------------

    Doubly Occupied:

       1A    -20.558246     2A    -15.558735     3A    -11.341566
       4A    -11.289623     5A    -11.255427     6A    -11.252362
       7A    -11.250149     8A    -11.248240     9A    -11.247926
      10A    -11.245626    11A    -11.245221    12A    -11.244812
      13A    -11.236450    14A    -11.227809    15A    -11.223886
      16A     -1.451842    17A     -1.224029    18A     -1.165892
      19A     -1.130188    20A     -1.050745    21A     -1.028184
      22A     -1.013906    23A     -0.988946    24A     -0.884591
      25A     -0.845899    26A     -0.835999    27A     -0.813515
      28A     -0.769953    29A     -0.718030    30A     -0.703176
      31A     -0.685080    32A     -0.672749    33A     -0.666574
      34A     -0.636882    35A     -0.619081    36A     -0.615440
      37A     -0.600397    38A     -0.598966    39A     -0.587454
      40A     -0.574675    41A     -0.539405    42A     -0.530535
      43A     -0.520227    44A     -0.510027    45A     -0.504955
      46A     -0.499464    47A     -0.449379    48A     -0.404219
      49A     -0.349438    50A     -0.348781    51A     -0.341852
      52A     -0.295940

  @DF-RHF Final Energy:  -628.20992550121650

   => Energetics <=

    Nuclear Repulsion Energy =            892.9471867936313174
    One-Electron Energy =               -2625.1092437740862806
    Two-Electron Energy =                1103.9521314792384601
    Total Energy =                       -628.2099255012165031
  Basis Set: (AUG-CC-PVTZ AUX)
    Blend: AUG-CC-PVTZ-RI
    Molecular point group: c1

    Geometry (in Angstrom), charge = 0, multiplicity = 1:

       Center              X                  Y                   Z               Mass
    ------------   -----------------  -----------------  -----------------  -----------------
         O           -0.036551208104     2.161316028708    -0.298984664970    15.994914619570
         N            2.485794791896     1.908581028708     0.758461335030    14.003074004430
         C            1.121282791896     0.079711028708    -0.133031664970    12.000000000000
         C           -1.436480208104     0.282399028708    -0.030392664970    12.000000000000
         C           -0.162075108104     1.025757628708    -0.265819164970    12.000000000000
         C            2.373512791896     0.618971028708     0.262807335030    12.000000000000
         C            1.059310791896    -1.244600971292    -0.607176664970    12.000000000000
         C            3.493322791896    -0.232686971292     0.266264335030    12.000000000000
         C           -1.650703208104    -0.816677971292     0.814982335030    12.000000000000
         C           -2.519694208104     0.866162028708    -0.702548664970    12.000000000000
         C            2.186389791896    -2.056373971292    -0.638177664970    12.000000000000
         C            3.408505791896    -1.540413971292    -0.194863664970    12.000000000000
         C           -2.938878208104    -1.329598971292     0.973299335030    12.000000000000
         C           -3.799253208104     0.334811028708    -0.558018664970    12.000000000000
         C           -4.011804208104    -0.763712971292     0.280696335030    12.000000000000
         H            0.107644791896    -1.629687971292    -0.962898664970     1.007825032230
         H            4.451555791896     0.164938028708     0.597446335030     1.007825032230
         H           -0.817825208104    -1.248801971292     1.363602335030     1.007825032230
         H           -2.339735208104     1.735206028708    -1.330092664970     1.007825032230
         H            2.120406791896    -3.071827971292    -1.018889664970     1.007825032230
         H            4.300030791896    -2.163757971292    -0.199088664970     1.007825032230
         H           -3.105728208104    -2.172319971292     1.639981335030     1.007825032230
         H           -4.634624208104     0.780158028708    -1.093069664970     1.007825032230
         H           -5.012375208104    -1.172871971292     0.399142335030     1.007825032230
         H            1.793591791896     2.551229028708     0.387645335030     1.007825032230
         H            3.429398791896     2.277628028708     0.757182335030     1.007825032230

  Basis Set: AUG-CC-PVTZ
    Blend: AUG-CC-PVTZ
  Basis Set: (AUG-CC-PVTZ AUX)
    Blend: AUG-CC-PVTZ-JKFIT
	 Reference Energy          =    -628.2099255012165031 [Eh]
	 Singles Energy            =      -0.0000000000000000 [Eh]
	 Same-Spin Energy          =      -0.6893215845171067 [Eh]
	 Opposite-Spin Energy      =      -2.1052791594407010 [Eh]
	 Correlation Energy        =      -2.7946007439578078 [Eh]
	 Total Energy              =    -631.0045262451743611 [Eh]

	 ================> DF-SCS-MP2 Energies <==================
	-----------------------------------------------------------
	 SCS Same-Spin Scale       =       0.3333333333333333 [-]
	 SCS Opposite-Spin Scale   =       1.2000000000000000 [-]
	 SCS Same-Spin Energy      =      -0.2297738615057022 [Eh]
	 SCS Opposite-Spin Energy  =      -2.5263349913288411 [Eh]
	 SCS Correlation Energy    =      -2.7561088528345432 [Eh]
	 SCS Total Energy          =    -630.9660343540510894 [Eh]
	-----------------------------------------------------------

  Dipole Moment: [D]
     X:    -0.3213      Y:    -1.0395      Z:    -0.2205     Total:     1.1101

*** Psi4 exiting successfully. Buy a developer a beer!
