                               Psi4 1.3.2 release

  ==> Input File <==

--------------------------------------------------------------------------
#psi4
#
memory 32 gb

molecule  {
0 1
  O       -0.0417540     2.1858230    -0.3073980
  N        2.4805920     1.9330880     0.7500480
  C        1.0591244     0.2393667    -0.1174891
  C       -1.4416830     0.3069060    -0.0388060
  C       -0.1006150     0.9516510    -0.1728080
  C        2.3683100     0.6434780     0.2543940
  C        1.0541080    -1.2200940    -0.6155900
  C        3.4881200    -0.2081800     0.2578510
  C       -1.6559060    -0.7921710     0.8065690
  C       -2.5248970     0.8906690    -0.7109620
  C        2.1811870    -2.0318670    -0.6465910
  C        3.4033030    -1.5159070    -0.2032770
  C       -2.9440810    -1.3050920     0.9648860
  C       -3.8044560     0.3593180    -0.5664320
  C       -4.0170070    -0.7392060     0.2722830
  H        0.1024420    -1.6051810    -0.9713120
  H        4.4463530     0.1894450     0.5890330
  H       -0.8230280    -1.2242950     1.3551890
  H       -2.3449380     1.7597130    -1.3385060
  H        2.1152040    -3.0473210    -1.0273030
  H        4.2948280    -2.1392510    -0.2075020
  H       -3.1109310    -2.1478130     1.6315680
  H       -4.6398270     0.8046650    -1.1014830
  H       -5.0175780    -1.1483650     0.3907290
  H        1.7883890     2.5757360     0.3792320
  H        3.4241960     2.3021350     0.7487690
units angstrom
no_reorient  #important for SAPT in psi4, default
symmetry c1  #important for SAPT in psi4, default
}

set PROPERTIES_ORIGIN ["COM"]
properties('MP2/aug-cc-pvtz', properties = ['dipole'])
--------------------------------------------------------------------------

    Molecular point group: c1
  Charge       = 0
  Multiplicity = 1
  Basis Set: AUG-CC-PVTZ
    Blend: AUG-CC-PVTZ
  Basis Set: (AUG-CC-PVTZ AUX)
    Blend: AUG-CC-PVTZ-JKFIT

    Orbital Energies [Eh]
    ---------------------

    Doubly Occupied:

       1A    -20.526952     2A    -15.562016     3A    -11.325434
       4A    -11.307596     5A    -11.269698     6A    -11.264944
       7A    -11.250105     8A    -11.249075     9A    -11.248230
      10A    -11.245364    11A    -11.243759    12A    -11.242243
      13A    -11.239918    14A    -11.239234    15A    -11.235168
      16A     -1.369166    17A     -1.231137    18A     -1.161758
      19A     -1.132729    20A     -1.061885    21A     -1.024021
      22A     -1.018177    23A     -1.001782    24A     -0.904161
      25A     -0.855207    26A     -0.836815    27A     -0.816354
      28A     -0.770253    29A     -0.721587    30A     -0.704890
      31A     -0.686610    32A     -0.672971    33A     -0.644996
      34A     -0.635688    35A     -0.616867    36A     -0.613433
      37A     -0.604987    38A     -0.594921    39A     -0.576300
      40A     -0.556529    41A     -0.539710    42A     -0.523951
      43A     -0.520084    44A     -0.503289    45A     -0.499062
      46A     -0.480766    47A     -0.452258    48A     -0.422839
      49A     -0.346397    50A     -0.342697    51A     -0.339954
      52A     -0.308937

  @DF-RHF Final Energy:  -628.19785245622597

   => Energetics <=

    Nuclear Repulsion Energy =            893.5329579697029203
    One-Electron Energy =               -2626.3758235532477556
    Two-Electron Energy =                1104.6450131273188617
    Total Energy =                       -628.1978524562259736
  Basis Set: (AUG-CC-PVTZ AUX)
    Blend: AUG-CC-PVTZ-RI
    Molecular point group: c1

    Geometry (in Angstrom), charge = 0, multiplicity = 1:

       Center              X                  Y                   Z               Mass
    ------------   -----------------  -----------------  -----------------  -----------------
         O           -0.037142263503     2.159091489640    -0.306618792101    15.994914619570
         N            2.485203736497     1.906356489640     0.750827207899    14.003074004430
         C            1.063736136497     0.212635189640    -0.116709892101    12.000000000000
         C           -1.437071263503     0.280174489640    -0.038026792101    12.000000000000
         C           -0.096003263503     0.924919489640    -0.172028792101    12.000000000000
         C            2.372921736497     0.616746489640     0.255173207899    12.000000000000
         C            1.058719736497    -1.246825510360    -0.614810792101    12.000000000000
         C            3.492731736497    -0.234911510360     0.258630207899    12.000000000000
         C           -1.651294263503    -0.818902510360     0.807348207899    12.000000000000
         C           -2.520285263503     0.863937489640    -0.710182792101    12.000000000000
         C            2.185798736497    -2.058598510360    -0.645811792101    12.000000000000
         C            3.407914736497    -1.542638510360    -0.202497792101    12.000000000000
         C           -2.939469263503    -1.331823510360     0.965665207899    12.000000000000
         C           -3.799844263503     0.332586489640    -0.565652792101    12.000000000000
         C           -4.012395263503    -0.765937510360     0.273062207899    12.000000000000
         H            0.107053736497    -1.631912510360    -0.970532792101     1.007825032230
         H            4.450964736497     0.162713489640     0.589812207899     1.007825032230
         H           -0.818416263503    -1.251026510360     1.355968207899     1.007825032230
         H           -2.340326263503     1.732981489640    -1.337726792101     1.007825032230
         H            2.119815736497    -3.074052510360    -1.026523792101     1.007825032230
         H            4.299439736497    -2.165982510360    -0.206722792101     1.007825032230
         H           -3.106319263503    -2.174544510360     1.632347207899     1.007825032230
         H           -4.635215263503     0.777933489640    -1.100703792101     1.007825032230
         H           -5.012966263503    -1.175096510360     0.391508207899     1.007825032230
         H            1.793000736497     2.549004489640     0.380011207899     1.007825032230
         H            3.428807736497     2.275403489640     0.749548207899     1.007825032230

  Basis Set: AUG-CC-PVTZ
    Blend: AUG-CC-PVTZ
  Basis Set: (AUG-CC-PVTZ AUX)
    Blend: AUG-CC-PVTZ-JKFIT
	 Reference Energy          =    -628.1978524562259736 [Eh]
	 Singles Energy            =      -0.0000000000000000 [Eh]
	 Same-Spin Energy          =      -0.6927149504635418 [Eh]
	 Opposite-Spin Energy      =      -2.1124620131654770 [Eh]
	 Correlation Energy        =      -2.8051769636290187 [Eh]
	 Total Energy              =    -631.0030294198550109 [Eh]

	 ================> DF-SCS-MP2 Energies <==================
	-----------------------------------------------------------
	 SCS Same-Spin Scale       =       0.3333333333333333 [-]
	 SCS Opposite-Spin Scale   =       1.2000000000000000 [-]
	 SCS Same-Spin Energy      =      -0.2309049834878473 [Eh]
	 SCS Opposite-Spin Energy  =      -2.5349544157985724 [Eh]
	 SCS Correlation Energy    =      -2.7658593992864198 [Eh]
	 SCS Total Energy          =    -630.9637118555124289 [Eh]
	-----------------------------------------------------------

  Dipole Moment: [D]
     X:     0.8805      Y:    -1.8995      Z:    -0.0690     Total:     2.0948

*** Psi4 exiting successfully. Buy a developer a beer!
