                               Psi4 1.3.2 release

  ==> Input File <==

--------------------------------------------------------------------------
#psi4
#
memory 32 gb

molecule  {
0 1
  O       -0.0417540     2.1858230    -0.3073980
  N        2.4805920     1.9330880     0.7500480
  C        1.1160800     0.1042180    -0.1414450
  C       -1.4416830     0.3069060    -0.0388060
  C       -0.1006150     0.9516510    -0.1728080
  C        2.3896092     0.6002685     0.2427776
  C        1.0541080    -1.2200940    -0.6155900
  C        3.4881200    -0.2081800     0.2578510
  C       -1.6559060    -0.7921710     0.8065690
  C       -2.5248970     0.8906690    -0.7109620
  C        2.1811870    -2.0318670    -0.6465910
  C        3.4033030    -1.5159070    -0.2032770
  C       -2.9440810    -1.3050920     0.9648860
  C       -3.8044560     0.3593180    -0.5664320
  C       -4.0170070    -0.7392060     0.2722830
  H        0.1024420    -1.6051810    -0.9713120
  H        4.4463530     0.1894450     0.5890330
  H       -0.8230280    -1.2242950     1.3551890
  H       -2.3449380     1.7597130    -1.3385060
  H        2.1152040    -3.0473210    -1.0273030
  H        4.2948280    -2.1392510    -0.2075020
  H       -3.1109310    -2.1478130     1.6315680
  H       -4.6398270     0.8046650    -1.1014830
  H       -5.0175780    -1.1483650     0.3907290
  H        1.7883890     2.5757360     0.3792320
  H        3.4241960     2.3021350     0.7487690
units angstrom
no_reorient  #important for SAPT in psi4, default
symmetry c1  #important for SAPT in psi4, default
}

set PROPERTIES_ORIGIN ["COM"]
properties('MP2/aug-cc-pvtz', properties = ['dipole'])
--------------------------------------------------------------------------

    Molecular point group: c1
  Charge       = 0
  Multiplicity = 1
  Basis Set: AUG-CC-PVTZ
    Blend: AUG-CC-PVTZ
  Basis Set: (AUG-CC-PVTZ AUX)
    Blend: AUG-CC-PVTZ-JKFIT

    Orbital Energies [Eh]
    ---------------------

    Doubly Occupied:

       1A    -20.542524     2A    -15.555442     3A    -11.343377
       4A    -11.294438     5A    -11.256304     6A    -11.255512
       7A    -11.253379     8A    -11.252116     9A    -11.251231
      10A    -11.248862    11A    -11.246455    12A    -11.245036
      13A    -11.243579    14A    -11.232418    15A    -11.230812
      16A     -1.374815    17A     -1.215826    18A     -1.164960
      19A     -1.138008    20A     -1.059609    21A     -1.027651
      22A     -1.022971    23A     -1.001722    24A     -0.895864
      25A     -0.850862    26A     -0.839229    27A     -0.819406
      28A     -0.771972    29A     -0.719613    30A     -0.698505
      31A     -0.683750    32A     -0.667815    33A     -0.648545
      34A     -0.633287    35A     -0.617342    36A     -0.610787
      37A     -0.605667    38A     -0.597934    39A     -0.587680
      40A     -0.554450    41A     -0.537247    42A     -0.526907
      43A     -0.521074    44A     -0.509466    45A     -0.502996
      46A     -0.490287    47A     -0.448109    48A     -0.424206
      49A     -0.353327    50A     -0.346909    51A     -0.345248
      52A     -0.307548

  @DF-RHF Final Energy:  -628.22301010729927

   => Energetics <=

    Nuclear Repulsion Energy =            893.2313199657364748
    One-Electron Energy =               -2625.7624993918975633
    Two-Electron Energy =                1104.3081693188619283
    Total Energy =                       -628.2230101072991602
  Basis Set: (AUG-CC-PVTZ AUX)
    Blend: AUG-CC-PVTZ-RI
    Molecular point group: c1

    Geometry (in Angstrom), charge = 0, multiplicity = 1:

       Center              X                  Y                   Z               Mass
    ------------   -----------------  -----------------  -----------------  -----------------
         O           -0.041907020130     2.169951314411    -0.304452875734    15.994914619570
         N            2.480438979870     1.917216314411     0.752993124266    14.003074004430
         C            1.115926979870     0.088346314411    -0.138499875734    12.000000000000
         C           -1.441836020130     0.291034314411    -0.035860875734    12.000000000000
         C           -0.100768020130     0.935779314411    -0.169862875734    12.000000000000
         C            2.389456179870     0.584396814411     0.245722724266    12.000000000000
         C            1.053954979870    -1.235965685589    -0.612644875734    12.000000000000
         C            3.487966979870    -0.224051685589     0.260796124266    12.000000000000
         C           -1.656059020130    -0.808042685589     0.809514124266    12.000000000000
         C           -2.525050020130     0.874797314411    -0.708016875734    12.000000000000
         C            2.181033979870    -2.047738685589    -0.643645875734    12.000000000000
         C            3.403149979870    -1.531778685589    -0.200331875734    12.000000000000
         C           -2.944234020130    -1.320963685589     0.967831124266    12.000000000000
         C           -3.804609020130     0.343446314411    -0.563486875734    12.000000000000
         C           -4.017160020130    -0.755077685589     0.275228124266    12.000000000000
         H            0.102288979870    -1.621052685589    -0.968366875734     1.007825032230
         H            4.446199979870     0.173573314411     0.591978124266     1.007825032230
         H           -0.823181020130    -1.240166685589     1.358134124266     1.007825032230
         H           -2.345091020130     1.743841314411    -1.335560875734     1.007825032230
         H            2.115050979870    -3.063192685589    -1.024357875734     1.007825032230
         H            4.294674979870    -2.155122685589    -0.204556875734     1.007825032230
         H           -3.111084020130    -2.163684685589     1.634513124266     1.007825032230
         H           -4.639980020130     0.788793314411    -1.098537875734     1.007825032230
         H           -5.017731020130    -1.164236685589     0.393674124266     1.007825032230
         H            1.788235979870     2.559864314411     0.382177124266     1.007825032230
         H            3.424042979870     2.286263314411     0.751714124266     1.007825032230

  Basis Set: AUG-CC-PVTZ
    Blend: AUG-CC-PVTZ
  Basis Set: (AUG-CC-PVTZ AUX)
    Blend: AUG-CC-PVTZ-JKFIT
	 Reference Energy          =    -628.2230101072992738 [Eh]
	 Singles Energy            =      -0.0000000000000000 [Eh]
	 Same-Spin Energy          =      -0.6914554405884256 [Eh]
	 Opposite-Spin Energy      =      -2.1097547005070449 [Eh]
	 Correlation Energy        =      -2.8012101410954706 [Eh]
	 Total Energy              =    -631.0242202483947267 [Eh]

	 ================> DF-SCS-MP2 Energies <==================
	-----------------------------------------------------------
	 SCS Same-Spin Scale       =       0.3333333333333333 [-]
	 SCS Opposite-Spin Scale   =       1.2000000000000000 [-]
	 SCS Same-Spin Energy      =      -0.2304851468628085 [Eh]
	 SCS Opposite-Spin Energy  =      -2.5317056406084539 [Eh]
	 SCS Correlation Energy    =      -2.7621907874712623 [Eh]
	 SCS Total Energy          =    -630.9852008947705144 [Eh]
	-----------------------------------------------------------

  Dipole Moment: [D]
     X:     0.2489      Y:    -1.9083      Z:    -0.2130     Total:     1.9362

*** Psi4 exiting successfully. Buy a developer a beer!
