                               Psi4 1.3.2 release

  ==> Input File <==

--------------------------------------------------------------------------
#psi4
#
memory 32 gb

molecule  {
0 1
  O       -0.0417540     2.1858230    -0.3073980
  N        2.4805920     1.9330880     0.7500480
  C        1.1160800     0.1042180    -0.1414450
  C       -1.4179201     0.3065404    -0.0329050
  C       -0.1006150     0.9516510    -0.1728080
  C        2.3683100     0.6434780     0.2543940
  C        1.0541080    -1.2200940    -0.6155900
  C        3.4881200    -0.2081800     0.2578510
  C       -1.6559060    -0.7921710     0.8065690
  C       -2.5248970     0.8906690    -0.7109620
  C        2.1811870    -2.0318670    -0.6465910
  C        3.4033030    -1.5159070    -0.2032770
  C       -2.9440810    -1.3050920     0.9648860
  C       -3.8044560     0.3593180    -0.5664320
  C       -4.0170070    -0.7392060     0.2722830
  H        0.1024420    -1.6051810    -0.9713120
  H        4.4463530     0.1894450     0.5890330
  H       -0.8230280    -1.2242950     1.3551890
  H       -2.3449380     1.7597130    -1.3385060
  H        2.1152040    -3.0473210    -1.0273030
  H        4.2948280    -2.1392510    -0.2075020
  H       -3.1109310    -2.1478130     1.6315680
  H       -4.6398270     0.8046650    -1.1014830
  H       -5.0175780    -1.1483650     0.3907290
  H        1.7883890     2.5757360     0.3792320
  H        3.4241960     2.3021350     0.7487690
units angstrom
no_reorient  #important for SAPT in psi4, default
symmetry c1  #important for SAPT in psi4, default
}

set PROPERTIES_ORIGIN ["COM"]
properties('MP2/aug-cc-pvtz', properties = ['dipole'])
--------------------------------------------------------------------------

    Molecular point group: c1
  Charge       = 0
  Multiplicity = 1
  Basis Set: AUG-CC-PVTZ
    Blend: AUG-CC-PVTZ
  Basis Set: (AUG-CC-PVTZ AUX)
    Blend: AUG-CC-PVTZ-JKFIT

    Orbital Energies [Eh]
    ---------------------

    Doubly Occupied:

       1A    -20.540936     2A    -15.561665     3A    -11.340347
       4A    -11.298663     5A    -11.254246     6A    -11.253932
       7A    -11.253832     8A    -11.252855     9A    -11.251631
      10A    -11.250420    11A    -11.246210    12A    -11.244706
      13A    -11.240644    14A    -11.233325    15A    -11.229616
      16A     -1.374406    17A     -1.228294    18A     -1.163195
      19A     -1.138317    20A     -1.059265    21A     -1.024973
      22A     -1.021508    23A     -0.997504    24A     -0.895767
      25A     -0.849902    26A     -0.837967    27A     -0.820229
      28A     -0.770488    29A     -0.718168    30A     -0.702277
      31A     -0.688465    32A     -0.671823    33A     -0.648409
      34A     -0.634248    35A     -0.616415    36A     -0.610921
      37A     -0.604484    38A     -0.596101    39A     -0.587482
      40A     -0.554815    41A     -0.535744    42A     -0.527401
      43A     -0.520137    44A     -0.509607    45A     -0.500266
      46A     -0.489993    47A     -0.453805    48A     -0.423285
      49A     -0.352205    50A     -0.346976    51A     -0.343010
      52A     -0.301809

  @DF-RHF Final Energy:  -628.22481448455778

   => Energetics <=

    Nuclear Repulsion Energy =            893.2924249612739231
    One-Electron Energy =               -2625.8891007606052881
    Two-Electron Energy =                1104.3718613147736960
    Total Energy =                       -628.2248144845577826
  Basis Set: (AUG-CC-PVTZ AUX)
    Blend: AUG-CC-PVTZ-RI
    Molecular point group: c1

    Geometry (in Angstrom), charge = 0, multiplicity = 1:

       Center              X                  Y                   Z               Mass
    ------------   -----------------  -----------------  -----------------  -----------------
         O           -0.042057029215     2.167342646873    -0.305519470342    15.994914619570
         N            2.480288970785     1.914607646873     0.751926529658    14.003074004430
         C            1.115776970785     0.085737646873    -0.139566470342    12.000000000000
         C           -1.418223129215     0.288060046873    -0.031026470342    12.000000000000
         C           -0.100918029215     0.933170646873    -0.170929470342    12.000000000000
         C            2.368006970785     0.624997646873     0.256272529658    12.000000000000
         C            1.053804970785    -1.238574353127    -0.613711470342    12.000000000000
         C            3.487816970785    -0.226660353127     0.259729529658    12.000000000000
         C           -1.656209029215    -0.810651353127     0.808447529658    12.000000000000
         C           -2.525200029215     0.872188646873    -0.709083470342    12.000000000000
         C            2.180883970785    -2.050347353127    -0.644712470342    12.000000000000
         C            3.402999970785    -1.534387353127    -0.201398470342    12.000000000000
         C           -2.944384029215    -1.323572353127     0.966764529658    12.000000000000
         C           -3.804759029215     0.340837646873    -0.564553470342    12.000000000000
         C           -4.017310029215    -0.757686353127     0.274161529658    12.000000000000
         H            0.102138970785    -1.623661353127    -0.969433470342     1.007825032230
         H            4.446049970785     0.170964646873     0.590911529658     1.007825032230
         H           -0.823331029215    -1.242775353127     1.357067529658     1.007825032230
         H           -2.345241029215     1.741232646873    -1.336627470342     1.007825032230
         H            2.114900970785    -3.065801353127    -1.025424470342     1.007825032230
         H            4.294524970785    -2.157731353127    -0.205623470342     1.007825032230
         H           -3.111234029215    -2.166293353127     1.633446529658     1.007825032230
         H           -4.640130029215     0.786184646873    -1.099604470342     1.007825032230
         H           -5.017881029215    -1.166845353127     0.392607529658     1.007825032230
         H            1.788085970785     2.557255646873     0.381110529658     1.007825032230
         H            3.423892970785     2.283654646873     0.750647529658     1.007825032230

  Basis Set: AUG-CC-PVTZ
    Blend: AUG-CC-PVTZ
  Basis Set: (AUG-CC-PVTZ AUX)
    Blend: AUG-CC-PVTZ-JKFIT
	 Reference Energy          =    -628.2248144845577826 [Eh]
	 Singles Energy            =      -0.0000000000000000 [Eh]
	 Same-Spin Energy          =      -0.6917646632213106 [Eh]
	 Opposite-Spin Energy      =      -2.1099816150867410 [Eh]
	 Correlation Energy        =      -2.8017462783080518 [Eh]
	 Total Energy              =    -631.0265607628658699 [Eh]

	 ================> DF-SCS-MP2 Energies <==================
	-----------------------------------------------------------
	 SCS Same-Spin Scale       =       0.3333333333333333 [-]
	 SCS Opposite-Spin Scale   =       1.2000000000000000 [-]
	 SCS Same-Spin Energy      =      -0.2305882210737702 [Eh]
	 SCS Opposite-Spin Energy  =      -2.5319779381040890 [Eh]
	 SCS Correlation Energy    =      -2.7625661591778590 [Eh]
	 SCS Total Energy          =    -630.9873806437356052 [Eh]
	-----------------------------------------------------------

  Dipole Moment: [D]
     X:     0.2910      Y:    -1.6555      Z:    -0.0952     Total:     1.6836

*** Psi4 exiting successfully. Buy a developer a beer!
