                               Psi4 1.3.2 release

  ==> Input File <==

--------------------------------------------------------------------------
#psi4
#
memory 32 gb

molecule  {
0 1
  O       -0.0417540     2.1858230    -0.3073980
  N        2.4805920     1.9330880     0.7500480
  C        1.1160800     0.1042180    -0.1414450
  C       -1.4416830     0.3069060    -0.0388060
  C       -0.1434662     1.0182467    -0.2406565
  C        2.3683100     0.6434780     0.2543940
  C        1.0541080    -1.2200940    -0.6155900
  C        3.4881200    -0.2081800     0.2578510
  C       -1.6559060    -0.7921710     0.8065690
  C       -2.5248970     0.8906690    -0.7109620
  C        2.1811870    -2.0318670    -0.6465910
  C        3.4033030    -1.5159070    -0.2032770
  C       -2.9440810    -1.3050920     0.9648860
  C       -3.8044560     0.3593180    -0.5664320
  C       -4.0170070    -0.7392060     0.2722830
  H        0.1024420    -1.6051810    -0.9713120
  H        4.4463530     0.1894450     0.5890330
  H       -0.8230280    -1.2242950     1.3551890
  H       -2.3449380     1.7597130    -1.3385060
  H        2.1152040    -3.0473210    -1.0273030
  H        4.2948280    -2.1392510    -0.2075020
  H       -3.1109310    -2.1478130     1.6315680
  H       -4.6398270     0.8046650    -1.1014830
  H       -5.0175780    -1.1483650     0.3907290
  H        1.7883890     2.5757360     0.3792320
  H        3.4241960     2.3021350     0.7487690
units angstrom
no_reorient  #important for SAPT in psi4, default
symmetry c1  #important for SAPT in psi4, default
}

set PROPERTIES_ORIGIN ["COM"]
properties('MP2/aug-cc-pvtz', properties = ['dipole'])
--------------------------------------------------------------------------

    Molecular point group: c1
  Charge       = 0
  Multiplicity = 1
  Basis Set: AUG-CC-PVTZ
    Blend: AUG-CC-PVTZ
  Basis Set: (AUG-CC-PVTZ AUX)
    Blend: AUG-CC-PVTZ-JKFIT

    Orbital Energies [Eh]
    ---------------------

    Doubly Occupied:

       1A    -20.552744     2A    -15.559812     3A    -11.341211
       4A    -11.292775     5A    -11.254332     6A    -11.251956
       7A    -11.249758     8A    -11.248584     9A    -11.248101
      10A    -11.248003    11A    -11.247126    12A    -11.244841
      13A    -11.238781    14A    -11.229807    15A    -11.225974
      16A     -1.426162    17A     -1.225670    18A     -1.165212
      19A     -1.133044    20A     -1.052165    21A     -1.027558
      22A     -1.016669    23A     -0.992019    24A     -0.886890
      25A     -0.846500    26A     -0.837731    27A     -0.815783
      28A     -0.769771    29A     -0.717355    30A     -0.702372
      31A     -0.686214    32A     -0.671573    33A     -0.660281
      34A     -0.636062    35A     -0.618119    36A     -0.613278
      37A     -0.601871    38A     -0.598298    39A     -0.588508
      40A     -0.565384    41A     -0.539115    42A     -0.529718
      43A     -0.520440    44A     -0.509597    45A     -0.504039
      46A     -0.498907    47A     -0.451056    48A     -0.412260
      49A     -0.349579    50A     -0.347934    51A     -0.343720
      52A     -0.298131

  @DF-RHF Final Energy:  -628.22162055525439

   => Energetics <=

    Nuclear Repulsion Energy =            893.0359514356033515
    One-Electron Energy =               -2625.3295616162586157
    Two-Electron Energy =                1104.0719896254011019
    Total Energy =                       -628.2216205552542760
  Basis Set: (AUG-CC-PVTZ AUX)
    Blend: AUG-CC-PVTZ-RI
    Molecular point group: c1

    Geometry (in Angstrom), charge = 0, multiplicity = 1:

       Center              X                  Y                   Z               Mass
    ------------   -----------------  -----------------  -----------------  -----------------
         O           -0.038001048310     2.163265525751    -0.301029031175    15.994914619570
         N            2.484344951690     1.910530525751     0.756416968825    14.003074004430
         C            1.119832951690     0.081660525751    -0.135076031175    12.000000000000
         C           -1.437930048310     0.284348525751    -0.032437031175    12.000000000000
         C           -0.139713248310     0.995689225751    -0.234287531175    12.000000000000
         C            2.372062951690     0.620920525751     0.260762968825    12.000000000000
         C            1.057860951690    -1.242651474249    -0.609221031175    12.000000000000
         C            3.491872951690    -0.230737474249     0.264219968825    12.000000000000
         C           -1.652153048310    -0.814728474249     0.812937968825    12.000000000000
         C           -2.521144048310     0.868111525751    -0.704593031175    12.000000000000
         C            2.184939951690    -2.054424474249    -0.640222031175    12.000000000000
         C            3.407055951690    -1.538464474249    -0.196908031175    12.000000000000
         C           -2.940328048310    -1.327649474249     0.971254968825    12.000000000000
         C           -3.800703048310     0.336760525751    -0.560063031175    12.000000000000
         C           -4.013254048310    -0.761763474249     0.278651968825    12.000000000000
         H            0.106194951690    -1.627738474249    -0.964943031175     1.007825032230
         H            4.450105951690     0.166887525751     0.595401968825     1.007825032230
         H           -0.819275048310    -1.246852474249     1.361557968825     1.007825032230
         H           -2.341185048310     1.737155525751    -1.332137031175     1.007825032230
         H            2.118956951690    -3.069878474249    -1.020934031175     1.007825032230
         H            4.298580951690    -2.161808474249    -0.201133031175     1.007825032230
         H           -3.107178048310    -2.170370474249     1.637936968825     1.007825032230
         H           -4.636074048310     0.782107525751    -1.095114031175     1.007825032230
         H           -5.013825048310    -1.170922474249     0.397097968825     1.007825032230
         H            1.792141951690     2.553178525751     0.385600968825     1.007825032230
         H            3.427948951690     2.279577525751     0.755137968825     1.007825032230

  Basis Set: AUG-CC-PVTZ
    Blend: AUG-CC-PVTZ
  Basis Set: (AUG-CC-PVTZ AUX)
    Blend: AUG-CC-PVTZ-JKFIT
	 Reference Energy          =    -628.2216205552543897 [Eh]
	 Singles Energy            =      -0.0000000000000000 [Eh]
	 Same-Spin Energy          =      -0.6897886048177749 [Eh]
	 Opposite-Spin Energy      =      -2.1061802247413950 [Eh]
	 Correlation Energy        =      -2.7959688295591700 [Eh]
	 Total Energy              =    -631.0175893848135047 [Eh]

	 ================> DF-SCS-MP2 Energies <==================
	-----------------------------------------------------------
	 SCS Same-Spin Scale       =       0.3333333333333333 [-]
	 SCS Opposite-Spin Scale   =       1.2000000000000000 [-]
	 SCS Same-Spin Energy      =      -0.2299295349392583 [Eh]
	 SCS Opposite-Spin Energy  =      -2.5274162696896738 [Eh]
	 SCS Correlation Energy    =      -2.7573458046289323 [Eh]
	 SCS Total Energy          =    -630.9789663598833158 [Eh]
	-----------------------------------------------------------

  Dipole Moment: [D]
     X:    -0.0790      Y:    -1.2499      Z:    -0.1785     Total:     1.2651

*** Psi4 exiting successfully. Buy a developer a beer!
