                               Psi4 1.3.2 release

  ==> Input File <==

--------------------------------------------------------------------------
#psi4
#
memory 32 gb

molecule  {
0 1
  O        0.0446035     2.1782858    -0.3107875
  N        2.4805920     1.9330880     0.7500480
  C        1.1160800     0.1042180    -0.1414450
  C       -1.4416830     0.3069060    -0.0388060
  C       -0.1006150     0.9516510    -0.1728080
  C        2.3683100     0.6434780     0.2543940
  C        1.0541080    -1.2200940    -0.6155900
  C        3.4881200    -0.2081800     0.2578510
  C       -1.6559060    -0.7921710     0.8065690
  C       -2.5248970     0.8906690    -0.7109620
  C        2.1811870    -2.0318670    -0.6465910
  C        3.4033030    -1.5159070    -0.2032770
  C       -2.9440810    -1.3050920     0.9648860
  C       -3.8044560     0.3593180    -0.5664320
  C       -4.0170070    -0.7392060     0.2722830
  H        0.1024420    -1.6051810    -0.9713120
  H        4.4463530     0.1894450     0.5890330
  H       -0.8230280    -1.2242950     1.3551890
  H       -2.3449380     1.7597130    -1.3385060
  H        2.1152040    -3.0473210    -1.0273030
  H        4.2948280    -2.1392510    -0.2075020
  H       -3.1109310    -2.1478130     1.6315680
  H       -4.6398270     0.8046650    -1.1014830
  H       -5.0175780    -1.1483650     0.3907290
  H        1.7883890     2.5757360     0.3792320
  H        3.4241960     2.3021350     0.7487690
units angstrom
no_reorient  #important for SAPT in psi4, default
symmetry c1  #important for SAPT in psi4, default
}

set PROPERTIES_ORIGIN ["COM"]
properties('MP2/aug-cc-pvtz', properties = ['dipole'])
--------------------------------------------------------------------------

    Molecular point group: c1
  Charge       = 0
  Multiplicity = 1
  Basis Set: AUG-CC-PVTZ
    Blend: AUG-CC-PVTZ
  Basis Set: (AUG-CC-PVTZ AUX)
    Blend: AUG-CC-PVTZ-JKFIT

    Orbital Energies [Eh]
    ---------------------

    Doubly Occupied:

       1A    -20.541552     2A    -15.557930     3A    -11.342252
       4A    -11.296308     5A    -11.255629     6A    -11.254109
       7A    -11.253669     8A    -11.252167     9A    -11.251575
      10A    -11.251235    11A    -11.248091    12A    -11.246707
      13A    -11.237946    14A    -11.231542    15A    -11.227793
      16A     -1.375489    17A     -1.225008    18A     -1.167102
      19A     -1.136362    20A     -1.057903    21A     -1.028797
      22A     -1.021340    23A     -0.995517    24A     -0.893386
      25A     -0.848970    26A     -0.840309    27A     -0.819145
      28A     -0.771851    29A     -0.718428    30A     -0.701831
      31A     -0.686122    32A     -0.669703    33A     -0.651164
      34A     -0.635342    35A     -0.616987    36A     -0.610668
      37A     -0.602957    38A     -0.599156    39A     -0.583952
      40A     -0.554577    41A     -0.535432    42A     -0.527731
      43A     -0.520098    44A     -0.508305    45A     -0.504910
      46A     -0.491319    47A     -0.451477    48A     -0.421173
      49A     -0.351534    50A     -0.348944    51A     -0.345570
      52A     -0.299446

  @DF-RHF Final Energy:  -628.22441259338041

   => Energetics <=

    Nuclear Repulsion Energy =            893.5819016732176578
    One-Electron Energy =               -2626.4796104874590128
    Two-Electron Energy =                1104.6732962208611752
    Total Energy =                       -628.2244125933802934
  Basis Set: (AUG-CC-PVTZ AUX)
    Blend: AUG-CC-PVTZ-RI
    Molecular point group: c1

    Geometry (in Angstrom), charge = 0, multiplicity = 1:

       Center              X                  Y                   Z               Mass
    ------------   -----------------  -----------------  -----------------  -----------------
         O            0.038738752516     2.160394889104    -0.308274587426    15.994914619570
         N            2.474727252516     1.915197089104     0.752560912574    14.003074004430
         C            1.110215252516     0.086327089104    -0.138932087426    12.000000000000
         C           -1.447547747484     0.289015089104    -0.036293087426    12.000000000000
         C           -0.106479747484     0.933760089104    -0.170295087426    12.000000000000
         C            2.362445252516     0.625587089104     0.256906912574    12.000000000000
         C            1.048243252516    -1.237984910896    -0.613077087426    12.000000000000
         C            3.482255252516    -0.226070910896     0.260363912574    12.000000000000
         C           -1.661770747484    -0.810061910896     0.809081912574    12.000000000000
         C           -2.530761747484     0.872778089104    -0.708449087426    12.000000000000
         C            2.175322252516    -2.049757910896    -0.644078087426    12.000000000000
         C            3.397438252516    -1.533797910896    -0.200764087426    12.000000000000
         C           -2.949945747484    -1.322982910896     0.967398912574    12.000000000000
         C           -3.810320747484     0.341427089104    -0.563919087426    12.000000000000
         C           -4.022871747484    -0.757096910896     0.274795912574    12.000000000000
         H            0.096577252516    -1.623071910896    -0.968799087426     1.007825032230
         H            4.440488252516     0.171554089104     0.591545912574     1.007825032230
         H           -0.828892747484    -1.242185910896     1.357701912574     1.007825032230
         H           -2.350802747484     1.741822089104    -1.335993087426     1.007825032230
         H            2.109339252516    -3.065211910896    -1.024790087426     1.007825032230
         H            4.288963252516    -2.157141910896    -0.204989087426     1.007825032230
         H           -3.116795747484    -2.165703910896     1.634080912574     1.007825032230
         H           -4.645691747484     0.786774089104    -1.098970087426     1.007825032230
         H           -5.023442747484    -1.166255910896     0.393241912574     1.007825032230
         H            1.782524252516     2.557845089104     0.381744912574     1.007825032230
         H            3.418331252516     2.284244089104     0.751281912574     1.007825032230

  Basis Set: AUG-CC-PVTZ
    Blend: AUG-CC-PVTZ
  Basis Set: (AUG-CC-PVTZ AUX)
    Blend: AUG-CC-PVTZ-JKFIT
	 Reference Energy          =    -628.2244125933804071 [Eh]
	 Singles Energy            =      -0.0000000000000000 [Eh]
	 Same-Spin Energy          =      -0.6918062652445459 [Eh]
	 Opposite-Spin Energy      =      -2.1098402363232771 [Eh]
	 Correlation Energy        =      -2.8016465015678231 [Eh]
	 Total Energy              =    -631.0260590949482093 [Eh]

	 ================> DF-SCS-MP2 Energies <==================
	-----------------------------------------------------------
	 SCS Same-Spin Scale       =       0.3333333333333333 [-]
	 SCS Opposite-Spin Scale   =       1.2000000000000000 [-]
	 SCS Same-Spin Energy      =      -0.2306020884148486 [Eh]
	 SCS Opposite-Spin Energy  =      -2.5318082835879325 [Eh]
	 SCS Correlation Energy    =      -2.7624103720027811 [Eh]
	 SCS Total Energy          =    -630.9868229653832259 [Eh]
	-----------------------------------------------------------

  Dipole Moment: [D]
     X:    -0.0254      Y:    -1.6197      Z:    -0.0866     Total:     1.6222

*** Psi4 exiting successfully. Buy a developer a beer!
