                               Psi4 1.3.2 release

  ==> Input File <==

--------------------------------------------------------------------------
#psi4
#
memory 32 gb

molecule  {
0 1
  O       -0.0417540     2.1858230    -0.3073980
  N        2.4805920     1.9330880     0.7500480
  C        1.1160800     0.1042180    -0.1414450
  C       -1.4416830     0.3069060    -0.0388060
  C       -0.1006150     0.9516510    -0.1728080
  C        2.3845107     0.8295506     0.3259099
  C        1.0541080    -1.2200940    -0.6155900
  C        3.4881200    -0.2081800     0.2578510
  C       -1.6559060    -0.7921710     0.8065690
  C       -2.5248970     0.8906690    -0.7109620
  C        2.1811870    -2.0318670    -0.6465910
  C        3.4033030    -1.5159070    -0.2032770
  C       -2.9440810    -1.3050920     0.9648860
  C       -3.8044560     0.3593180    -0.5664320
  C       -4.0170070    -0.7392060     0.2722830
  H        0.1024420    -1.6051810    -0.9713120
  H        4.4463530     0.1894450     0.5890330
  H       -0.8230280    -1.2242950     1.3551890
  H       -2.3449380     1.7597130    -1.3385060
  H        2.1152040    -3.0473210    -1.0273030
  H        4.2948280    -2.1392510    -0.2075020
  H       -3.1109310    -2.1478130     1.6315680
  H       -4.6398270     0.8046650    -1.1014830
  H       -5.0175780    -1.1483650     0.3907290
  H        1.7883890     2.5757360     0.3792320
  H        3.4241960     2.3021350     0.7487690
units angstrom
no_reorient  #important for SAPT in psi4, default
symmetry c1  #important for SAPT in psi4, default
}

set PROPERTIES_ORIGIN ["COM"]
properties('MP2/aug-cc-pvtz', properties = ['dipole'])
--------------------------------------------------------------------------

    Molecular point group: c1
  Charge       = 0
  Multiplicity = 1
  Basis Set: AUG-CC-PVTZ
    Blend: AUG-CC-PVTZ
  Basis Set: (AUG-CC-PVTZ AUX)
    Blend: AUG-CC-PVTZ-JKFIT

    Orbital Energies [Eh]
    ---------------------

    Doubly Occupied:

       1A    -20.533858     2A    -15.597311     3A    -11.332258
       4A    -11.317615     5A    -11.250538     6A    -11.249883
       7A    -11.247743     8A    -11.247506     9A    -11.244700
      10A    -11.243449    11A    -11.241930    12A    -11.240678
      13A    -11.237611    14A    -11.233197    15A    -11.213683
      16A     -1.371315    17A     -1.331996    18A     -1.159710
      19A     -1.126303    20A     -1.048356    21A     -1.021702
      22A     -1.010631    23A     -0.978724    24A     -0.884057
      25A     -0.845392    26A     -0.839884    27A     -0.828000
      28A     -0.773861    29A     -0.741649    30A     -0.720370
      31A     -0.706424    32A     -0.674247    33A     -0.642737
      34A     -0.635059    35A     -0.611528    36A     -0.610285
      37A     -0.594474    38A     -0.592488    39A     -0.586477
      40A     -0.569644    41A     -0.533840    42A     -0.530009
      43A     -0.516011    44A     -0.498392    45A     -0.495782
      46A     -0.480945    47A     -0.463934    48A     -0.407465
      49A     -0.346610    50A     -0.342404    51A     -0.340252
      52A     -0.275986

  @DF-RHF Final Energy:  -628.16247637284857

   => Energetics <=

    Nuclear Repulsion Energy =            892.4954694088662563
    One-Electron Energy =               -2624.1780898902561603
    Two-Electron Energy =                1103.5201441085414444
    Total Energy =                       -628.1624763728484595
  Basis Set: (AUG-CC-PVTZ AUX)
    Blend: AUG-CC-PVTZ-RI
    Molecular point group: c1

    Geometry (in Angstrom), charge = 0, multiplicity = 1:

       Center              X                  Y                   Z               Mass
    ------------   -----------------  -----------------  -----------------  -----------------
         O           -0.041596584072     2.155990849296    -0.309514612233    15.994914619570
         N            2.480749415928     1.903255849296     0.747931387767    14.003074004430
         C            1.116237415928     0.074385849296    -0.143561612233    12.000000000000
         C           -1.441525584072     0.277073849296    -0.040922612233    12.000000000000
         C           -0.100457584072     0.921818849296    -0.174924612233    12.000000000000
         C            2.384668115928     0.799718449296     0.323793287767    12.000000000000
         C            1.054265415928    -1.249926150704    -0.617706612233    12.000000000000
         C            3.488277415928    -0.238012150704     0.255734387767    12.000000000000
         C           -1.655748584072    -0.822003150704     0.804452387767    12.000000000000
         C           -2.524739584072     0.860836849296    -0.713078612233    12.000000000000
         C            2.181344415928    -2.061699150704    -0.648707612233    12.000000000000
         C            3.403460415928    -1.545739150704    -0.205393612233    12.000000000000
         C           -2.943923584072    -1.334924150704     0.962769387767    12.000000000000
         C           -3.804298584072     0.329485849296    -0.568548612233    12.000000000000
         C           -4.016849584072    -0.769038150704     0.270166387767    12.000000000000
         H            0.102599415928    -1.635013150704    -0.973428612233     1.007825032230
         H            4.446510415928     0.159612849296     0.586916387767     1.007825032230
         H           -0.822870584072    -1.254127150704     1.353072387767     1.007825032230
         H           -2.344780584072     1.729880849296    -1.340622612233     1.007825032230
         H            2.115361415928    -3.077153150704    -1.029419612233     1.007825032230
         H            4.294985415928    -2.169083150704    -0.209618612233     1.007825032230
         H           -3.110773584072    -2.177645150704     1.629451387767     1.007825032230
         H           -4.639669584072     0.774832849296    -1.103599612233     1.007825032230
         H           -5.017420584072    -1.178197150704     0.388612387767     1.007825032230
         H            1.788546415928     2.545903849296     0.377115387767     1.007825032230
         H            3.424353415928     2.272302849296     0.746652387767     1.007825032230

  Basis Set: AUG-CC-PVTZ
    Blend: AUG-CC-PVTZ
  Basis Set: (AUG-CC-PVTZ AUX)
    Blend: AUG-CC-PVTZ-JKFIT
	 Reference Energy          =    -628.1624763728485732 [Eh]
	 Singles Energy            =      -0.0000000000000000 [Eh]
	 Same-Spin Energy          =      -0.6926272552417897 [Eh]
	 Opposite-Spin Energy      =      -2.1102708112744568 [Eh]
	 Correlation Energy        =      -2.8028980665162466 [Eh]
	 Total Energy              =    -630.9653744393648367 [Eh]

	 ================> DF-SCS-MP2 Energies <==================
	-----------------------------------------------------------
	 SCS Same-Spin Scale       =       0.3333333333333333 [-]
	 SCS Opposite-Spin Scale   =       1.2000000000000000 [-]
	 SCS Same-Spin Energy      =      -0.2308757517472632 [Eh]
	 SCS Opposite-Spin Energy  =      -2.5323249735293483 [Eh]
	 SCS Correlation Energy    =      -2.7632007252766115 [Eh]
	 SCS Total Energy          =    -630.9256770981252203 [Eh]
	-----------------------------------------------------------

  Dipole Moment: [D]
     X:     0.9179      Y:    -0.2612      Z:     0.4769     Total:     1.0668

*** Psi4 exiting successfully. Buy a developer a beer!
