                               Psi4 1.3.2 release

  ==> Input File <==

--------------------------------------------------------------------------
#psi4
#
memory 32 gb

molecule  {
0 1
  O       -0.0417540     2.1858230    -0.3073980
  N        2.4805920     1.9330880     0.7500480
  C        1.1160800     0.1042180    -0.1414450
  C       -1.4416830     0.3069060    -0.0388060
  C       -0.0958792     1.0509501    -0.1836369
  C        2.3683100     0.6434780     0.2543940
  C        1.0541080    -1.2200940    -0.6155900
  C        3.4881200    -0.2081800     0.2578510
  C       -1.6559060    -0.7921710     0.8065690
  C       -2.5248970     0.8906690    -0.7109620
  C        2.1811870    -2.0318670    -0.6465910
  C        3.4033030    -1.5159070    -0.2032770
  C       -2.9440810    -1.3050920     0.9648860
  C       -3.8044560     0.3593180    -0.5664320
  C       -4.0170070    -0.7392060     0.2722830
  H        0.1024420    -1.6051810    -0.9713120
  H        4.4463530     0.1894450     0.5890330
  H       -0.8230280    -1.2242950     1.3551890
  H       -2.3449380     1.7597130    -1.3385060
  H        2.1152040    -3.0473210    -1.0273030
  H        4.2948280    -2.1392510    -0.2075020
  H       -3.1109310    -2.1478130     1.6315680
  H       -4.6398270     0.8046650    -1.1014830
  H       -5.0175780    -1.1483650     0.3907290
  H        1.7883890     2.5757360     0.3792320
  H        3.4241960     2.3021350     0.7487690
units angstrom
no_reorient  #important for SAPT in psi4, default
symmetry c1  #important for SAPT in psi4, default
}

set PROPERTIES_ORIGIN ["COM"]
properties('MP2/aug-cc-pvtz', properties = ['dipole'])
--------------------------------------------------------------------------

    Molecular point group: c1
  Charge       = 0
  Multiplicity = 1
  Basis Set: AUG-CC-PVTZ
    Blend: AUG-CC-PVTZ
  Basis Set: (AUG-CC-PVTZ AUX)
    Blend: AUG-CC-PVTZ-JKFIT

    Orbital Energies [Eh]
    ---------------------

    Doubly Occupied:

       1A    -20.556389     2A    -15.562322     3A    -11.339635
       4A    -11.293469     5A    -11.250638     6A    -11.250076
       7A    -11.249521     8A    -11.248028     9A    -11.247146
      10A    -11.244466    11A    -11.244039    12A    -11.242287
      13A    -11.238847    14A    -11.230801    15A    -11.227658
      16A     -1.450762    17A     -1.228538    18A     -1.160418
      19A     -1.134640    20A     -1.047775    21A     -1.023670
      22A     -1.015775    23A     -0.994307    24A     -0.882084
      25A     -0.845652    26A     -0.835942    27A     -0.815462
      28A     -0.769006    29A     -0.718387    30A     -0.703909
      31A     -0.689404    32A     -0.676517    33A     -0.659405
      34A     -0.634204    35A     -0.617413    36A     -0.616452
      37A     -0.603407    38A     -0.596092    39A     -0.592600
      40A     -0.575278    41A     -0.540829    42A     -0.530629
      43A     -0.519757    44A     -0.509729    45A     -0.501300
      46A     -0.499940    47A     -0.453045    48A     -0.407958
      49A     -0.349242    50A     -0.344742    51A     -0.342470
      52A     -0.300059

  @DF-RHF Final Energy:  -628.21945502187702

   => Energetics <=

    Nuclear Repulsion Energy =            893.2731623779628762
    One-Electron Energy =               -2625.7609931127881282
    Two-Electron Energy =                1104.2683757129482274
    Total Energy =                       -628.2194550218771383
  Basis Set: (AUG-CC-PVTZ AUX)
    Blend: AUG-CC-PVTZ-RI
    Molecular point group: c1

    Geometry (in Angstrom), charge = 0, multiplicity = 1:

       Center              X                  Y                   Z               Mass
    ------------   -----------------  -----------------  -----------------  -----------------
         O           -0.040898512410     2.161274290173    -0.304500824816    15.994914619570
         N            2.481447487590     1.908539290173     0.752945175184    14.003074004430
         C            1.116935487590     0.079669290173    -0.138547824816    12.000000000000
         C           -1.440827512410     0.282357290173    -0.035908824816    12.000000000000
         C           -0.095023712410     1.026401390173    -0.180739724816    12.000000000000
         C            2.369165487590     0.618929290173     0.257291175184    12.000000000000
         C            1.054963487590    -1.244642709827    -0.612692824816    12.000000000000
         C            3.488975487590    -0.232728709827     0.260748175184    12.000000000000
         C           -1.655050512410    -0.816719709827     0.809466175184    12.000000000000
         C           -2.524041512410     0.866120290173    -0.708064824816    12.000000000000
         C            2.182042487590    -2.056415709827    -0.643693824816    12.000000000000
         C            3.404158487590    -1.540455709827    -0.200379824816    12.000000000000
         C           -2.943225512410    -1.329640709827     0.967783175184    12.000000000000
         C           -3.803600512410     0.334769290173    -0.563534824816    12.000000000000
         C           -4.016151512410    -0.763754709827     0.275180175184    12.000000000000
         H            0.103297487590    -1.629729709827    -0.968414824816     1.007825032230
         H            4.447208487590     0.164896290173     0.591930175184     1.007825032230
         H           -0.822172512410    -1.248843709827     1.358086175184     1.007825032230
         H           -2.344082512410     1.735164290173    -1.335608824816     1.007825032230
         H            2.116059487590    -3.071869709827    -1.024405824816     1.007825032230
         H            4.295683487590    -2.163799709827    -0.204604824816     1.007825032230
         H           -3.110075512410    -2.172361709827     1.634465175184     1.007825032230
         H           -4.638971512410     0.780116290173    -1.098585824816     1.007825032230
         H           -5.016722512410    -1.172913709827     0.393626175184     1.007825032230
         H            1.789244487590     2.551187290173     0.382129175184     1.007825032230
         H            3.425051487590     2.277586290173     0.751666175184     1.007825032230

  Basis Set: AUG-CC-PVTZ
    Blend: AUG-CC-PVTZ
  Basis Set: (AUG-CC-PVTZ AUX)
    Blend: AUG-CC-PVTZ-JKFIT
	 Reference Energy          =    -628.2194550218770246 [Eh]
	 Singles Energy            =      -0.0000000000000000 [Eh]
	 Same-Spin Energy          =      -0.6888277517227496 [Eh]
	 Opposite-Spin Energy      =      -2.1041560135142441 [Eh]
	 Correlation Energy        =      -2.7929837652369938 [Eh]
	 Total Energy              =    -631.0124387871139788 [Eh]

	 ================> DF-SCS-MP2 Energies <==================
	-----------------------------------------------------------
	 SCS Same-Spin Scale       =       0.3333333333333333 [-]
	 SCS Opposite-Spin Scale   =       1.2000000000000000 [-]
	 SCS Same-Spin Energy      =      -0.2296092505742499 [Eh]
	 SCS Opposite-Spin Energy  =      -2.5249872162170930 [Eh]
	 SCS Correlation Energy    =      -2.7545964667913427 [Eh]
	 SCS Total Energy          =    -630.9740514886683513 [Eh]
	-----------------------------------------------------------

  Dipole Moment: [D]
     X:     0.3116      Y:    -1.0999      Z:    -0.1743     Total:     1.1564

*** Psi4 exiting successfully. Buy a developer a beer!
