                               Psi4 1.3.2 release

  ==> Input File <==

--------------------------------------------------------------------------
#psi4
#
memory 32 gb

molecule  {
0 1
  O       -0.0417540     2.1858230    -0.3073980
  N        2.4805920     1.9330880     0.7500480
  C        1.1867553    -0.0250225    -0.1610640
  C       -1.4416830     0.3069060    -0.0388060
  C       -0.1006150     0.9516510    -0.1728080
  C        2.3683100     0.6434780     0.2543940
  C        1.0541080    -1.2200940    -0.6155900
  C        3.4881200    -0.2081800     0.2578510
  C       -1.6559060    -0.7921710     0.8065690
  C       -2.5248970     0.8906690    -0.7109620
  C        2.1811870    -2.0318670    -0.6465910
  C        3.4033030    -1.5159070    -0.2032770
  C       -2.9440810    -1.3050920     0.9648860
  C       -3.8044560     0.3593180    -0.5664320
  C       -4.0170070    -0.7392060     0.2722830
  H        0.1024420    -1.6051810    -0.9713120
  H        4.4463530     0.1894450     0.5890330
  H       -0.8230280    -1.2242950     1.3551890
  H       -2.3449380     1.7597130    -1.3385060
  H        2.1152040    -3.0473210    -1.0273030
  H        4.2948280    -2.1392510    -0.2075020
  H       -3.1109310    -2.1478130     1.6315680
  H       -4.6398270     0.8046650    -1.1014830
  H       -5.0175780    -1.1483650     0.3907290
  H        1.7883890     2.5757360     0.3792320
  H        3.4241960     2.3021350     0.7487690
units angstrom
no_reorient  #important for SAPT in psi4, default
symmetry c1  #important for SAPT in psi4, default
}

set PROPERTIES_ORIGIN ["COM"]
properties('MP2/aug-cc-pvtz', properties = ['dipole'])
--------------------------------------------------------------------------

    Molecular point group: c1
  Charge       = 0
  Multiplicity = 1
  Basis Set: AUG-CC-PVTZ
    Blend: AUG-CC-PVTZ
  Basis Set: (AUG-CC-PVTZ AUX)
    Blend: AUG-CC-PVTZ-JKFIT

    Orbital Energies [Eh]
    ---------------------

    Doubly Occupied:

       1A    -20.551097     2A    -15.563658     3A    -11.350271
       4A    -11.294464     5A    -11.254058     6A    -11.252782
       7A    -11.251171     8A    -11.249551     9A    -11.247098
      10A    -11.245945    11A    -11.245670    12A    -11.242863
      13A    -11.236069    14A    -11.228936    15A    -11.226137
      16A     -1.377835    17A     -1.228456    18A     -1.166362
      19A     -1.151365    20A     -1.054590    21A     -1.029552
      22A     -1.025107    23A     -0.994427    24A     -0.885282
      25A     -0.842176    26A     -0.840370    27A     -0.825432
      28A     -0.770529    29A     -0.717931    30A     -0.702020
      31A     -0.691497    32A     -0.664521    33A     -0.649073
      34A     -0.634249    35A     -0.618041    36A     -0.613499
      37A     -0.603689    38A     -0.598571    39A     -0.590657
      40A     -0.555670    41A     -0.533306    42A     -0.530236
      43A     -0.520495    44A     -0.510205    45A     -0.502900
      46A     -0.494826    47A     -0.459595    48A     -0.407950
      49A     -0.361314    50A     -0.348172    51A     -0.346344
      52A     -0.296505

  @DF-RHF Final Energy:  -628.19997592997493

   => Energetics <=

    Nuclear Repulsion Energy =            893.1725380773866618
    One-Electron Energy =               -2625.5799859026778904
    Two-Electron Energy =                1104.2074718953163028
    Total Energy =                       -628.1999759299749257
  Basis Set: (AUG-CC-PVTZ AUX)
    Blend: AUG-CC-PVTZ-RI
    Molecular point group: c1

    Geometry (in Angstrom), charge = 0, multiplicity = 1:

       Center              X                  Y                   Z               Mass
    ------------   -----------------  -----------------  -----------------  -----------------
         O           -0.044913418456     2.175189546154    -0.303965615637    15.994914619570
         N            2.477432581544     1.922454546154     0.753480384363    14.003074004430
         C            1.183595881544    -0.035655953846    -0.157631615637    12.000000000000
         C           -1.444842418456     0.296272546154    -0.035373615637    12.000000000000
         C           -0.103774418456     0.941017546154    -0.169375615637    12.000000000000
         C            2.365150581544     0.632844546154     0.257826384363    12.000000000000
         C            1.050948581544    -1.230727453846    -0.612157615637    12.000000000000
         C            3.484960581544    -0.218813453846     0.261283384363    12.000000000000
         C           -1.659065418456    -0.802804453846     0.810001384363    12.000000000000
         C           -2.528056418456     0.880035546154    -0.707529615637    12.000000000000
         C            2.178027581544    -2.042500453846    -0.643158615637    12.000000000000
         C            3.400143581544    -1.526540453846    -0.199844615637    12.000000000000
         C           -2.947240418456    -1.315725453846     0.968318384363    12.000000000000
         C           -3.807615418456     0.348684546154    -0.562999615637    12.000000000000
         C           -4.020166418456    -0.749839453846     0.275715384363    12.000000000000
         H            0.099282581544    -1.615814453846    -0.967879615637     1.007825032230
         H            4.443193581544     0.178811546154     0.592465384363     1.007825032230
         H           -0.826187418456    -1.234928453846     1.358621384363     1.007825032230
         H           -2.348097418456     1.749079546154    -1.335073615637     1.007825032230
         H            2.112044581544    -3.057954453846    -1.023870615637     1.007825032230
         H            4.291668581544    -2.149884453846    -0.204069615637     1.007825032230
         H           -3.114090418456    -2.158446453846     1.635000384363     1.007825032230
         H           -4.642986418456     0.794031546154    -1.098050615637     1.007825032230
         H           -5.020737418456    -1.158998453846     0.394161384363     1.007825032230
         H            1.785229581544     2.565102546154     0.382664384363     1.007825032230
         H            3.421036581544     2.291501546154     0.752201384363     1.007825032230

  Basis Set: AUG-CC-PVTZ
    Blend: AUG-CC-PVTZ
  Basis Set: (AUG-CC-PVTZ AUX)
    Blend: AUG-CC-PVTZ-JKFIT
	 Reference Energy          =    -628.1999759299749257 [Eh]
	 Singles Energy            =      -0.0000000000000000 [Eh]
	 Same-Spin Energy          =      -0.6917192757249544 [Eh]
	 Opposite-Spin Energy      =      -2.1101492384422897 [Eh]
	 Correlation Energy        =      -2.8018685141672441 [Eh]
	 Total Energy              =    -631.0018444441421934 [Eh]

	 ================> DF-SCS-MP2 Energies <==================
	-----------------------------------------------------------
	 SCS Same-Spin Scale       =       0.3333333333333333 [-]
	 SCS Opposite-Spin Scale   =       1.2000000000000000 [-]
	 SCS Same-Spin Energy      =      -0.2305730919083181 [Eh]
	 SCS Opposite-Spin Energy  =      -2.5321790861307476 [Eh]
	 SCS Correlation Energy    =      -2.7627521780390656 [Eh]
	 SCS Total Energy          =    -630.9627281080139483 [Eh]
	-----------------------------------------------------------

  Dipole Moment: [D]
     X:    -0.0986      Y:    -1.3826      Z:    -0.1279     Total:     1.3920

*** Psi4 exiting successfully. Buy a developer a beer!
