                               Psi4 1.3.2 release

  ==> Input File <==

--------------------------------------------------------------------------
#psi4
#
memory 32 gb

molecule  {
0 1
  O       -0.0417540     2.1858230    -0.3073980
  N        2.3402629     1.9497763     0.7171813
  C        1.1160800     0.1042180    -0.1414450
  C       -1.4416830     0.3069060    -0.0388060
  C       -0.1006150     0.9516510    -0.1728080
  C        2.3683100     0.6434780     0.2543940
  C        1.0541080    -1.2200940    -0.6155900
  C        3.4881200    -0.2081800     0.2578510
  C       -1.6559060    -0.7921710     0.8065690
  C       -2.5248970     0.8906690    -0.7109620
  C        2.1811870    -2.0318670    -0.6465910
  C        3.4033030    -1.5159070    -0.2032770
  C       -2.9440810    -1.3050920     0.9648860
  C       -3.8044560     0.3593180    -0.5664320
  C       -4.0170070    -0.7392060     0.2722830
  H        0.1024420    -1.6051810    -0.9713120
  H        4.4463530     0.1894450     0.5890330
  H       -0.8230280    -1.2242950     1.3551890
  H       -2.3449380     1.7597130    -1.3385060
  H        2.1152040    -3.0473210    -1.0273030
  H        4.2948280    -2.1392510    -0.2075020
  H       -3.1109310    -2.1478130     1.6315680
  H       -4.6398270     0.8046650    -1.1014830
  H       -5.0175780    -1.1483650     0.3907290
  H        1.7883890     2.5757360     0.3792320
  H        3.4241960     2.3021350     0.7487690
units angstrom
no_reorient  #important for SAPT in psi4, default
symmetry c1  #important for SAPT in psi4, default
}

set PROPERTIES_ORIGIN ["COM"]
properties('MP2/aug-cc-pvtz', properties = ['dipole'])
--------------------------------------------------------------------------

    Molecular point group: c1
  Charge       = 0
  Multiplicity = 1
  Basis Set: AUG-CC-PVTZ
    Blend: AUG-CC-PVTZ
  Basis Set: (AUG-CC-PVTZ AUX)
    Blend: AUG-CC-PVTZ-JKFIT

    Orbital Energies [Eh]
    ---------------------

    Doubly Occupied:

       1A    -20.539916     2A    -15.563922     3A    -11.340102
       4A    -11.300895     5A    -11.256684     6A    -11.253858
       7A    -11.252033     8A    -11.250941     9A    -11.249657
      10A    -11.247495    11A    -11.245382    12A    -11.243943
      13A    -11.239144    14A    -11.237632    15A    -11.230790
      16A     -1.373563    17A     -1.231481    18A     -1.163920
      19A     -1.140326    20A     -1.057475    21A     -1.026073
      22A     -1.020966    23A     -1.001538    24A     -0.894298
      25A     -0.848827    26A     -0.838665    27A     -0.823971
      28A     -0.774030    29A     -0.720254    30A     -0.711041
      31A     -0.687598    32A     -0.664169    33A     -0.646225
      34A     -0.637079    35A     -0.616798    36A     -0.607717
      37A     -0.605368    38A     -0.596793    39A     -0.576227
      40A     -0.556103    41A     -0.537695    42A     -0.526182
      43A     -0.519399    44A     -0.505140    45A     -0.501772
      46A     -0.489554    47A     -0.455651    48A     -0.421694
      49A     -0.352444    50A     -0.345694    51A     -0.344087
      52A     -0.303945

  @DF-RHF Final Energy:  -628.19485103603347

   => Energetics <=

    Nuclear Repulsion Energy =            894.7981419241629055
    One-Electron Energy =               -2628.8336752280047222
    Two-Electron Energy =                1105.8406822678084609
    Total Energy =                       -628.1948510360334694
  Basis Set: (AUG-CC-PVTZ AUX)
    Blend: AUG-CC-PVTZ-RI
    Molecular point group: c1

    Geometry (in Angstrom), charge = 0, multiplicity = 1:

       Center              X                  Y                   Z               Mass
    ------------   -----------------  -----------------  -----------------  -----------------
         O           -0.030639598871     2.166134661331    -0.302824950949    15.994914619570
         N            2.351377301129     1.930087961331     0.721754349051    14.003074004430
         C            1.127194401129     0.084529661331    -0.136871950949    12.000000000000
         C           -1.430568598871     0.287217661331    -0.034232950949    12.000000000000
         C           -0.089500598871     0.931962661331    -0.168234950949    12.000000000000
         C            2.379424401129     0.623789661331     0.258967049051    12.000000000000
         C            1.065222401129    -1.239782338669    -0.611016950949    12.000000000000
         C            3.499234401129    -0.227868338669     0.262424049051    12.000000000000
         C           -1.644791598871    -0.811859338669     0.811142049051    12.000000000000
         C           -2.513782598871     0.870980661331    -0.706388950949    12.000000000000
         C            2.192301401129    -2.051555338669    -0.642017950949    12.000000000000
         C            3.414417401129    -1.535595338669    -0.198703950949    12.000000000000
         C           -2.932966598871    -1.324780338669     0.969459049051    12.000000000000
         C           -3.793341598871     0.339629661331    -0.561858950949    12.000000000000
         C           -4.005892598871    -0.758894338669     0.276856049051    12.000000000000
         H            0.113556401129    -1.624869338669    -0.966738950949     1.007825032230
         H            4.457467401129     0.169756661331     0.593606049051     1.007825032230
         H           -0.811913598871    -1.243983338669     1.359762049051     1.007825032230
         H           -2.333823598871     1.740024661331    -1.333932950949     1.007825032230
         H            2.126318401129    -3.067009338669    -1.022729950949     1.007825032230
         H            4.305942401129    -2.158939338669    -0.202928950949     1.007825032230
         H           -3.099816598871    -2.167501338669     1.636141049051     1.007825032230
         H           -4.628712598871     0.784976661331    -1.096909950949     1.007825032230
         H           -5.006463598871    -1.168053338669     0.395302049051     1.007825032230
         H            1.799503401129     2.556047661331     0.383805049051     1.007825032230
         H            3.435310401129     2.282446661331     0.753342049051     1.007825032230

  Basis Set: AUG-CC-PVTZ
    Blend: AUG-CC-PVTZ
  Basis Set: (AUG-CC-PVTZ AUX)
    Blend: AUG-CC-PVTZ-JKFIT
	 Reference Energy          =    -628.1948510360334694 [Eh]
	 Singles Energy            =      -0.0000000000000000 [Eh]
	 Same-Spin Energy          =      -0.6920762510477181 [Eh]
	 Opposite-Spin Energy      =      -2.1113224485337625 [Eh]
	 Correlation Energy        =      -2.8033986995814804 [Eh]
	 Total Energy              =    -630.9982497356149906 [Eh]

	 ================> DF-SCS-MP2 Energies <==================
	-----------------------------------------------------------
	 SCS Same-Spin Scale       =       0.3333333333333333 [-]
	 SCS Opposite-Spin Scale   =       1.2000000000000000 [-]
	 SCS Same-Spin Energy      =      -0.2306920836825727 [Eh]
	 SCS Opposite-Spin Energy  =      -2.5335869382405147 [Eh]
	 SCS Correlation Energy    =      -2.7642790219230875 [Eh]
	 SCS Total Energy          =    -630.9591300579565996 [Eh]
	-----------------------------------------------------------

  Dipole Moment: [D]
     X:     0.4966      Y:    -1.7038      Z:    -0.0914     Total:     1.7770

*** Psi4 exiting successfully. Buy a developer a beer!
