                               Psi4 1.3.2 release

  ==> Input File <==

--------------------------------------------------------------------------
#psi4
#
memory 32 gb

molecule  {
0 1
  O       -0.0417540     2.1858230    -0.3073980
  N        2.4805920     1.9330880     0.7500480
  C        1.1160800     0.1042180    -0.1414450
  C       -1.4416830     0.3069060    -0.0388060
  C       -0.1006150     0.9516510    -0.1728080
  C        2.2953714     0.7689580     0.2862959
  C        1.0541080    -1.2200940    -0.6155900
  C        3.4881200    -0.2081800     0.2578510
  C       -1.6559060    -0.7921710     0.8065690
  C       -2.5248970     0.8906690    -0.7109620
  C        2.1811870    -2.0318670    -0.6465910
  C        3.4033030    -1.5159070    -0.2032770
  C       -2.9440810    -1.3050920     0.9648860
  C       -3.8044560     0.3593180    -0.5664320
  C       -4.0170070    -0.7392060     0.2722830
  H        0.1024420    -1.6051810    -0.9713120
  H        4.4463530     0.1894450     0.5890330
  H       -0.8230280    -1.2242950     1.3551890
  H       -2.3449380     1.7597130    -1.3385060
  H        2.1152040    -3.0473210    -1.0273030
  H        4.2948280    -2.1392510    -0.2075020
  H       -3.1109310    -2.1478130     1.6315680
  H       -4.6398270     0.8046650    -1.1014830
  H       -5.0175780    -1.1483650     0.3907290
  H        1.7883890     2.5757360     0.3792320
  H        3.4241960     2.3021350     0.7487690
units angstrom
no_reorient  #important for SAPT in psi4, default
symmetry c1  #important for SAPT in psi4, default
}

set PROPERTIES_ORIGIN ["COM"]
properties('MP2/aug-cc-pvtz', properties = ['dipole'])
--------------------------------------------------------------------------

    Molecular point group: c1
  Charge       = 0
  Multiplicity = 1
  Basis Set: AUG-CC-PVTZ
    Blend: AUG-CC-PVTZ
  Basis Set: (AUG-CC-PVTZ AUX)
    Blend: AUG-CC-PVTZ-JKFIT

    Orbital Energies [Eh]
    ---------------------

    Doubly Occupied:

       1A    -20.537674     2A    -15.582500     3A    -11.335485
       4A    -11.311583     5A    -11.250591     6A    -11.249975
       7A    -11.249264     8A    -11.248910     9A    -11.246730
      10A    -11.245396    11A    -11.243721    12A    -11.242310
      13A    -11.239732    14A    -11.234359    15A    -11.221574
      16A     -1.372934    17A     -1.283619    18A     -1.161848
      19A     -1.133238    20A     -1.052463    21A     -1.023850
      22A     -1.017282    23A     -0.984037    24A     -0.885799
      25A     -0.846844    26A     -0.838404    27A     -0.822683
      28A     -0.769354    29A     -0.730581    30A     -0.710982
      31A     -0.704554    32A     -0.675259    33A     -0.644649
      34A     -0.637709    35A     -0.618150    36A     -0.610935
      37A     -0.595339    38A     -0.590557    39A     -0.584539
      40A     -0.561788    41A     -0.532014    42A     -0.528749
      43A     -0.516479    44A     -0.500989    45A     -0.496501
      46A     -0.493691    47A     -0.463181    48A     -0.412391
      49A     -0.349575    50A     -0.344539    51A     -0.342337
      52A     -0.286221

  @DF-RHF Final Energy:  -628.19782162367005

   => Energetics <=

    Nuclear Repulsion Energy =            893.4616003077069308
    One-Electron Energy =               -2626.1911122394021731
    Two-Electron Energy =                1104.5316903080251905
    Total Energy =                       -628.1978216236700518
  Basis Set: (AUG-CC-PVTZ AUX)
    Blend: AUG-CC-PVTZ-RI
    Molecular point group: c1

    Geometry (in Angstrom), charge = 0, multiplicity = 1:

       Center              X                  Y                   Z               Mass
    ------------   -----------------  -----------------  -----------------  -----------------
         O           -0.036169095017     2.159680194772    -0.307102605953    15.994914619570
         N            2.486176904983     1.906945194772     0.750343394047    14.003074004430
         C            1.121664904983     0.078075194772    -0.141149605953    12.000000000000
         C           -1.436098095017     0.280763194772    -0.038510605953    12.000000000000
         C           -0.095030095017     0.925508194772    -0.172512605953    12.000000000000
         C            2.300956304983     0.742815194772     0.286591294047    12.000000000000
         C            1.059692904983    -1.246236805228    -0.615294605953    12.000000000000
         C            3.493704904983    -0.234322805228     0.258146394047    12.000000000000
         C           -1.650321095017    -0.818313805228     0.806864394047    12.000000000000
         C           -2.519312095017     0.864526194772    -0.710666605953    12.000000000000
         C            2.186771904983    -2.058009805228    -0.646295605953    12.000000000000
         C            3.408887904983    -1.542049805228    -0.202981605953    12.000000000000
         C           -2.938496095017    -1.331234805228     0.965181394047    12.000000000000
         C           -3.798871095017     0.333175194772    -0.566136605953    12.000000000000
         C           -4.011422095017    -0.765348805228     0.272578394047    12.000000000000
         H            0.108026904983    -1.631323805228    -0.971016605953     1.007825032230
         H            4.451937904983     0.163302194772     0.589328394047     1.007825032230
         H           -0.817443095017    -1.250437805228     1.355484394047     1.007825032230
         H           -2.339353095017     1.733570194772    -1.338210605953     1.007825032230
         H            2.120788904983    -3.073463805228    -1.027007605953     1.007825032230
         H            4.300412904983    -2.165393805228    -0.207206605953     1.007825032230
         H           -3.105346095017    -2.173955805228     1.631863394047     1.007825032230
         H           -4.634242095017     0.778522194772    -1.101187605953     1.007825032230
         H           -5.011993095017    -1.174507805228     0.391024394047     1.007825032230
         H            1.793973904983     2.549593194772     0.379527394047     1.007825032230
         H            3.429780904983     2.275992194772     0.749064394047     1.007825032230

  Basis Set: AUG-CC-PVTZ
    Blend: AUG-CC-PVTZ
  Basis Set: (AUG-CC-PVTZ AUX)
    Blend: AUG-CC-PVTZ-JKFIT
	 Reference Energy          =    -628.1978216236700518 [Eh]
	 Singles Energy            =      -0.0000000000000000 [Eh]
	 Same-Spin Energy          =      -0.6920124053678262 [Eh]
	 Opposite-Spin Energy      =      -2.1104684512601133 [Eh]
	 Correlation Energy        =      -2.8024808566279393 [Eh]
	 Total Energy              =    -631.0003024802980462 [Eh]

	 ================> DF-SCS-MP2 Energies <==================
	-----------------------------------------------------------
	 SCS Same-Spin Scale       =       0.3333333333333333 [-]
	 SCS Opposite-Spin Scale   =       1.2000000000000000 [-]
	 SCS Same-Spin Energy      =      -0.2306708017892754 [Eh]
	 SCS Opposite-Spin Energy  =      -2.5325621415121358 [Eh]
	 SCS Correlation Energy    =      -2.7632329433014111 [Eh]
	 SCS Total Energy          =    -630.9610545669714838 [Eh]
	-----------------------------------------------------------

  Dipole Moment: [D]
     X:     0.6972      Y:    -0.8131      Z:     0.2400     Total:     1.0976

*** Psi4 exiting successfully. Buy a developer a beer!
