                               Psi4 1.3.2 release

  ==> Input File <==

--------------------------------------------------------------------------
#psi4
#
memory 32 gb

molecule  {
0 1
  O       -0.0417540     2.1858230    -0.3073980
  N        2.4805920     1.9330880     0.7500480
  C        1.1160800     0.1042180    -0.1414450
  C       -1.4416830     0.3069060    -0.0388060
  C       -0.1107229     0.9686074    -0.1898443
  C        2.3683100     0.6434780     0.2543940
  C        1.0541080    -1.2200940    -0.6155900
  C        3.4881200    -0.2081800     0.2578510
  C       -1.6559060    -0.7921710     0.8065690
  C       -2.5248970     0.8906690    -0.7109620
  C        2.1811870    -2.0318670    -0.6465910
  C        3.4033030    -1.5159070    -0.2032770
  C       -2.9440810    -1.3050920     0.9648860
  C       -3.8044560     0.3593180    -0.5664320
  C       -4.0170070    -0.7392060     0.2722830
  H        0.1024420    -1.6051810    -0.9713120
  H        4.4463530     0.1894450     0.5890330
  H       -0.8230280    -1.2242950     1.3551890
  H       -2.3449380     1.7597130    -1.3385060
  H        2.1152040    -3.0473210    -1.0273030
  H        4.2948280    -2.1392510    -0.2075020
  H       -3.1109310    -2.1478130     1.6315680
  H       -4.6398270     0.8046650    -1.1014830
  H       -5.0175780    -1.1483650     0.3907290
  H        1.7883890     2.5757360     0.3792320
  H        3.4241960     2.3021350     0.7487690
units angstrom
no_reorient  #important for SAPT in psi4, default
symmetry c1  #important for SAPT in psi4, default
}

set PROPERTIES_ORIGIN ["COM"]
properties('MP2/aug-cc-pvtz', properties = ['dipole'])
--------------------------------------------------------------------------

    Molecular point group: c1
  Charge       = 0
  Multiplicity = 1
  Basis Set: AUG-CC-PVTZ
    Blend: AUG-CC-PVTZ
  Basis Set: (AUG-CC-PVTZ AUX)
    Blend: AUG-CC-PVTZ-JKFIT

    Orbital Energies [Eh]
    ---------------------

    Doubly Occupied:

       1A    -20.544414     2A    -15.561381     3A    -11.341418
       4A    -11.297445     5A    -11.253004     6A    -11.252991
       7A    -11.252733     8A    -11.251573     9A    -11.249967
      10A    -11.248033    11A    -11.246137    12A    -11.244502
      13A    -11.240810    14A    -11.232644    15A    -11.228899
      16A     -1.387231    17A     -1.227889    18A     -1.164532
      19A     -1.137204    20A     -1.055889    21A     -1.026745
      22A     -1.020140    23A     -0.996379    24A     -0.891569
      25A     -0.848428    26A     -0.838841    27A     -0.819013
      28A     -0.770210    29A     -0.717846    30A     -0.702166
      31A     -0.688019    32A     -0.670584    33A     -0.650477
      34A     -0.634948    35A     -0.616528    36A     -0.611358
      37A     -0.604175    38A     -0.597429    39A     -0.588386
      40A     -0.556275    41A     -0.536742    42A     -0.527681
      43A     -0.520021    44A     -0.509652    45A     -0.502735
      46A     -0.493889    47A     -0.453328    48A     -0.420434
      49A     -0.351305    50A     -0.346690    51A     -0.344645
      52A     -0.301143

  @DF-RHF Final Energy:  -628.22732319717647

   => Energetics <=

    Nuclear Repulsion Energy =            893.1617752023139474
    One-Electron Energy =               -2625.6252356723339290
    Two-Electron Energy =                1104.2361372728435072
    Total Energy =                       -628.2273231971764744
  Basis Set: (AUG-CC-PVTZ AUX)
    Blend: AUG-CC-PVTZ-RI
    Molecular point group: c1

    Geometry (in Angstrom), charge = 0, multiplicity = 1:

       Center              X                  Y                   Z               Mass
    ------------   -----------------  -----------------  -----------------  -----------------
         O           -0.039994713308     2.166287949726    -0.304122870361    15.994914619570
         N            2.482351286692     1.913552949726     0.753323129639    14.003074004430
         C            1.117839286692     0.084682949726    -0.138169870361    12.000000000000
         C           -1.439923713308     0.287370949726    -0.035530870361    12.000000000000
         C           -0.108963613308     0.949072349726    -0.186569170361    12.000000000000
         C            2.370069286692     0.623942949726     0.257669129639    12.000000000000
         C            1.055867286692    -1.239629050274    -0.612314870361    12.000000000000
         C            3.489879286692    -0.227715050274     0.261126129639    12.000000000000
         C           -1.654146713308    -0.811706050274     0.809844129639    12.000000000000
         C           -2.523137713308     0.871133949726    -0.707686870361    12.000000000000
         C            2.182946286692    -2.051402050274    -0.643315870361    12.000000000000
         C            3.405062286692    -1.535442050274    -0.200001870361    12.000000000000
         C           -2.942321713308    -1.324627050274     0.968161129639    12.000000000000
         C           -3.802696713308     0.339782949726    -0.563156870361    12.000000000000
         C           -4.015247713308    -0.758741050274     0.275558129639    12.000000000000
         H            0.104201286692    -1.624716050274    -0.968036870361     1.007825032230
         H            4.448112286692     0.169909949726     0.592308129639     1.007825032230
         H           -0.821268713308    -1.243830050274     1.358464129639     1.007825032230
         H           -2.343178713308     1.740177949726    -1.335230870361     1.007825032230
         H            2.116963286692    -3.066856050274    -1.024027870361     1.007825032230
         H            4.296587286692    -2.158786050274    -0.204226870361     1.007825032230
         H           -3.109171713308    -2.167348050274     1.634843129639     1.007825032230
         H           -4.638067713308     0.785129949726    -1.098207870361     1.007825032230
         H           -5.015818713308    -1.167900050274     0.394004129639     1.007825032230
         H            1.790148286692     2.556200949726     0.382507129639     1.007825032230
         H            3.425955286692     2.282599949726     0.752044129639     1.007825032230

  Basis Set: AUG-CC-PVTZ
    Blend: AUG-CC-PVTZ
  Basis Set: (AUG-CC-PVTZ AUX)
    Blend: AUG-CC-PVTZ-JKFIT
	 Reference Energy          =    -628.2273231971764744 [Eh]
	 Singles Energy            =      -0.0000000000000000 [Eh]
	 Same-Spin Energy          =      -0.6910135442974606 [Eh]
	 Opposite-Spin Energy      =      -2.1085433635819726 [Eh]
	 Correlation Energy        =      -2.7995569078794333 [Eh]
	 Total Energy              =    -631.0268801050558523 [Eh]

	 ================> DF-SCS-MP2 Energies <==================
	-----------------------------------------------------------
	 SCS Same-Spin Scale       =       0.3333333333333333 [-]
	 SCS Opposite-Spin Scale   =       1.2000000000000000 [-]
	 SCS Same-Spin Energy      =      -0.2303378480991535 [Eh]
	 SCS Opposite-Spin Energy  =      -2.5302520362983669 [Eh]
	 SCS Correlation Energy    =      -2.7605898843975205 [Eh]
	 SCS Total Energy          =    -630.9879130815739927 [Eh]
	-----------------------------------------------------------

  Dipole Moment: [D]
     X:     0.2498      Y:    -1.5445      Z:    -0.1197     Total:     1.5691

*** Psi4 exiting successfully. Buy a developer a beer!
