                               Psi4 1.3.2 release

  ==> Input File <==

--------------------------------------------------------------------------
#psi4
#
memory 32 gb

molecule  {
0 1
  O       -0.0417540     2.1858230    -0.3073980
  N        2.4805920     1.9330880     0.7500480
  C        1.1160800     0.1042180    -0.1414450
  C       -1.5860513     0.3045949    -0.0656382
  C       -0.1006150     0.9516510    -0.1728080
  C        2.3683100     0.6434780     0.2543940
  C        1.0541080    -1.2200940    -0.6155900
  C        3.4881200    -0.2081800     0.2578510
  C       -1.6559060    -0.7921710     0.8065690
  C       -2.5248970     0.8906690    -0.7109620
  C        2.1811870    -2.0318670    -0.6465910
  C        3.4033030    -1.5159070    -0.2032770
  C       -2.9440810    -1.3050920     0.9648860
  C       -3.8044560     0.3593180    -0.5664320
  C       -4.0170070    -0.7392060     0.2722830
  H        0.1024420    -1.6051810    -0.9713120
  H        4.4463530     0.1894450     0.5890330
  H       -0.8230280    -1.2242950     1.3551890
  H       -2.3449380     1.7597130    -1.3385060
  H        2.1152040    -3.0473210    -1.0273030
  H        4.2948280    -2.1392510    -0.2075020
  H       -3.1109310    -2.1478130     1.6315680
  H       -4.6398270     0.8046650    -1.1014830
  H       -5.0175780    -1.1483650     0.3907290
  H        1.7883890     2.5757360     0.3792320
  H        3.4241960     2.3021350     0.7487690
units angstrom
no_reorient  #important for SAPT in psi4, default
symmetry c1  #important for SAPT in psi4, default
}

set PROPERTIES_ORIGIN ["COM"]
properties('MP2/aug-cc-pvtz', properties = ['dipole'])
--------------------------------------------------------------------------

    Molecular point group: c1
  Charge       = 0
  Multiplicity = 1
  Basis Set: AUG-CC-PVTZ
    Blend: AUG-CC-PVTZ
  Basis Set: (AUG-CC-PVTZ AUX)
    Blend: AUG-CC-PVTZ-JKFIT

    Orbital Energies [Eh]
    ---------------------

    Doubly Occupied:

       1A    -20.543293     2A    -15.562612     3A    -11.344906
       4A    -11.300174     5A    -11.255274     6A    -11.255137
       7A    -11.247779     8A    -11.245740     9A    -11.245439
      10A    -11.244632    11A    -11.243757    12A    -11.243081
      13A    -11.234351    14A    -11.230571    15A    -11.229565
      16A     -1.372566    17A     -1.229306    18A     -1.176040
      19A     -1.139392    20A     -1.049720    21A     -1.038819
      22A     -1.017897    23A     -0.998628    24A     -0.882350
      25A     -0.847294    26A     -0.842134    27A     -0.817717
      28A     -0.769807    29A     -0.719056    30A     -0.703066
      31A     -0.689027    32A     -0.663442    33A     -0.646297
      34A     -0.636465    35A     -0.617032    36A     -0.610229
      37A     -0.606473    38A     -0.598563    39A     -0.586789
      40A     -0.554139    41A     -0.536037    42A     -0.528845
      43A     -0.519567    44A     -0.512101    45A     -0.504210
      46A     -0.494420    47A     -0.454693    48A     -0.406285
      49A     -0.357572    50A     -0.351824    51A     -0.340582
      52A     -0.302957

  @DF-RHF Final Energy:  -628.20189211173283

   => Energetics <=

    Nuclear Repulsion Energy =            892.8814947417158692
    One-Electron Energy =               -2625.0714731069033405
    Two-Electron Energy =                1103.9880862534546395
    Total Energy =                       -628.2018921117328318
  Basis Set: (AUG-CC-PVTZ AUX)
    Blend: AUG-CC-PVTZ-RI
    Molecular point group: c1

    Geometry (in Angstrom), charge = 0, multiplicity = 1:

       Center              X                  Y                   Z               Mass
    ------------   -----------------  -----------------  -----------------  -----------------
         O           -0.031819903192     2.167461103939    -0.303526420310    15.994914619570
         N            2.490526096808     1.914726103939     0.753919579690    14.003074004430
         C            1.126014096808     0.085856103939    -0.137573420310    12.000000000000
         C           -1.576117203192     0.286233003939    -0.061766620310    12.000000000000
         C           -0.090680903192     0.933289103939    -0.168936420310    12.000000000000
         C            2.378244096808     0.625116103939     0.258265579690    12.000000000000
         C            1.064042096808    -1.238455896061    -0.611718420310    12.000000000000
         C            3.498054096808    -0.226541896061     0.261722579690    12.000000000000
         C           -1.645971903192    -0.810532896061     0.810440579690    12.000000000000
         C           -2.514962903192     0.872307103939    -0.707090420310    12.000000000000
         C            2.191121096808    -2.050228896061    -0.642719420310    12.000000000000
         C            3.413237096808    -1.534268896061    -0.199405420310    12.000000000000
         C           -2.934146903192    -1.323453896061     0.968757579690    12.000000000000
         C           -3.794521903192     0.340956103939    -0.562560420310    12.000000000000
         C           -4.007072903192    -0.757567896061     0.276154579690    12.000000000000
         H            0.112376096808    -1.623542896061    -0.967440420310     1.007825032230
         H            4.456287096808     0.171083103939     0.592904579690     1.007825032230
         H           -0.813093903192    -1.242656896061     1.359060579690     1.007825032230
         H           -2.335003903192     1.741351103939    -1.334634420310     1.007825032230
         H            2.125138096808    -3.065682896061    -1.023431420310     1.007825032230
         H            4.304762096808    -2.157612896061    -0.203630420310     1.007825032230
         H           -3.100996903192    -2.166174896061     1.635439579690     1.007825032230
         H           -4.629892903192     0.786303103939    -1.097611420310     1.007825032230
         H           -5.007643903192    -1.166726896061     0.394600579690     1.007825032230
         H            1.798323096808     2.557374103939     0.383103579690     1.007825032230
         H            3.434130096808     2.283773103939     0.752640579690     1.007825032230

  Basis Set: AUG-CC-PVTZ
    Blend: AUG-CC-PVTZ
  Basis Set: (AUG-CC-PVTZ AUX)
    Blend: AUG-CC-PVTZ-JKFIT
	 Reference Energy          =    -628.2018921117328318 [Eh]
	 Singles Energy            =      -0.0000000000000000 [Eh]
	 Same-Spin Energy          =      -0.6912043561108531 [Eh]
	 Opposite-Spin Energy      =      -2.1094312143168250 [Eh]
	 Correlation Energy        =      -2.8006355704276782 [Eh]
	 Total Energy              =    -631.0025276821604621 [Eh]

	 ================> DF-SCS-MP2 Energies <==================
	-----------------------------------------------------------
	 SCS Same-Spin Scale       =       0.3333333333333333 [-]
	 SCS Opposite-Spin Scale   =       1.2000000000000000 [-]
	 SCS Same-Spin Energy      =      -0.2304014520369510 [Eh]
	 SCS Opposite-Spin Energy  =      -2.5313174571801897 [Eh]
	 SCS Correlation Energy    =      -2.7617189092171408 [Eh]
	 SCS Total Energy          =    -630.9636110209499975 [Eh]
	-----------------------------------------------------------

  Dipole Moment: [D]
     X:     0.6402      Y:    -1.5394      Z:    -0.1328     Total:     1.6725

*** Psi4 exiting successfully. Buy a developer a beer!
