                               Psi4 1.4a3.dev225

  ==> Input File <==

--------------------------------------------------------------------------
#psi4
#
memory 32 gb

molecule  {
0 1
  O       -0.0417540     2.1858230    -0.3073980
  N        2.4805920     1.9330880     0.7500480
  C        1.1160800     0.1042180    -0.1414450
  C       -1.4416830     0.3069060    -0.0388060
  C       -0.1006150     0.9516510    -0.1728080
  C        2.3666899     0.6248707     0.2472424
  C        1.0541080    -1.2200940    -0.6155900
  C        3.4881200    -0.2081800     0.2578510
  C       -1.6559060    -0.7921710     0.8065690
  C       -2.5248970     0.8906690    -0.7109620
  C        2.1811870    -2.0318670    -0.6465910
  C        3.4033030    -1.5159070    -0.2032770
  C       -2.9440810    -1.3050920     0.9648860
  C       -3.8044560     0.3593180    -0.5664320
  C       -4.0170070    -0.7392060     0.2722830
  H        0.1024420    -1.6051810    -0.9713120
  H        4.4463530     0.1894450     0.5890330
  H       -0.8230280    -1.2242950     1.3551890
  H       -2.3449380     1.7597130    -1.3385060
  H        2.1152040    -3.0473210    -1.0273030
  H        4.2948280    -2.1392510    -0.2075020
  H       -3.1109310    -2.1478130     1.6315680
  H       -4.6398270     0.8046650    -1.1014830
  H       -5.0175780    -1.1483650     0.3907290
  H        1.7883890     2.5757360     0.3792320
  H        3.4241960     2.3021350     0.7487690
units angstrom
no_reorient  #important for SAPT in psi4, default
symmetry c1  #important for SAPT in psi4, default
}

set PROPERTIES_ORIGIN ["COM"]
properties('MP2/aug-cc-pvtz', properties = ['dipole'])
--------------------------------------------------------------------------

    Molecular point group: c1
  Charge       = 0
  Multiplicity = 1
  Basis Set: AUG-CC-PVTZ
    Blend: AUG-CC-PVTZ
  Basis Set: (AUG-CC-PVTZ AUX)
    Blend: AUG-CC-PVTZ-JKFIT

    Orbital Energies [Eh]
    ---------------------

    Doubly Occupied:

       1A    -20.542169     2A    -15.558986     3A    -11.342408
       4A    -11.297086     5A    -11.254866     6A    -11.254607
       7A    -11.253031     8A    -11.251819     9A    -11.250686
      10A    -11.248499    11A    -11.246177    12A    -11.244748
      13A    -11.241320    14A    -11.233539    15A    -11.231033
      16A     -1.374759    17A     -1.222114    18A     -1.164706
      19A     -1.138546    20A     -1.058473    21A     -1.027037
      22A     -1.022029    23A     -0.999278    24A     -0.894265
      25A     -0.850143    26A     -0.839363    27A     -0.819955
      28A     -0.770970    29A     -0.718963    30A     -0.700432
      31A     -0.685950    32A     -0.669036    33A     -0.648190
      34A     -0.634255    35A     -0.616676    36A     -0.610936
      37A     -0.605372    38A     -0.597588    39A     -0.587716
      40A     -0.554729    41A     -0.535629    42A     -0.526896
      43A     -0.520123    44A     -0.510788    45A     -0.502678
      46A     -0.490723    47A     -0.451307    48A     -0.422977
      49A     -0.352613    50A     -0.346718    51A     -0.344921
      52A     -0.304555

  @DF-RHF Final Energy:  -628.22564535700201

   => Energetics <=

    Nuclear Repulsion Energy =            893.3203371986550110
    One-Electron Energy =               -2625.9471932116034623
    Two-Electron Energy =                1104.4012106559464428
    Total Energy =                       -628.2256453570018948
  Basis Set: (AUG-CC-PVTZ AUX)
    Blend: AUG-CC-PVTZ-RI
    Molecular point group: c1

    Geometry (in Angstrom), charge = 0, multiplicity = 1:

       Center              X                  Y                   Z               Mass
    ------------   -----------------  -----------------  -----------------  -----------------
         O           -0.040511516128     2.168453342459    -0.304724727242    15.994914619570
         N            2.481834483872     1.915718342459     0.752721272758    14.003074004430
         C            1.117322483872     0.086848342459    -0.138771727242    12.000000000000
         C           -1.440440516128     0.289536342459    -0.036132727242    12.000000000000
         C           -0.099372516128     0.934281342459    -0.170134727242    12.000000000000
         C            2.367932383872     0.607501042459     0.249915672758    12.000000000000
         C            1.055350483872    -1.237463657541    -0.612916727242    12.000000000000
         C            3.489362483872    -0.225549657541     0.260524272758    12.000000000000
         C           -1.654663516128    -0.809540657541     0.809242272758    12.000000000000
         C           -2.523654516128     0.873299342459    -0.708288727242    12.000000000000
         C            2.182429483872    -2.049236657541    -0.643917727242    12.000000000000
         C            3.404545483872    -1.533276657541    -0.200603727242    12.000000000000
         C           -2.942838516128    -1.322461657541     0.967559272758    12.000000000000
         C           -3.803213516128     0.341948342459    -0.563758727242    12.000000000000
         C           -4.015764516128    -0.756575657541     0.274956272758    12.000000000000
         H            0.103684483872    -1.622550657541    -0.968638727242     1.007825032230
         H            4.447595483872     0.172075342459     0.591706272758     1.007825032230
         H           -0.821785516128    -1.241664657541     1.357862272758     1.007825032230
         H           -2.343695516128     1.742343342459    -1.335832727242     1.007825032230
         H            2.116446483872    -3.064690657541    -1.024629727242     1.007825032230
         H            4.296070483872    -2.156620657541    -0.204828727242     1.007825032230
         H           -3.109688516128    -2.165182657541     1.634241272758     1.007825032230
         H           -4.638584516128     0.787295342459    -1.098809727242     1.007825032230
         H           -5.016335516128    -1.165734657541     0.393402272758     1.007825032230
         H            1.789631483872     2.558366342459     0.381905272758     1.007825032230
         H            3.425438483872     2.284765342459     0.751442272758     1.007825032230

  Basis Set: AUG-CC-PVTZ
    Blend: AUG-CC-PVTZ
  Basis Set: (AUG-CC-PVTZ AUX)
    Blend: AUG-CC-PVTZ-JKFIT
	 Reference Energy          =    -628.2256453570020085 [Eh]
	 Singles Energy            =      -0.0000000000000000 [Eh]
	 Same-Spin Energy          =      -0.6914746370812207 [Eh]
	 Opposite-Spin Energy      =      -2.1096382035011989 [Eh]
	 Correlation Energy        =      -2.8011128405824195 [Eh]
	 Total Energy              =    -631.0267581975843996 [Eh]

	 ================> DF-SCS-MP2 Energies <==================
	-----------------------------------------------------------
	 SCS Same-Spin Scale       =       0.3333333333333333 [-]
	 SCS Opposite-Spin Scale   =       1.2000000000000000 [-]
	 SCS Same-Spin Energy      =      -0.2304915456937402 [Eh]
	 SCS Opposite-Spin Energy  =      -2.5315658442014386 [Eh]
	 SCS Correlation Energy    =      -2.7620573898951788 [Eh]
	 SCS Total Energy          =    -630.9877027468971846 [Eh]
	-----------------------------------------------------------

  Dipole Moment: [D]
     X:     0.3036      Y:    -1.7565      Z:    -0.1518     Total:     1.7890

*** Psi4 exiting successfully. Buy a developer a beer!
