                               Psi4 1.3.2 release

  ==> Input File <==

--------------------------------------------------------------------------
#psi4
#
memory 32 gb

molecule  {
0 1
  O       -0.0417540     2.1858230    -0.3073980
  N        2.3371019     1.9444318     0.7318030
  C        1.1160800     0.1042180    -0.1414450
  C       -1.4416830     0.3069060    -0.0388060
  C       -0.1006150     0.9516510    -0.1728080
  C        2.3683100     0.6434780     0.2543940
  C        1.0541080    -1.2200940    -0.6155900
  C        3.4881200    -0.2081800     0.2578510
  C       -1.6559060    -0.7921710     0.8065690
  C       -2.5248970     0.8906690    -0.7109620
  C        2.1811870    -2.0318670    -0.6465910
  C        3.4033030    -1.5159070    -0.2032770
  C       -2.9440810    -1.3050920     0.9648860
  C       -3.8044560     0.3593180    -0.5664320
  C       -4.0170070    -0.7392060     0.2722830
  H        0.1024420    -1.6051810    -0.9713120
  H        4.4463530     0.1894450     0.5890330
  H       -0.8230280    -1.2242950     1.3551890
  H       -2.3449380     1.7597130    -1.3385060
  H        2.1152040    -3.0473210    -1.0273030
  H        4.2948280    -2.1392510    -0.2075020
  H       -3.1109310    -2.1478130     1.6315680
  H       -4.6398270     0.8046650    -1.1014830
  H       -5.0175780    -1.1483650     0.3907290
  H        1.7883890     2.5757360     0.3792320
  H        3.4241960     2.3021350     0.7487690
units angstrom
no_reorient  #important for SAPT in psi4, default
symmetry c1  #important for SAPT in psi4, default
}

set PROPERTIES_ORIGIN ["COM"]
properties('MP2/aug-cc-pvtz', properties = ['dipole'])
--------------------------------------------------------------------------

    Molecular point group: c1
  Charge       = 0
  Multiplicity = 1
  Basis Set: AUG-CC-PVTZ
    Blend: AUG-CC-PVTZ
  Basis Set: (AUG-CC-PVTZ AUX)
    Blend: AUG-CC-PVTZ-JKFIT

    Orbital Energies [Eh]
    ---------------------

    Doubly Occupied:

       1A    -20.540067     2A    -15.564909     3A    -11.340242
       4A    -11.300507     5A    -11.256698     6A    -11.253927
       7A    -11.252097     8A    -11.250996     9A    -11.249723
      10A    -11.247560    11A    -11.245431    12A    -11.243993
      13A    -11.239352    14A    -11.237733    15A    -11.231060
      16A     -1.373673    17A     -1.230856    18A     -1.163964
      19A     -1.140087    20A     -1.057565    21A     -1.026133
      22A     -1.021035    23A     -1.001069    24A     -0.894256
      25A     -0.848793    26A     -0.838637    27A     -0.823513
      28A     -0.773632    29A     -0.719715    30A     -0.710254
      31A     -0.687089    32A     -0.664015    33A     -0.646082
      34A     -0.637065    35A     -0.616524    36A     -0.607836
      37A     -0.605280    38A     -0.596849    39A     -0.575082
      40A     -0.556142    41A     -0.537868    42A     -0.526163
      43A     -0.519389    44A     -0.505108    45A     -0.501831
      46A     -0.489528    47A     -0.456189    48A     -0.421707
      49A     -0.352484    50A     -0.345748    51A     -0.344140
      52A     -0.304537

  @DF-RHF Final Energy:  -628.19573952870337

   => Energetics <=

    Nuclear Repulsion Energy =            894.7593132555730335
    One-Electron Energy =               -2628.7618357459928120
    Two-Electron Energy =                1105.8067829617164080
    Total Energy =                       -628.1957395287033705
  Basis Set: (AUG-CC-PVTZ AUX)
    Blend: AUG-CC-PVTZ-RI
    Molecular point group: c1

    Geometry (in Angstrom), charge = 0, multiplicity = 1:

       Center              X                  Y                   Z               Mass
    ------------   -----------------  -----------------  -----------------  -----------------
         O           -0.030415005791     2.166514394869    -0.303863841375    15.994914619570
         N            2.348440894209     1.925123194869     0.735337158625    14.003074004430
         C            1.127418994209     0.084909394869    -0.137910841375    12.000000000000
         C           -1.430344005791     0.287597394869    -0.035271841375    12.000000000000
         C           -0.089276005791     0.932342394869    -0.169273841375    12.000000000000
         C            2.379648994209     0.624169394869     0.257928158625    12.000000000000
         C            1.065446994209    -1.239402605131    -0.612055841375    12.000000000000
         C            3.499458994209    -0.227488605131     0.261385158625    12.000000000000
         C           -1.644567005791    -0.811479605131     0.810103158625    12.000000000000
         C           -2.513558005791     0.871360394869    -0.707427841375    12.000000000000
         C            2.192525994209    -2.051175605131    -0.643056841375    12.000000000000
         C            3.414641994209    -1.535215605131    -0.199742841375    12.000000000000
         C           -2.932742005791    -1.324400605131     0.968420158625    12.000000000000
         C           -3.793117005791     0.340009394869    -0.562897841375    12.000000000000
         C           -4.005668005791    -0.758514605131     0.275817158625    12.000000000000
         H            0.113780994209    -1.624489605131    -0.967777841375     1.007825032230
         H            4.457691994209     0.170136394869     0.592567158625     1.007825032230
         H           -0.811689005791    -1.243603605131     1.358723158625     1.007825032230
         H           -2.333599005791     1.740404394869    -1.334971841375     1.007825032230
         H            2.126542994209    -3.066629605131    -1.023768841375     1.007825032230
         H            4.306166994209    -2.158559605131    -0.203967841375     1.007825032230
         H           -3.099592005791    -2.167121605131     1.635102158625     1.007825032230
         H           -4.628488005791     0.785356394869    -1.097948841375     1.007825032230
         H           -5.006239005791    -1.167673605131     0.394263158625     1.007825032230
         H            1.799727994209     2.556427394869     0.382766158625     1.007825032230
         H            3.435534994209     2.282826394869     0.752303158625     1.007825032230

  Basis Set: AUG-CC-PVTZ
    Blend: AUG-CC-PVTZ
  Basis Set: (AUG-CC-PVTZ AUX)
    Blend: AUG-CC-PVTZ-JKFIT
	 Reference Energy          =    -628.1957395287033705 [Eh]
	 Singles Energy            =      -0.0000000000000000 [Eh]
	 Same-Spin Energy          =      -0.6921448140775427 [Eh]
	 Opposite-Spin Energy      =      -2.1115357530758385 [Eh]
	 Correlation Energy        =      -2.8036805671533811 [Eh]
	 Total Energy              =    -630.9994200958567490 [Eh]

	 ================> DF-SCS-MP2 Energies <==================
	-----------------------------------------------------------
	 SCS Same-Spin Scale       =       0.3333333333333333 [-]
	 SCS Opposite-Spin Scale   =       1.2000000000000000 [-]
	 SCS Same-Spin Energy      =      -0.2307149380258476 [Eh]
	 SCS Opposite-Spin Energy  =      -2.5338429036910060 [Eh]
	 SCS Correlation Energy    =      -2.7645578417168535 [Eh]
	 SCS Total Energy          =    -630.9602973704202213 [Eh]
	-----------------------------------------------------------

  Dipole Moment: [D]
     X:     0.4866      Y:    -1.7190      Z:    -0.1279     Total:     1.7912

*** Psi4 exiting successfully. Buy a developer a beer!
