                               Psi4 1.4a3.dev225

  ==> Input File <==

--------------------------------------------------------------------------
#psi4
#
memory 32 gb

molecule  {
0 1
  O       -0.0417540     2.1858230    -0.3073980
  N        2.4805920     1.9330880     0.7500480
  C        1.1160800     0.1042180    -0.1414450
  C       -1.4416830     0.3069060    -0.0388060
  C       -0.1006150     0.9516510    -0.1728080
  C        2.3242083     0.6244861     0.2404531
  C        1.0541080    -1.2200940    -0.6155900
  C        3.4881200    -0.2081800     0.2578510
  C       -1.6559060    -0.7921710     0.8065690
  C       -2.5248970     0.8906690    -0.7109620
  C        2.1811870    -2.0318670    -0.6465910
  C        3.4033030    -1.5159070    -0.2032770
  C       -2.9440810    -1.3050920     0.9648860
  C       -3.8044560     0.3593180    -0.5664320
  C       -4.0170070    -0.7392060     0.2722830
  H        0.1024420    -1.6051810    -0.9713120
  H        4.4463530     0.1894450     0.5890330
  H       -0.8230280    -1.2242950     1.3551890
  H       -2.3449380     1.7597130    -1.3385060
  H        2.1152040    -3.0473210    -1.0273030
  H        4.2948280    -2.1392510    -0.2075020
  H       -3.1109310    -2.1478130     1.6315680
  H       -4.6398270     0.8046650    -1.1014830
  H       -5.0175780    -1.1483650     0.3907290
  H        1.7883890     2.5757360     0.3792320
  H        3.4241960     2.3021350     0.7487690
units angstrom
no_reorient  #important for SAPT in psi4, default
symmetry c1  #important for SAPT in psi4, default
}

set PROPERTIES_ORIGIN ["COM"]
properties('MP2/aug-cc-pvtz', properties = ['dipole'])
--------------------------------------------------------------------------

    Molecular point group: c1
  Charge       = 0
  Multiplicity = 1
  Basis Set: AUG-CC-PVTZ
    Blend: AUG-CC-PVTZ
  Basis Set: (AUG-CC-PVTZ AUX)
    Blend: AUG-CC-PVTZ-JKFIT

    Orbital Energies [Eh]
    ---------------------

    Doubly Occupied:

       1A    -20.542979     2A    -15.558443     3A    -11.342629
       4A    -11.296821     5A    -11.253969     6A    -11.253358
       7A    -11.253242     8A    -11.252051     9A    -11.250845
      10A    -11.248739    11A    -11.246433    12A    -11.244960
      13A    -11.237759    14A    -11.237713    15A    -11.231463
      16A     -1.375556    17A     -1.220322    18A     -1.164973
      19A     -1.138536    20A     -1.059101    21A     -1.027565
      22A     -1.023158    23A     -0.997777    24A     -0.893772
      25A     -0.851235    26A     -0.840470    27A     -0.820201
      28A     -0.770407    29A     -0.719734    30A     -0.700425
      31A     -0.683873    32A     -0.668331    33A     -0.648540
      34A     -0.636008    35A     -0.619896    36A     -0.612248
      37A     -0.600918    38A     -0.597653    39A     -0.587737
      40A     -0.555383    41A     -0.532426    42A     -0.527366
      43A     -0.519354    44A     -0.514079    45A     -0.502874
      46A     -0.490743    47A     -0.449996    48A     -0.422705
      49A     -0.353294    50A     -0.347263    51A     -0.345236
      52A     -0.304848

  @DF-RHF Final Energy:  -628.22310158150412

   => Energetics <=

    Nuclear Repulsion Energy =            893.7656239539055605
    One-Electron Energy =               -2626.8266419149263129
    Two-Electron Energy =                1104.8379163795166278
    Total Energy =                       -628.2231015815041246
  Basis Set: (AUG-CC-PVTZ AUX)
    Blend: AUG-CC-PVTZ-RI
    Molecular point group: c1

    Geometry (in Angstrom), charge = 0, multiplicity = 1:

       Center              X                  Y                   Z               Mass
    ------------   -----------------  -----------------  -----------------  -----------------
         O           -0.037924908212     2.168476759878    -0.304311342220    15.994914619570
         N            2.484421091788     1.915741759878     0.753134657780    14.003074004430
         C            1.119909091788     0.086871759878    -0.138358342220    12.000000000000
         C           -1.437853908212     0.289559759878    -0.035719342220    12.000000000000
         C           -0.096785908212     0.934304759878    -0.169721342220    12.000000000000
         C            2.328037391788     0.607139859878     0.243539757780    12.000000000000
         C            1.057937091788    -1.237440240122    -0.612503342220    12.000000000000
         C            3.491949091788    -0.225526240122     0.260937657780    12.000000000000
         C           -1.652076908212    -0.809517240122     0.809655657780    12.000000000000
         C           -2.521067908212     0.873322759878    -0.707875342220    12.000000000000
         C            2.185016091788    -2.049213240122    -0.643504342220    12.000000000000
         C            3.407132091788    -1.533253240122    -0.200190342220    12.000000000000
         C           -2.940251908212    -1.322438240122     0.967972657780    12.000000000000
         C           -3.800626908212     0.341971759878    -0.563345342220    12.000000000000
         C           -4.013177908212    -0.756552240122     0.275369657780    12.000000000000
         H            0.106271091788    -1.622527240122    -0.968225342220     1.007825032230
         H            4.450182091788     0.172098759878     0.592119657780     1.007825032230
         H           -0.819198908212    -1.241641240122     1.358275657780     1.007825032230
         H           -2.341108908212     1.742366759878    -1.335419342220     1.007825032230
         H            2.119033091788    -3.064667240122    -1.024216342220     1.007825032230
         H            4.298657091788    -2.156597240122    -0.204415342220     1.007825032230
         H           -3.107101908212    -2.165159240122     1.634654657780     1.007825032230
         H           -4.635997908212     0.787318759878    -1.098396342220     1.007825032230
         H           -5.013748908212    -1.165711240122     0.393815657780     1.007825032230
         H            1.792218091788     2.558389759878     0.382318657780     1.007825032230
         H            3.428025091788     2.284788759878     0.751855657780     1.007825032230

  Basis Set: AUG-CC-PVTZ
    Blend: AUG-CC-PVTZ
  Basis Set: (AUG-CC-PVTZ AUX)
    Blend: AUG-CC-PVTZ-JKFIT
	 Reference Energy          =    -628.2231015815041246 [Eh]
	 Singles Energy            =      -0.0000000000000000 [Eh]
	 Same-Spin Energy          =      -0.6913017553025153 [Eh]
	 Opposite-Spin Energy      =      -2.1098119523403547 [Eh]
	 Correlation Energy        =      -2.8011137076428700 [Eh]
	 Total Energy              =    -631.0242152891470369 [Eh]

	 ================> DF-SCS-MP2 Energies <==================
	-----------------------------------------------------------
	 SCS Same-Spin Scale       =       0.3333333333333333 [-]
	 SCS Opposite-Spin Scale   =       1.2000000000000000 [-]
	 SCS Same-Spin Energy      =      -0.2304339184341717 [Eh]
	 SCS Opposite-Spin Energy  =      -2.5317743428084256 [Eh]
	 SCS Correlation Energy    =      -2.7622082612425976 [Eh]
	 SCS Total Energy          =    -630.9853098427466875 [Eh]
	-----------------------------------------------------------

  Dipole Moment: [D]
     X:     0.2872      Y:    -1.7708      Z:    -0.1608     Total:     1.8011

*** Psi4 exiting successfully. Buy a developer a beer!
