                               Psi4 1.3.2 release

  ==> Input File <==

--------------------------------------------------------------------------
#psi4
#
memory 32 gb

molecule  {
0 1
  O       -0.0417540     2.1858230    -0.3073980
  N        2.4805920     1.9330880     0.7500480
  C        1.1160800     0.1042180    -0.1414450
  C       -1.4416830     0.3069060    -0.0388060
  C       -0.2801390     0.8653413    -0.1548696
  C        2.3683100     0.6434780     0.2543940
  C        1.0541080    -1.2200940    -0.6155900
  C        3.4881200    -0.2081800     0.2578510
  C       -1.6559060    -0.7921710     0.8065690
  C       -2.5248970     0.8906690    -0.7109620
  C        2.1811870    -2.0318670    -0.6465910
  C        3.4033030    -1.5159070    -0.2032770
  C       -2.9440810    -1.3050920     0.9648860
  C       -3.8044560     0.3593180    -0.5664320
  C       -4.0170070    -0.7392060     0.2722830
  H        0.1024420    -1.6051810    -0.9713120
  H        4.4463530     0.1894450     0.5890330
  H       -0.8230280    -1.2242950     1.3551890
  H       -2.3449380     1.7597130    -1.3385060
  H        2.1152040    -3.0473210    -1.0273030
  H        4.2948280    -2.1392510    -0.2075020
  H       -3.1109310    -2.1478130     1.6315680
  H       -4.6398270     0.8046650    -1.1014830
  H       -5.0175780    -1.1483650     0.3907290
  H        1.7883890     2.5757360     0.3792320
  H        3.4241960     2.3021350     0.7487690
units angstrom
no_reorient  #important for SAPT in psi4, default
symmetry c1  #important for SAPT in psi4, default
}

set PROPERTIES_ORIGIN ["COM"]
properties('MP2/aug-cc-pvtz', properties = ['dipole'])
--------------------------------------------------------------------------

    Molecular point group: c1
  Charge       = 0
  Multiplicity = 1
  Basis Set: AUG-CC-PVTZ
    Blend: AUG-CC-PVTZ
  Basis Set: (AUG-CC-PVTZ AUX)
    Blend: AUG-CC-PVTZ-JKFIT

    Orbital Energies [Eh]
    ---------------------

    Doubly Occupied:

       1A    -20.523631     2A    -15.550571     3A    -11.340339
       4A    -11.291405     5A    -11.273020     6A    -11.271890
       7A    -11.267768     8A    -11.257917     9A    -11.256124
      10A    -11.245875    11A    -11.245116    12A    -11.244852
      13A    -11.243410    14A    -11.227544    15A    -11.222697
      16A     -1.307955    17A     -1.216339    18A     -1.185871
      19A     -1.130007    20A     -1.085432    21A     -1.041686
      22A     -1.018033    23A     -0.987287    24A     -0.920566
      25A     -0.858019    26A     -0.836101    27A     -0.817533
      28A     -0.777079    29A     -0.717944    30A     -0.701687
      31A     -0.680902    32A     -0.670536    33A     -0.657587
      34A     -0.633604    35A     -0.617205    36A     -0.611284
      37A     -0.603396    38A     -0.596243    39A     -0.565959
      40A     -0.544736    41A     -0.536615    42A     -0.530089
      43A     -0.522948    44A     -0.505816    45A     -0.502193
      46A     -0.467517    47A     -0.444898    48A     -0.412104
      49A     -0.360273    50A     -0.356875    51A     -0.339727
      52A     -0.292566

  @DF-RHF Final Energy:  -628.16087211556624

   => Energetics <=

    Nuclear Repulsion Energy =            893.2795002034453091
    One-Electron Energy =               -2625.8472047043569546
    Two-Electron Energy =                1104.4068323853452966
    Total Energy =                       -628.1608721155662352
  Basis Set: (AUG-CC-PVTZ AUX)
    Blend: AUG-CC-PVTZ-RI
    Molecular point group: c1

    Geometry (in Angstrom), charge = 0, multiplicity = 1:

       Center              X                  Y                   Z               Mass
    ------------   -----------------  -----------------  -----------------  -----------------
         O           -0.029679352650     2.172575587473    -0.306252400225    15.994914619570
         N            2.492666647350     1.919840587473     0.751193599775    14.003074004430
         C            1.128154647350     0.090970587473    -0.140299400225    12.000000000000
         C           -1.429608352650     0.293658587473    -0.037660400225    12.000000000000
         C           -0.268064352650     0.852093887473    -0.153724000225    12.000000000000
         C            2.380384647350     0.630230587473     0.255539599775    12.000000000000
         C            1.066182647350    -1.233341412527    -0.614444400225    12.000000000000
         C            3.500194647350    -0.221427412527     0.258996599775    12.000000000000
         C           -1.643831352650    -0.805418412527     0.807714599775    12.000000000000
         C           -2.512822352650     0.877421587473    -0.709816400225    12.000000000000
         C            2.193261647350    -2.045114412527    -0.645445400225    12.000000000000
         C            3.415377647350    -1.529154412527    -0.202131400225    12.000000000000
         C           -2.932006352650    -1.318339412527     0.966031599775    12.000000000000
         C           -3.792381352650     0.346070587473    -0.565286400225    12.000000000000
         C           -4.004932352650    -0.752453412527     0.273428599775    12.000000000000
         H            0.114516647350    -1.618428412527    -0.970166400225     1.007825032230
         H            4.458427647350     0.176197587473     0.590178599775     1.007825032230
         H           -0.810953352650    -1.237542412527     1.356334599775     1.007825032230
         H           -2.332863352650     1.746465587473    -1.337360400225     1.007825032230
         H            2.127278647350    -3.060568412527    -1.026157400225     1.007825032230
         H            4.306902647350    -2.152498412527    -0.206356400225     1.007825032230
         H           -3.098856352650    -2.161060412527     1.632713599775     1.007825032230
         H           -4.627752352650     0.791417587473    -1.100337400225     1.007825032230
         H           -5.005503352650    -1.161612412527     0.391874599775     1.007825032230
         H            1.800463647350     2.562488587473     0.380377599775     1.007825032230
         H            3.436270647350     2.288887587473     0.749914599775     1.007825032230

  Basis Set: AUG-CC-PVTZ
    Blend: AUG-CC-PVTZ
  Basis Set: (AUG-CC-PVTZ AUX)
    Blend: AUG-CC-PVTZ-JKFIT
	 Reference Energy          =    -628.1608721155662352 [Eh]
	 Singles Energy            =      -0.0000000000000000 [Eh]
	 Same-Spin Energy          =      -0.6967599646697532 [Eh]
	 Opposite-Spin Energy      =      -2.1193984866374529 [Eh]
	 Correlation Energy        =      -2.8161584513072060 [Eh]
	 Total Energy              =    -630.9770305668733954 [Eh]

	 ================> DF-SCS-MP2 Energies <==================
	-----------------------------------------------------------
	 SCS Same-Spin Scale       =       0.3333333333333333 [-]
	 SCS Opposite-Spin Scale   =       1.2000000000000000 [-]
	 SCS Same-Spin Energy      =      -0.2322533215565844 [Eh]
	 SCS Opposite-Spin Energy  =      -2.5432781839649432 [Eh]
	 SCS Correlation Energy    =      -2.7755315055215277 [Eh]
	 SCS Total Energy          =    -630.9364036210877202 [Eh]
	-----------------------------------------------------------

  Dipole Moment: [D]
     X:    -1.3666      Y:    -2.0033      Z:     0.0554     Total:     2.4257

*** Psi4 exiting successfully. Buy a developer a beer!
