                               Psi4 1.3.2 release

  ==> Input File <==

--------------------------------------------------------------------------
#psi4
#
memory 32 gb

molecule  {
0 1
  O       -0.0417540     2.1858230    -0.3073980
  N        2.4805920     1.9330880     0.7500480
  C        1.1160800     0.1042180    -0.1414450
  C       -1.4416830     0.3069060    -0.0388060
  C       -0.0816276     0.9171543    -0.1386181
  C        2.3683100     0.6434780     0.2543940
  C        1.0541080    -1.2200940    -0.6155900
  C        3.4881200    -0.2081800     0.2578510
  C       -1.6559060    -0.7921710     0.8065690
  C       -2.5248970     0.8906690    -0.7109620
  C        2.1811870    -2.0318670    -0.6465910
  C        3.4033030    -1.5159070    -0.2032770
  C       -2.9440810    -1.3050920     0.9648860
  C       -3.8044560     0.3593180    -0.5664320
  C       -4.0170070    -0.7392060     0.2722830
  H        0.1024420    -1.6051810    -0.9713120
  H        4.4463530     0.1894450     0.5890330
  H       -0.8230280    -1.2242950     1.3551890
  H       -2.3449380     1.7597130    -1.3385060
  H        2.1152040    -3.0473210    -1.0273030
  H        4.2948280    -2.1392510    -0.2075020
  H       -3.1109310    -2.1478130     1.6315680
  H       -4.6398270     0.8046650    -1.1014830
  H       -5.0175780    -1.1483650     0.3907290
  H        1.7883890     2.5757360     0.3792320
  H        3.4241960     2.3021350     0.7487690
units angstrom
no_reorient  #important for SAPT in psi4, default
symmetry c1  #important for SAPT in psi4, default
}

set PROPERTIES_ORIGIN ["COM"]
properties('MP2/aug-cc-pvtz', properties = ['dipole'])
--------------------------------------------------------------------------

    Molecular point group: c1
  Charge       = 0
  Multiplicity = 1
  Basis Set: AUG-CC-PVTZ
    Blend: AUG-CC-PVTZ
  Basis Set: (AUG-CC-PVTZ AUX)
    Blend: AUG-CC-PVTZ-JKFIT

    Orbital Energies [Eh]
    ---------------------

    Doubly Occupied:

       1A    -20.535454     2A    -15.563013     3A    -11.341774
       4A    -11.302218     5A    -11.257546     6A    -11.257096
       7A    -11.252032     8A    -11.251329     9A    -11.250711
      10A    -11.248287    11A    -11.245291    12A    -11.244312
      13A    -11.241445    14A    -11.235413    15A    -11.231697
      16A     -1.349151    17A     -1.229736    18A     -1.164069
      19A     -1.141305    20A     -1.061157    21A     -1.026182
      22A     -1.022695    23A     -1.000525    24A     -0.897125
      25A     -0.851215    26A     -0.838644    27A     -0.822123
      28A     -0.771215    29A     -0.719140    30A     -0.703040
      31A     -0.689913    32A     -0.670226    33A     -0.643762
      34A     -0.633825    35A     -0.614803    36A     -0.611313
      37A     -0.605409    38A     -0.596832    39A     -0.584173
      40A     -0.553523    41A     -0.534599    42A     -0.525257
      43A     -0.518764    44A     -0.509387    45A     -0.501395
      46A     -0.483528    47A     -0.455338    48A     -0.423259
      49A     -0.353453    50A     -0.345837    51A     -0.343950
      52A     -0.303919

  @DF-RHF Final Energy:  -628.21906691816912

   => Energetics <=

    Nuclear Repulsion Energy =            893.2898427804948369
    One-Electron Energy =               -2625.9030162621197633
    Two-Electron Energy =                1104.3941065634558072
    Total Energy =                       -628.2190669181691192
  Basis Set: (AUG-CC-PVTZ AUX)
    Blend: AUG-CC-PVTZ-RI
    Molecular point group: c1

    Geometry (in Angstrom), charge = 0, multiplicity = 1:

       Center              X                  Y                   Z               Mass
    ------------   -----------------  -----------------  -----------------  -----------------
         O           -0.041766259891     2.169420811854    -0.307241917064    15.994914619570
         N            2.480579740109     1.916685811854     0.750204082936    14.003074004430
         C            1.116067740109     0.087815811854    -0.141288917064    12.000000000000
         C           -1.441695259891     0.290503811854    -0.038649917064    12.000000000000
         C           -0.081639859891     0.900752111854    -0.138462017064    12.000000000000
         C            2.368297740109     0.627075811854     0.254550082936    12.000000000000
         C            1.054095740109    -1.236496188146    -0.615433917064    12.000000000000
         C            3.488107740109    -0.224582188146     0.258007082936    12.000000000000
         C           -1.655918259891    -0.808573188146     0.806725082936    12.000000000000
         C           -2.524909259891     0.874266811854    -0.710805917064    12.000000000000
         C            2.181174740109    -2.048269188146    -0.646434917064    12.000000000000
         C            3.403290740109    -1.532309188146    -0.203120917064    12.000000000000
         C           -2.944093259891    -1.321494188146     0.965042082936    12.000000000000
         C           -3.804468259891     0.342915811854    -0.566275917064    12.000000000000
         C           -4.017019259891    -0.755608188146     0.272439082936    12.000000000000
         H            0.102429740109    -1.621583188146    -0.971155917064     1.007825032230
         H            4.446340740109     0.173042811854     0.589189082936     1.007825032230
         H           -0.823040259891    -1.240697188146     1.355345082936     1.007825032230
         H           -2.344950259891     1.743310811854    -1.338349917064     1.007825032230
         H            2.115191740109    -3.063723188146    -1.027146917064     1.007825032230
         H            4.294815740109    -2.155653188146    -0.207345917064     1.007825032230
         H           -3.110943259891    -2.164215188146     1.631724082936     1.007825032230
         H           -4.639839259891     0.788262811854    -1.101326917064     1.007825032230
         H           -5.017590259891    -1.164767188146     0.390885082936     1.007825032230
         H            1.788376740109     2.559333811854     0.379388082936     1.007825032230
         H            3.424183740109     2.285732811854     0.748925082936     1.007825032230

  Basis Set: AUG-CC-PVTZ
    Blend: AUG-CC-PVTZ
  Basis Set: (AUG-CC-PVTZ AUX)
    Blend: AUG-CC-PVTZ-JKFIT
	 Reference Energy          =    -628.2190669181691192 [Eh]
	 Singles Energy            =      -0.0000000000000000 [Eh]
	 Same-Spin Energy          =      -0.6928070010539514 [Eh]
	 Opposite-Spin Energy      =      -2.1120229433006079 [Eh]
	 Correlation Energy        =      -2.8048299443545592 [Eh]
	 Total Energy              =    -631.0238968625236566 [Eh]

	 ================> DF-SCS-MP2 Energies <==================
	-----------------------------------------------------------
	 SCS Same-Spin Scale       =       0.3333333333333333 [-]
	 SCS Opposite-Spin Scale   =       1.2000000000000000 [-]
	 SCS Same-Spin Energy      =      -0.2309356670179838 [Eh]
	 SCS Opposite-Spin Energy  =      -2.5344275319607292 [Eh]
	 SCS Correlation Energy    =      -2.7653631989787129 [Eh]
	 SCS Total Energy          =    -630.9844301171477809 [Eh]
	-----------------------------------------------------------

  Dipole Moment: [D]
     X:     0.5455      Y:    -1.8067      Z:    -0.0692     Total:     1.8885

*** Psi4 exiting successfully. Buy a developer a beer!
