                               Psi4 1.3.2 release

  ==> Input File <==

--------------------------------------------------------------------------
#psi4
#
memory 32 gb

molecule  {
0 1
  O       -0.0417540     2.1858230    -0.3073980
  N        2.4805920     1.9330880     0.7500480
  C        1.1160800     0.1042180    -0.1414450
  C       -1.4416830     0.3069060    -0.0388060
  C       -0.0106158     1.0684453    -0.1242578
  C        2.3683100     0.6434780     0.2543940
  C        1.0541080    -1.2200940    -0.6155900
  C        3.4881200    -0.2081800     0.2578510
  C       -1.6559060    -0.7921710     0.8065690
  C       -2.5248970     0.8906690    -0.7109620
  C        2.1811870    -2.0318670    -0.6465910
  C        3.4033030    -1.5159070    -0.2032770
  C       -2.9440810    -1.3050920     0.9648860
  C       -3.8044560     0.3593180    -0.5664320
  C       -4.0170070    -0.7392060     0.2722830
  H        0.1024420    -1.6051810    -0.9713120
  H        4.4463530     0.1894450     0.5890330
  H       -0.8230280    -1.2242950     1.3551890
  H       -2.3449380     1.7597130    -1.3385060
  H        2.1152040    -3.0473210    -1.0273030
  H        4.2948280    -2.1392510    -0.2075020
  H       -3.1109310    -2.1478130     1.6315680
  H       -4.6398270     0.8046650    -1.1014830
  H       -5.0175780    -1.1483650     0.3907290
  H        1.7883890     2.5757360     0.3792320
  H        3.4241960     2.3021350     0.7487690
units angstrom
no_reorient  #important for SAPT in psi4, default
symmetry c1  #important for SAPT in psi4, default
}

set PROPERTIES_ORIGIN ["COM"]
properties('MP2/aug-cc-pvtz', properties = ['dipole'])
--------------------------------------------------------------------------

    Molecular point group: c1
  Charge       = 0
  Multiplicity = 1
  Basis Set: AUG-CC-PVTZ
    Blend: AUG-CC-PVTZ
  Basis Set: (AUG-CC-PVTZ AUX)
    Blend: AUG-CC-PVTZ-JKFIT

    Orbital Energies [Eh]
    ---------------------

    Doubly Occupied:

       1A    -20.558817     2A    -15.567291     3A    -11.340675
       4A    -11.297828     5A    -11.256998     6A    -11.255148
       7A    -11.242832     8A    -11.241778     9A    -11.241249
      10A    -11.241171    11A    -11.238918    12A    -11.238769
      13A    -11.237644    14A    -11.234225    15A    -11.231880
      16A     -1.459990    17A     -1.234605    18A     -1.153502
      19A     -1.139319    20A     -1.049251    21A     -1.016851
      22A     -1.012739    23A     -1.000281    24A     -0.884638
      25A     -0.844270    26A     -0.830458    27A     -0.815574
      28A     -0.768834    29A     -0.719837    30A     -0.704963
      31A     -0.693457    32A     -0.683118    33A     -0.652139
      34A     -0.630876    35A     -0.620134    36A     -0.614241
      37A     -0.607786    38A     -0.598803    39A     -0.592184
      40A     -0.579054    41A     -0.542669    42A     -0.531953
      43A     -0.519422    44A     -0.511391    45A     -0.498689
      46A     -0.494657    47A     -0.457515    48A     -0.400062
      49A     -0.353387    50A     -0.338991    51A     -0.337342
      52A     -0.304883

  @DF-RHF Final Energy:  -628.20746295591482

   => Energetics <=

    Nuclear Repulsion Energy =            893.4551473714421945
    One-Electron Energy =               -2626.0790451829197991
    Two-Electron Energy =                1104.4164348555627839
    Total Energy =                       -628.2074629559147070
  Basis Set: (AUG-CC-PVTZ AUX)
    Blend: AUG-CC-PVTZ-RI
    Molecular point group: c1

    Geometry (in Angstrom), charge = 0, multiplicity = 1:

       Center              X                  Y                   Z               Mass
    ------------   -----------------  -----------------  -----------------  -----------------
         O           -0.046090006737     2.160209047273    -0.308116283040    15.994914619570
         N            2.476255993263     1.907474047273     0.749329716960    14.003074004430
         C            1.111743993263     0.078604047273    -0.142163283040    12.000000000000
         C           -1.446019006737     0.281292047273    -0.039524283040    12.000000000000
         C           -0.014951806737     1.042831347273    -0.124976083040    12.000000000000
         C            2.363973993263     0.617864047273     0.253675716960    12.000000000000
         C            1.049771993263    -1.245707952727    -0.616308283040    12.000000000000
         C            3.483783993263    -0.233793952727     0.257132716960    12.000000000000
         C           -1.660242006737    -0.817784952727     0.805850716960    12.000000000000
         C           -2.529233006737     0.865055047273    -0.711680283040    12.000000000000
         C            2.176850993263    -2.057480952727    -0.647309283040    12.000000000000
         C            3.398966993263    -1.541520952727    -0.203995283040    12.000000000000
         C           -2.948417006737    -1.330705952727     0.964167716960    12.000000000000
         C           -3.808792006737     0.333704047273    -0.567150283040    12.000000000000
         C           -4.021343006737    -0.764819952727     0.271564716960    12.000000000000
         H            0.098105993263    -1.630794952727    -0.972030283040     1.007825032230
         H            4.442016993263     0.163831047273     0.588314716960     1.007825032230
         H           -0.827364006737    -1.249908952727     1.354470716960     1.007825032230
         H           -2.349274006737     1.734099047273    -1.339224283040     1.007825032230
         H            2.110867993263    -3.072934952727    -1.028021283040     1.007825032230
         H            4.290491993263    -2.164864952727    -0.208220283040     1.007825032230
         H           -3.115267006737    -2.173426952727     1.630849716960     1.007825032230
         H           -4.644163006737     0.779051047273    -1.102201283040     1.007825032230
         H           -5.021914006737    -1.173978952727     0.390010716960     1.007825032230
         H            1.784052993263     2.550122047273     0.378513716960     1.007825032230
         H            3.419859993263     2.276521047273     0.748050716960     1.007825032230

  Basis Set: AUG-CC-PVTZ
    Blend: AUG-CC-PVTZ
  Basis Set: (AUG-CC-PVTZ AUX)
    Blend: AUG-CC-PVTZ-JKFIT
	 Reference Energy          =    -628.2074629559148207 [Eh]
	 Singles Energy            =      -0.0000000000000000 [Eh]
	 Same-Spin Energy          =      -0.6890575221448437 [Eh]
	 Opposite-Spin Energy      =      -2.1045261194636806 [Eh]
	 Correlation Energy        =      -2.7935836416085245 [Eh]
	 Total Energy              =    -631.0010465975233274 [Eh]

	 ================> DF-SCS-MP2 Energies <==================
	-----------------------------------------------------------
	 SCS Same-Spin Scale       =       0.3333333333333333 [-]
	 SCS Opposite-Spin Scale   =       1.2000000000000000 [-]
	 SCS Same-Spin Energy      =      -0.2296858407149479 [Eh]
	 SCS Opposite-Spin Energy  =      -2.5254313433564168 [Eh]
	 SCS Correlation Energy    =      -2.7551171840713646 [Eh]
	 SCS Total Energy          =    -630.9625801399861302 [Eh]
	-----------------------------------------------------------

  Dipole Moment: [D]
     X:     1.1319      Y:    -1.0492      Z:    -0.1782     Total:     1.5537

*** Psi4 exiting successfully. Buy a developer a beer!
