                               Psi4 1.3.2 release

  ==> Input File <==

--------------------------------------------------------------------------
#psi4
#
memory 32 gb

molecule  {
0 1
  O       -0.0417540     2.1858230    -0.3073980
  N        2.4805920     1.9330880     0.7500480
  C        1.1160800     0.1042180    -0.1414450
  C       -1.5853760     0.3020721    -0.0687471
  C       -0.1006150     0.9516510    -0.1728080
  C        2.3683100     0.6434780     0.2543940
  C        1.0541080    -1.2200940    -0.6155900
  C        3.4881200    -0.2081800     0.2578510
  C       -1.6559060    -0.7921710     0.8065690
  C       -2.5248970     0.8906690    -0.7109620
  C        2.1811870    -2.0318670    -0.6465910
  C        3.4033030    -1.5159070    -0.2032770
  C       -2.9440810    -1.3050920     0.9648860
  C       -3.8044560     0.3593180    -0.5664320
  C       -4.0170070    -0.7392060     0.2722830
  H        0.1024420    -1.6051810    -0.9713120
  H        4.4463530     0.1894450     0.5890330
  H       -0.8230280    -1.2242950     1.3551890
  H       -2.3449380     1.7597130    -1.3385060
  H        2.1152040    -3.0473210    -1.0273030
  H        4.2948280    -2.1392510    -0.2075020
  H       -3.1109310    -2.1478130     1.6315680
  H       -4.6398270     0.8046650    -1.1014830
  H       -5.0175780    -1.1483650     0.3907290
  H        1.7883890     2.5757360     0.3792320
  H        3.4241960     2.3021350     0.7487690
units angstrom
no_reorient  #important for SAPT in psi4, default
symmetry c1  #important for SAPT in psi4, default
}

set PROPERTIES_ORIGIN ["COM"]
properties('MP2/aug-cc-pvtz', properties = ['dipole'])
--------------------------------------------------------------------------

    Molecular point group: c1
  Charge       = 0
  Multiplicity = 1
  Basis Set: AUG-CC-PVTZ
    Blend: AUG-CC-PVTZ
  Basis Set: (AUG-CC-PVTZ AUX)
    Blend: AUG-CC-PVTZ-JKFIT

    Orbital Energies [Eh]
    ---------------------

    Doubly Occupied:

       1A    -20.543346     2A    -15.562607     3A    -11.344943
       4A    -11.300148     5A    -11.255263     6A    -11.255117
       7A    -11.247819     8A    -11.245751     9A    -11.245452
      10A    -11.244634    11A    -11.243767    12A    -11.243034
      13A    -11.234334    14A    -11.230559    15A    -11.229590
      16A     -1.372574    17A     -1.229296    18A     -1.176044
      19A     -1.139380    20A     -1.049735    21A     -1.038811
      22A     -1.017891    23A     -0.998613    24A     -0.882355
      25A     -0.847289    26A     -0.842137    27A     -0.817688
      28A     -0.769803    29A     -0.719033    30A     -0.703063
      31A     -0.689016    32A     -0.663414    33A     -0.646303
      34A     -0.636479    35A     -0.617014    36A     -0.610237
      37A     -0.606463    38A     -0.598555    39A     -0.586791
      40A     -0.554151    41A     -0.536038    42A     -0.528864
      43A     -0.519526    44A     -0.512104    45A     -0.504177
      46A     -0.494473    47A     -0.454683    48A     -0.406310
      49A     -0.357565    50A     -0.351797    51A     -0.340602
      52A     -0.302942

  @DF-RHF Final Energy:  -628.20189312768969

   => Energetics <=

    Nuclear Repulsion Energy =            892.8853284095429217
    One-Electron Energy =               -2625.0792874032517830
    Two-Electron Energy =                1103.9920658660189474
    Total Energy =                       -628.2018931276898002
  Basis Set: (AUG-CC-PVTZ AUX)
    Blend: AUG-CC-PVTZ-RI
    Molecular point group: c1

    Geometry (in Angstrom), charge = 0, multiplicity = 1:

       Center              X                  Y                   Z               Mass
    ------------   -----------------  -----------------  -----------------  -----------------
         O           -0.031861020672     2.167614711488    -0.303337126466    15.994914619570
         N            2.490484979328     1.914879711488     0.754108873534    14.003074004430
         C            1.125972979328     0.086009711488    -0.137384126466    12.000000000000
         C           -1.575483020672     0.283863811488    -0.064686226466    12.000000000000
         C           -0.090722020672     0.933442711488    -0.168747126466    12.000000000000
         C            2.378202979328     0.625269711488     0.258454873534    12.000000000000
         C            1.064000979328    -1.238302288512    -0.611529126466    12.000000000000
         C            3.498012979328    -0.226388288512     0.261911873534    12.000000000000
         C           -1.646013020672    -0.810379288512     0.810629873534    12.000000000000
         C           -2.515004020672     0.872460711488    -0.706901126466    12.000000000000
         C            2.191079979328    -2.050075288512    -0.642530126466    12.000000000000
         C            3.413195979328    -1.534115288512    -0.199216126466    12.000000000000
         C           -2.934188020672    -1.323300288512     0.968946873534    12.000000000000
         C           -3.794563020672     0.341109711488    -0.562371126466    12.000000000000
         C           -4.007114020672    -0.757414288512     0.276343873534    12.000000000000
         H            0.112334979328    -1.623389288512    -0.967251126466     1.007825032230
         H            4.456245979328     0.171236711488     0.593093873534     1.007825032230
         H           -0.813135020672    -1.242503288512     1.359249873534     1.007825032230
         H           -2.335045020672     1.741504711488    -1.334445126466     1.007825032230
         H            2.125096979328    -3.065529288512    -1.023242126466     1.007825032230
         H            4.304720979328    -2.157459288512    -0.203441126466     1.007825032230
         H           -3.101038020672    -2.166021288512     1.635628873534     1.007825032230
         H           -4.629934020672     0.786456711488    -1.097422126466     1.007825032230
         H           -5.007685020672    -1.166573288512     0.394789873534     1.007825032230
         H            1.798281979328     2.557527711488     0.383292873534     1.007825032230
         H            3.434088979328     2.283926711488     0.752829873534     1.007825032230

  Basis Set: AUG-CC-PVTZ
    Blend: AUG-CC-PVTZ
  Basis Set: (AUG-CC-PVTZ AUX)
    Blend: AUG-CC-PVTZ-JKFIT
	 Reference Energy          =    -628.2018931276896865 [Eh]
	 Singles Energy            =      -0.0000000000000000 [Eh]
	 Same-Spin Energy          =      -0.6912131453472325 [Eh]
	 Opposite-Spin Energy      =      -2.1094406789526521 [Eh]
	 Correlation Energy        =      -2.8006538242998849 [Eh]
	 Total Energy              =    -631.0025469519895296 [Eh]

	 ================> DF-SCS-MP2 Energies <==================
	-----------------------------------------------------------
	 SCS Same-Spin Scale       =       0.3333333333333333 [-]
	 SCS Opposite-Spin Scale   =       1.2000000000000000 [-]
	 SCS Same-Spin Energy      =      -0.2304043817824108 [Eh]
	 SCS Opposite-Spin Energy  =      -2.5313288147431825 [Eh]
	 SCS Correlation Energy    =      -2.7617331965255936 [Eh]
	 SCS Total Energy          =    -630.9636263242152836 [Eh]
	-----------------------------------------------------------

  Dipole Moment: [D]
     X:     0.6392      Y:    -1.5386      Z:    -0.1323     Total:     1.6714

*** Psi4 exiting successfully. Buy a developer a beer!
