                               Psi4 1.3.2 release

  ==> Input File <==

--------------------------------------------------------------------------
#psi4
#
memory 32 gb

molecule  {
0 1
  O       -0.0417540     2.1858230    -0.3073980
  N        2.4805920     1.9330880     0.7500480
  C        1.1160800     0.1042180    -0.1414450
  C       -1.4416830     0.3069060    -0.0388060
  C       -0.1006150     0.9516510    -0.1728080
  C        2.3683100     0.6434780     0.2543940
  C        1.0541080    -1.2200940    -0.6155900
  C        3.4881200    -0.2081800     0.2578510
  C       -1.5113342    -0.7907121     0.8323449
  C       -2.5248970     0.8906690    -0.7109620
  C        2.1811870    -2.0318670    -0.6465910
  C        3.4033030    -1.5159070    -0.2032770
  C       -2.9440810    -1.3050920     0.9648860
  C       -3.8044560     0.3593180    -0.5664320
  C       -4.0170070    -0.7392060     0.2722830
  H        0.1024420    -1.6051810    -0.9713120
  H        4.4463530     0.1894450     0.5890330
  H       -0.8230280    -1.2242950     1.3551890
  H       -2.3449380     1.7597130    -1.3385060
  H        2.1152040    -3.0473210    -1.0273030
  H        4.2948280    -2.1392510    -0.2075020
  H       -3.1109310    -2.1478130     1.6315680
  H       -4.6398270     0.8046650    -1.1014830
  H       -5.0175780    -1.1483650     0.3907290
  H        1.7883890     2.5757360     0.3792320
  H        3.4241960     2.3021350     0.7487690
units angstrom
no_reorient  #important for SAPT in psi4, default
symmetry c1  #important for SAPT in psi4, default
}

set PROPERTIES_ORIGIN ["COM"]
properties('MP2/aug-cc-pvtz', properties = ['dipole'])
--------------------------------------------------------------------------

    Molecular point group: c1
  Charge       = 0
  Multiplicity = 1
  Basis Set: AUG-CC-PVTZ
    Blend: AUG-CC-PVTZ
  Basis Set: (AUG-CC-PVTZ AUX)
    Blend: AUG-CC-PVTZ-JKFIT

    Orbital Energies [Eh]
    ---------------------

    Doubly Occupied:

       1A    -20.539467     2A    -15.561644     3A    -11.337991
       4A    -11.298888     5A    -11.259994     6A    -11.258243
       7A    -11.254903     8A    -11.254438     9A    -11.253911
      10A    -11.250710    11A    -11.248382    12A    -11.247164
      13A    -11.240954    14A    -11.233562    15A    -11.229825
      16A     -1.372765    17A     -1.228347    18A     -1.156639
      19A     -1.137735    20A     -1.060901    21A     -1.023718
      22A     -1.014256    23A     -0.997734    24A     -0.890783
      25A     -0.855866    26A     -0.843804    27A     -0.818527
      28A     -0.767073    29A     -0.722388    30A     -0.704663
      31A     -0.688383    32A     -0.675259    33A     -0.656969
      34A     -0.632237    35A     -0.621434    36A     -0.611412
      37A     -0.604726    38A     -0.591069    39A     -0.586105
      40A     -0.553859    41A     -0.535520    42A     -0.527480
      43A     -0.517607    44A     -0.510432    45A     -0.501600
      46A     -0.486971    47A     -0.454008    48A     -0.416769
      49A     -0.353978    50A     -0.349340    51A     -0.333231
      52A     -0.302008

  @DF-RHF Final Energy:  -628.19580351951470

   => Energetics <=

    Nuclear Repulsion Energy =            892.8037772761733777
    One-Electron Energy =               -2624.8478162631686246
    Two-Electron Energy =                1103.8482354674804355
    Total Energy =                       -628.1958035195148113
  Basis Set: (AUG-CC-PVTZ AUX)
    Blend: AUG-CC-PVTZ-RI
    Molecular point group: c1

    Geometry (in Angstrom), charge = 0, multiplicity = 1:

       Center              X                  Y                   Z               Mass
    ------------   -----------------  -----------------  -----------------  -----------------
         O           -0.049412808118     2.167231557221    -0.306729607758    15.994914619570
         N            2.472933191882     1.914496557221     0.750716392242    14.003074004430
         C            1.108421191882     0.085626557221    -0.140776607758    12.000000000000
         C           -1.449341808118     0.288314557221    -0.038137607758    12.000000000000
         C           -0.108273808118     0.933059557221    -0.172139607758    12.000000000000
         C            2.360651191882     0.624886557221     0.255062392242    12.000000000000
         C            1.046449191882    -1.238685442779    -0.614921607758    12.000000000000
         C            3.480461191882    -0.226771442779     0.258519392242    12.000000000000
         C           -1.518993008118    -0.809303542779     0.833013292242    12.000000000000
         C           -2.532555808118     0.872077557221    -0.710293607758    12.000000000000
         C            2.173528191882    -2.050458442779    -0.645922607758    12.000000000000
         C            3.395644191882    -1.534498442779    -0.202608607758    12.000000000000
         C           -2.951739808118    -1.323683442779     0.965554392242    12.000000000000
         C           -3.812114808118     0.340726557221    -0.565763607758    12.000000000000
         C           -4.024665808118    -0.757797442779     0.272951392242    12.000000000000
         H            0.094783191882    -1.623772442779    -0.970643607758     1.007825032230
         H            4.438694191882     0.170853557221     0.589701392242     1.007825032230
         H           -0.830686808118    -1.242886442779     1.355857392242     1.007825032230
         H           -2.352596808118     1.741121557221    -1.337837607758     1.007825032230
         H            2.107545191882    -3.065912442779    -1.026634607758     1.007825032230
         H            4.287169191882    -2.157842442779    -0.206833607758     1.007825032230
         H           -3.118589808118    -2.166404442779     1.632236392242     1.007825032230
         H           -4.647485808118     0.786073557221    -1.100814607758     1.007825032230
         H           -5.025236808118    -1.166956442779     0.391397392242     1.007825032230
         H            1.780730191882     2.557144557221     0.379900392242     1.007825032230
         H            3.416537191882     2.283543557221     0.749437392242     1.007825032230

  Basis Set: AUG-CC-PVTZ
    Blend: AUG-CC-PVTZ
  Basis Set: (AUG-CC-PVTZ AUX)
    Blend: AUG-CC-PVTZ-JKFIT
	 Reference Energy          =    -628.1958035195146977 [Eh]
	 Singles Energy            =      -0.0000000000000000 [Eh]
	 Same-Spin Energy          =      -0.6919685671555684 [Eh]
	 Opposite-Spin Energy      =      -2.1121043444321934 [Eh]
	 Correlation Energy        =      -2.8040729115877618 [Eh]
	 Total Energy              =    -630.9998764311025070 [Eh]

	 ================> DF-SCS-MP2 Energies <==================
	-----------------------------------------------------------
	 SCS Same-Spin Scale       =       0.3333333333333333 [-]
	 SCS Opposite-Spin Scale   =       1.2000000000000000 [-]
	 SCS Same-Spin Energy      =      -0.2306561890518561 [Eh]
	 SCS Opposite-Spin Energy  =      -2.5345252133186320 [Eh]
	 SCS Correlation Energy    =      -2.7651814023704882 [Eh]
	 SCS Total Energy          =    -630.9609849218851423 [Eh]
	-----------------------------------------------------------

  Dipole Moment: [D]
     X:     0.3025      Y:    -1.6422      Z:    -0.1032     Total:     1.6730

*** Psi4 exiting successfully. Buy a developer a beer!
