                               Psi4 1.3.2 release

  ==> Input File <==

--------------------------------------------------------------------------
#psi4
#
memory 32 gb

molecule  {
0 1
  O       -0.0417540     2.1858230    -0.3073980
  N        2.4805920     1.9330880     0.7500480
  C        1.1160800     0.1042180    -0.1414450
  C       -1.2996617     0.2971753    -0.0027117
  C       -0.1006150     0.9516510    -0.1728080
  C        2.3683100     0.6434780     0.2543940
  C        1.0541080    -1.2200940    -0.6155900
  C        3.4881200    -0.2081800     0.2578510
  C       -1.6559060    -0.7921710     0.8065690
  C       -2.5248970     0.8906690    -0.7109620
  C        2.1811870    -2.0318670    -0.6465910
  C        3.4033030    -1.5159070    -0.2032770
  C       -2.9440810    -1.3050920     0.9648860
  C       -3.8044560     0.3593180    -0.5664320
  C       -4.0170070    -0.7392060     0.2722830
  H        0.1024420    -1.6051810    -0.9713120
  H        4.4463530     0.1894450     0.5890330
  H       -0.8230280    -1.2242950     1.3551890
  H       -2.3449380     1.7597130    -1.3385060
  H        2.1152040    -3.0473210    -1.0273030
  H        4.2948280    -2.1392510    -0.2075020
  H       -3.1109310    -2.1478130     1.6315680
  H       -4.6398270     0.8046650    -1.1014830
  H       -5.0175780    -1.1483650     0.3907290
  H        1.7883890     2.5757360     0.3792320
  H        3.4241960     2.3021350     0.7487690
units angstrom
no_reorient  #important for SAPT in psi4, default
symmetry c1  #important for SAPT in psi4, default
}

set PROPERTIES_ORIGIN ["COM"]
properties('MP2/aug-cc-pvtz', properties = ['dipole'])
--------------------------------------------------------------------------

    Molecular point group: c1
  Charge       = 0
  Multiplicity = 1
  Basis Set: AUG-CC-PVTZ
    Blend: AUG-CC-PVTZ
  Basis Set: (AUG-CC-PVTZ AUX)
    Blend: AUG-CC-PVTZ-JKFIT

    Orbital Energies [Eh]
    ---------------------

    Doubly Occupied:

       1A    -20.536743     2A    -15.559946     3A    -11.332160
       4A    -11.296333     5A    -11.265798     6A    -11.261770
       7A    -11.260760     8A    -11.253589     9A    -11.252562
      10A    -11.252103    11A    -11.248647    12A    -11.246420
      13A    -11.237484    14A    -11.231728    15A    -11.228166
      16A     -1.373381    17A     -1.226486    18A     -1.160183
      19A     -1.136802    20A     -1.070209    21A     -1.023598
      22A     -1.018966    23A     -0.995621    24A     -0.909671
      25A     -0.851225    26A     -0.835096    27A     -0.820509
      28A     -0.769758    29A     -0.717833    30A     -0.702781
      31A     -0.687225    32A     -0.678783    33A     -0.651120
      34A     -0.633273    35A     -0.618755    36A     -0.610350
      37A     -0.603470    38A     -0.590537    39A     -0.585944
      40A     -0.554079    41A     -0.535747    42A     -0.533538
      43A     -0.520788    44A     -0.508578    45A     -0.491609
      46A     -0.478600    47A     -0.452269    48A     -0.425040
      49A     -0.356264    50A     -0.348155    51A     -0.335753
      52A     -0.299895

  @DF-RHF Final Energy:  -628.19742142170958

   => Energetics <=

    Nuclear Repulsion Energy =            893.8781044235922764
    One-Electron Energy =               -2626.9988513308048823
    Two-Electron Energy =                1104.9233254855030282
    Total Energy =                       -628.1974214217095778
  Basis Set: (AUG-CC-PVTZ AUX)
    Blend: AUG-CC-PVTZ-RI
    Molecular point group: c1

    Geometry (in Angstrom), charge = 0, multiplicity = 1:

       Center              X                  Y                   Z               Mass
    ------------   -----------------  -----------------  -----------------  -----------------
         O           -0.049257513979     2.167912866493    -0.307357871645    15.994914619570
         N            2.473088486021     1.915177866493     0.750088128355    14.003074004430
         C            1.108576486021     0.086307866493    -0.141404871645    12.000000000000
         C           -1.307165213979     0.279265166493    -0.002671571645    12.000000000000
         C           -0.108118513979     0.933740866493    -0.172767871645    12.000000000000
         C            2.360806486021     0.625567866493     0.254434128355    12.000000000000
         C            1.046604486021    -1.238004133507    -0.615549871645    12.000000000000
         C            3.480616486021    -0.226090133507     0.257891128355    12.000000000000
         C           -1.663409513979    -0.810081133507     0.806609128355    12.000000000000
         C           -2.532400513979     0.872758866493    -0.710921871645    12.000000000000
         C            2.173683486021    -2.049777133507    -0.646550871645    12.000000000000
         C            3.395799486021    -1.533817133507    -0.203236871645    12.000000000000
         C           -2.951584513979    -1.323002133507     0.964926128355    12.000000000000
         C           -3.811959513979     0.341407866493    -0.566391871645    12.000000000000
         C           -4.024510513979    -0.757116133507     0.272323128355    12.000000000000
         H            0.094938486021    -1.623091133507    -0.971271871645     1.007825032230
         H            4.438849486021     0.171534866493     0.589073128355     1.007825032230
         H           -0.830531513979    -1.242205133507     1.355229128355     1.007825032230
         H           -2.352441513979     1.741802866493    -1.338465871645     1.007825032230
         H            2.107700486021    -3.065231133507    -1.027262871645     1.007825032230
         H            4.287324486021    -2.157161133507    -0.207461871645     1.007825032230
         H           -3.118434513979    -2.165723133507     1.631608128355     1.007825032230
         H           -4.647330513979     0.786754866493    -1.101442871645     1.007825032230
         H           -5.025081513979    -1.166275133507     0.390769128355     1.007825032230
         H            1.780885486021     2.557825866493     0.379272128355     1.007825032230
         H            3.416692486021     2.284224866493     0.748809128355     1.007825032230

  Basis Set: AUG-CC-PVTZ
    Blend: AUG-CC-PVTZ
  Basis Set: (AUG-CC-PVTZ AUX)
    Blend: AUG-CC-PVTZ-JKFIT
	 Reference Energy          =    -628.1974214217095778 [Eh]
	 Singles Energy            =      -0.0000000000000000 [Eh]
	 Same-Spin Energy          =      -0.6934439246427537 [Eh]
	 Opposite-Spin Energy      =      -2.1134195586176618 [Eh]
	 Correlation Energy        =      -2.8068634832604156 [Eh]
	 Total Energy              =    -631.0042849049699498 [Eh]

	 ================> DF-SCS-MP2 Energies <==================
	-----------------------------------------------------------
	 SCS Same-Spin Scale       =       0.3333333333333333 [-]
	 SCS Opposite-Spin Scale   =       1.2000000000000000 [-]
	 SCS Same-Spin Energy      =      -0.2311479748809179 [Eh]
	 SCS Opposite-Spin Energy  =      -2.5361034703411942 [Eh]
	 SCS Correlation Energy    =      -2.7672514452221120 [Eh]
	 SCS Total Energy          =    -630.9646728669316644 [Eh]
	-----------------------------------------------------------

  Dipole Moment: [D]
     X:    -0.0399      Y:    -1.7633      Z:    -0.0597     Total:     1.7648

*** Psi4 exiting successfully. Buy a developer a beer!
