                               Psi4 1.4a3.dev225

  ==> Input File <==

--------------------------------------------------------------------------
#psi4
#
memory 32 gb

molecule  {
0 1
  O       -0.0417540     2.1858230    -0.3073980
  N        2.4805920     1.9330880     0.7500480
  C        1.1160800     0.1042180    -0.1414450
  C       -1.4416830     0.3069060    -0.0388060
  C       -0.1006150     0.9516510    -0.1728080
  C        2.3723602     0.6899961     0.2722730
  C        1.0541080    -1.2200940    -0.6155900
  C        3.4881200    -0.2081800     0.2578510
  C       -1.6559060    -0.7921710     0.8065690
  C       -2.5248970     0.8906690    -0.7109620
  C        2.1811870    -2.0318670    -0.6465910
  C        3.4033030    -1.5159070    -0.2032770
  C       -2.9440810    -1.3050920     0.9648860
  C       -3.8044560     0.3593180    -0.5664320
  C       -4.0170070    -0.7392060     0.2722830
  H        0.1024420    -1.6051810    -0.9713120
  H        4.4463530     0.1894450     0.5890330
  H       -0.8230280    -1.2242950     1.3551890
  H       -2.3449380     1.7597130    -1.3385060
  H        2.1152040    -3.0473210    -1.0273030
  H        4.2948280    -2.1392510    -0.2075020
  H       -3.1109310    -2.1478130     1.6315680
  H       -4.6398270     0.8046650    -1.1014830
  H       -5.0175780    -1.1483650     0.3907290
  H        1.7883890     2.5757360     0.3792320
  H        3.4241960     2.3021350     0.7487690
units angstrom
no_reorient  #important for SAPT in psi4, default
symmetry c1  #important for SAPT in psi4, default
}

set PROPERTIES_ORIGIN ["COM"]
properties('MP2/aug-cc-pvtz', properties = ['dipole'])
--------------------------------------------------------------------------

    Molecular point group: c1
  Charge       = 0
  Multiplicity = 1
  Basis Set: AUG-CC-PVTZ
    Blend: AUG-CC-PVTZ
  Basis Set: (AUG-CC-PVTZ AUX)
    Blend: AUG-CC-PVTZ-JKFIT

    Orbital Energies [Eh]
    ---------------------

    Doubly Occupied:

       1A    -20.539806     2A    -15.569723     3A    -11.339371
       4A    -11.304004     5A    -11.253565     6A    -11.253205
       7A    -11.251513     8A    -11.250593     9A    -11.248903
      10A    -11.247067    11A    -11.244967    12A    -11.243584
      13A    -11.240603    14A    -11.233596    15A    -11.226498
      16A     -1.373345    17A     -1.248438    18A     -1.163370
      19A     -1.137139    20A     -1.055135    21A     -1.025287
      22A     -1.018655    23A     -0.993672    24A     -0.891007
      25A     -0.847403    26A     -0.837728    27A     -0.820798
      28A     -0.769699    29A     -0.717129    30A     -0.708663
      31A     -0.696212    32A     -0.673208    33A     -0.646635
      34A     -0.635325    35A     -0.614858    36A     -0.612142
      37A     -0.600217    38A     -0.596143    39A     -0.586764
      40A     -0.556371    41A     -0.535968    42A     -0.527324
      43A     -0.518857    44A     -0.505419    45A     -0.501279
      46A     -0.491735    47A     -0.459577    48A     -0.419208
      49A     -0.350651    50A     -0.345429    51A     -0.343575
      52A     -0.295707

  @DF-RHF Final Energy:  -628.22250712958987

   => Energetics <=

    Nuclear Repulsion Energy =            892.9434888213630757
    One-Electron Energy =               -2625.1978521652108611
    Two-Electron Energy =                1104.0318562142579140
    Total Energy =                       -628.2225071295897578
  Basis Set: (AUG-CC-PVTZ AUX)
    Blend: AUG-CC-PVTZ-RI
    Molecular point group: c1

    Geometry (in Angstrom), charge = 0, multiplicity = 1:

       Center              X                  Y                   Z               Mass
    ------------   -----------------  -----------------  -----------------  -----------------
         O           -0.040856767787     2.164488005109    -0.306248783494    15.994914619570
         N            2.481489232213     1.911753005109     0.751197216506    14.003074004430
         C            1.116977232213     0.082883005109    -0.140295783494    12.000000000000
         C           -1.440785767787     0.285571005109    -0.037656783494    12.000000000000
         C           -0.099717767787     0.930316005109    -0.171658783494    12.000000000000
         C            2.373257432213     0.668661105109     0.273422216506    12.000000000000
         C            1.055005232213    -1.241428994891    -0.614440783494    12.000000000000
         C            3.489017232213    -0.229514994891     0.259000216506    12.000000000000
         C           -1.655008767787    -0.813505994891     0.807718216506    12.000000000000
         C           -2.523999767787     0.869334005109    -0.709812783494    12.000000000000
         C            2.182084232213    -2.053201994891    -0.645441783494    12.000000000000
         C            3.404200232213    -1.537241994891    -0.202127783494    12.000000000000
         C           -2.943183767787    -1.326426994891     0.966035216506    12.000000000000
         C           -3.803558767787     0.337983005109    -0.565282783494    12.000000000000
         C           -4.016109767787    -0.760540994891     0.273432216506    12.000000000000
         H            0.103339232213    -1.626515994891    -0.970162783494     1.007825032230
         H            4.447250232213     0.168110005109     0.590182216506     1.007825032230
         H           -0.822130767787    -1.245629994891     1.356338216506     1.007825032230
         H           -2.344040767787     1.738378005109    -1.337356783494     1.007825032230
         H            2.116101232213    -3.068655994891    -1.026153783494     1.007825032230
         H            4.295725232213    -2.160585994891    -0.206352783494     1.007825032230
         H           -3.110033767787    -2.169147994891     1.632717216506     1.007825032230
         H           -4.638929767787     0.783330005109    -1.100333783494     1.007825032230
         H           -5.016680767787    -1.169699994891     0.391878216506     1.007825032230
         H            1.789286232213     2.554401005109     0.380381216506     1.007825032230
         H            3.425093232213     2.280800005109     0.749918216506     1.007825032230

  Basis Set: AUG-CC-PVTZ
    Blend: AUG-CC-PVTZ
  Basis Set: (AUG-CC-PVTZ AUX)
    Blend: AUG-CC-PVTZ-JKFIT
	 Reference Energy          =    -628.2225071295898715 [Eh]
	 Singles Energy            =      -0.0000000000000000 [Eh]
	 Same-Spin Energy          =      -0.6918127947745202 [Eh]
	 Opposite-Spin Energy      =      -2.1096104505285918 [Eh]
	 Correlation Energy        =      -2.8014232453031118 [Eh]
	 Total Energy              =    -631.0239303748929842 [Eh]

	 ================> DF-SCS-MP2 Energies <==================
	-----------------------------------------------------------
	 SCS Same-Spin Scale       =       0.3333333333333333 [-]
	 SCS Opposite-Spin Scale   =       1.2000000000000000 [-]
	 SCS Same-Spin Energy      =      -0.2306042649248400 [Eh]
	 SCS Opposite-Spin Energy  =      -2.5315325406343101 [Eh]
	 SCS Correlation Energy    =      -2.7621368055591500 [Eh]
	 SCS Total Energy          =    -630.9846439351490517 [Eh]
	-----------------------------------------------------------

  Dipole Moment: [D]
     X:     0.4776      Y:    -1.3208      Z:     0.0295     Total:     1.4048

*** Psi4 exiting successfully. Buy a developer a beer!
